Control file title. For DL_FIELD 4.10
49610
    1MOL     C1    1   3.115   7.722   1.225 -0.5790  0.2930  0.3278
    1MOL     C2    2   3.228   7.674   1.294  0.0585  0.1533  0.0934
    1MOL     C3    3   3.212   7.603   1.410 -0.5096  0.6166  0.3614
    1MOL     C4    4   3.081   7.582   1.465  0.1792 -0.0012  0.7861
    1MOL     C5    5   2.965   7.633   1.394  0.4806 -0.6217 -0.6312
    1MOL     C6    6   2.985   7.708   1.277  0.5491  0.0345  0.0918
    1MOL     S7    7   3.072   7.498   1.622 -0.4007 -0.5767 -0.0239
    1MOL     O8    8   2.935   7.444   1.626  0.4443  0.5183 -0.2932
    1MOL     O9    9   3.115   7.596   1.721  0.3356  0.1543 -0.2343
    1MOL    C10   10   3.181   7.347   1.630 -0.1258 -0.4349  0.9639
    1MOL    C11   11   3.312   7.357   1.674 -0.9731  0.3876  0.3006
    1MOL    C12   12   3.395   7.243   1.679 -0.3219  0.1749  0.2172
    1MOL    C13   13   3.344   7.121   1.638 -0.2436  0.0635  0.4607
    1MOL    C14   14   3.210   7.112   1.593 -0.0576  0.3323  0.3915
    1MOL    C15   15   3.124   7.224   1.594 -0.9049 -0.4106 -0.2180
    1MOL    O16   16   3.422   7.002   1.643 -0.4387 -0.2532  0.0308
    1MOL    C17   17   3.447   6.947   1.767  0.3179 -0.4371  0.0792
    1MOL    C18   18   3.543   6.994   1.855  1.1539  0.8509  0.0194
    1MOL    C19   19   3.556   6.937   1.986  0.0715 -0.0342 -0.0400
    1MOL    C20   20   3.482   6.826   2.026  0.5951 -0.0940 -0.3873
    1MOL    C21   21   3.383   6.779   1.933  0.1791  0.0741 -0.2924
    1MOL    C22   22   3.364   6.841   1.809 -0.0210 -0.5823  0.1604
    1MOL    C23   23   3.508   6.754   2.149  0.3782 -0.6206 -0.8146
    1MOL    C24   24   3.519   6.612   2.148 -0.6194  0.0382  0.3425
    1MOL    C25   25   3.542   6.536   2.269  0.2480 -0.9651 -0.1941
    1MOL    C26   26   3.563   6.594   2.393  0.9742 -0.0029 -0.3247
    1MOL    C27   27   3.553   6.737   2.396 -0.3806  0.2591 -0.0570
    1MOL    C28   28   3.523   6.813   2.281 -0.0925 -0.2241 -0.4264
    1MOL    O29   29   3.579   6.515   2.512  0.0425 -0.4018 -0.9655
    1MOL    H30   30   3.329   7.688   1.257 -0.9021  4.1507 -1.2155
    1MOL    H31   31   3.292   7.551   1.460  1.1217  0.7746 -2.0029
    1MOL    H32   32   2.864   7.625   1.430  0.0165 -0.5225 -1.9016
    1MOL    H33   33   2.901   7.752   1.226  0.8348  3.3705  2.3511
    1MOL    H34   34   3.352   7.453   1.707  0.5790 -0.3817  0.7315
    1MOL    H35   35   3.498   7.243   1.712 -0.3713 -0.1344  0.3692
    1MOL    H36   36   3.172   7.019   1.553 -0.1464  1.2194 -1.7089
    1MOL    H37   37   3.023   7.217   1.555 -0.8423 -2.5667 -0.0580
    1MOL    H38   38   3.601   7.079   1.822  1.3788  0.4590 -0.6191
    1MOL    H39   39   3.636   6.971   2.050  1.0230 -1.6138 -0.3604
    1MOL    H40   40   3.329   6.691   1.965 -0.1616  0.8384  1.2612
    1MOL    H41   41   3.285   6.807   1.744 -1.9510 -0.2595  2.2446
    1MOL    H42   42   3.497   6.557   2.058 -0.0090 -2.2735  1.5690
    1MOL    H43   43   3.537   6.428   2.271  1.1323 -1.0072  0.4076
    1MOL    H44   44   3.565   6.785   2.492 -1.9321  0.1630  0.1983
    1MOL    H45   45   3.510   6.921   2.276  0.4941 -0.0976  0.7056
    1MOL    H46   46   3.123   7.766   1.126 -1.0451 -1.6575 -0.5956
    1MOL    C47   47   3.689   6.429   2.517  0.2881  0.3835 -0.1552
    1MOL    C48   48   3.679   6.296   2.560  0.0065  0.5582 -0.8814
    1MOL    C49   49   3.793   6.208   2.567  0.1515  0.3216 -0.6969
    1MOL    C50   50   3.919   6.264   2.536  0.3279  1.6505 -0.3111
    1MOL    C51   51   3.936   6.397   2.497  0.3591 -0.1467 -0.0154
    1MOL    C52   52   3.818   6.480   2.491 -0.1942 -0.1895 -0.1169
    1MOL    S53   53   4.069   6.161   2.527  0.7369  0.2367 -0.6047
    1MOL    O54   54   4.101   6.145   2.385 -0.6074  0.2097 -0.7743
    1MOL    O55   55   4.039   6.048   2.611 -0.2402 -0.0877  0.1694
    1MOL    C56   56   4.199   6.260   2.621  0.6539 -0.1475 -0.1162
    1MOL    C57   57   4.165   6.331   2.742  0.0764  0.3704  0.0158
    1MOL    C58   58   4.268   6.386   2.814 -0.1696 -0.2125  0.5283
    1MOL    C59   59   4.407   6.376   2.762  0.0853 -0.8746 -0.9954
    1MOL    C60   60   4.437   6.316   2.642 -0.2543 -0.6913  0.1389
    1MOL    C61   61   4.328   6.254   2.577  0.4602  0.3717  0.1985
    1MOL    O62   62   4.509   6.435   2.842  0.0578  0.5661 -0.2543
    1MOL    C63   63   4.511   6.574   2.846  0.2899 -0.2601  0.2747
    1MOL    C64   64   4.578   6.627   2.958 -0.0606  1.1465  0.2545
    1MOL    C65   65   4.596   6.768   2.962 -0.3596  0.1259 -0.3057
    1MOL    C66   66   4.528   6.858   2.879  0.3596 -0.5880 -0.5910
    1MOL    C67   67   4.445   6.803   2.776 -0.4994 -0.0966  0.0664
    1MOL    C68   68   4.448   6.665   2.748  0.8354  0.1191  0.6016
    1MOL    C69   69   4.538   7.001   2.911 -0.0107 -0.1410 -0.0583
    1MOL    C70   70   4.655   7.074   2.877 -0.1937  0.3912 -0.1116
    1MOL    C71   71   4.672   7.211   2.920 -0.5214  0.4976 -0.6903
    1MOL    C72   72   4.591   7.270   3.016 -0.4844 -0.2047 -0.4820
    1MOL    C73   73   4.480   7.195   3.056  0.1091  0.1267 -1.0710
    1MOL    C74   74   4.455   7.060   3.010 -0.2295 -0.0491 -0.1969
    1MOL    O75   75   4.625   7.400   3.062 -0.7113  0.3534  0.2314
    1MOL    H76   76   3.584   6.253   2.589 -0.8389  1.8772 -1.6364
    1MOL    H77   77   3.780   6.106   2.599  0.2129  0.1809 -1.1189
    1MOL    H78   78   4.030   6.436   2.462 -0.5398  0.1030 -2.2379
    1MOL    H79   79   3.834   6.579   2.451  0.7007 -0.9162 -1.5670
    1MOL    H80   80   4.062   6.347   2.769  0.2252 -0.6740  1.2340
    1MOL    H81   81   4.243   6.438   2.905 -2.6926  1.2643 -0.9417
    1MOL    H82   82   4.537   6.308   2.603 -0.2314 -1.0457  0.2680
    1MOL    H83   83   4.354   6.194   2.491  0.2898  0.9251 -0.2404
    1MOL    H84   84   4.631   6.560   3.024  2.7445  0.6420 -2.4307
    1MOL    H85   85   4.646   6.812   3.046 -0.4086 -0.6641  0.1390
    1MOL    H86   86   4.391   6.872   2.712 -1.5611 -1.0168 -0.0371
    1MOL    H87   87   4.397   6.623   2.663  1.9625 -0.6248  0.2843
    1MOL    H88   88   4.726   7.022   2.815  1.2148  0.1125  1.6702
    1MOL    H89   89   4.749   7.279   2.889 -0.4699  0.2878 -1.0257
    1MOL    H90   90   4.411   7.240   3.127  0.6404  0.9178 -1.0542
    1MOL    H91   91   4.365   7.011   3.046  1.0061  1.0571  4.6577
    1MOL    C92   92   4.581   7.451   3.185 -0.2605 -0.0283  0.9869
    1MOL    C93   93   4.596   7.378   3.301  0.1727  0.4114  0.0320
    1MOL    C94   94   4.563   7.434   3.427 -0.5966 -0.1731 -1.0765
    1MOL    C95   95   4.496   7.569   3.434  0.1385  0.1640  0.2099
    1MOL    C96   96   4.493   7.639   3.317 -0.3476  0.0727 -0.5909
    1MOL    C97   97   4.536   7.586   3.194 -0.0212 -0.8265  0.7774
    1MOL    S98   98   4.466   7.646   3.592 -0.0486 -0.0738 -0.4065
    1MOL    O99   99   4.463   7.792   3.574  0.4252  0.2672  0.3185
    1MOL   O100  100   4.567   7.587   3.682  0.0955  0.2596 -0.7214
    1MOL   C101  101   4.304   7.596   3.660  0.0163 -0.2503 -0.8444
    1MOL   C102  102   4.229   7.492   3.600  0.2429 -0.3397 -1.4676
    1MOL   C103  103   4.107   7.456   3.660  0.2748  0.1265  0.4490
    1MOL   C104  104   4.055   7.523   3.773 -0.0070  0.3443 -0.4655
    1MOL   C105  105   4.133   7.627   3.829 -0.1316 -0.2709 -0.2182
    1MOL   C106  106   4.260   7.666   3.776 -0.2018 -0.4987  0.6463
    1MOL   O107  107   3.931   7.482   3.830 -0.6714  0.1543  0.5930
    1MOL   C108  108   3.910   7.464   3.959 -0.2542  0.2212  0.0198
    1MOL   C109  109   4.022   7.464   4.051  0.0241  0.3438 -0.8430
    1MOL   C110  110   3.996   7.438   4.186 -0.2842  0.4181 -0.1917
    1MOL   C111  111   3.866   7.404   4.237 -0.6455 -0.1095  0.1396
    1MOL   C112  112   3.760   7.396   4.145 -0.0642  0.5493  0.1332
    1MOL   C113  113   3.774   7.433   4.007 -0.4693 -0.4343 -0.0310
    1MOL   C114  114   3.847   7.361   4.376  0.1498  0.7202 -0.2739
    1MOL   C115  115   3.765   7.246   4.398  0.8254 -0.1947 -0.1265
    1MOL   C116  116   3.732   7.205   4.530  0.3628  0.3582  0.3489
    1MOL   C117  117   3.775   7.277   4.642 -0.1149 -0.0269  0.1200
    1MOL   C118  118   3.868   7.385   4.627 -0.0200  0.9060 -0.3620
    1MOL   C119  119   3.892   7.427   4.494 -0.8334  0.0914 -0.5667
    1MOL   O120  120   3.728   7.237   4.761  0.3488  0.2664  0.0725
    1MOL   H121  121   4.637   7.278   3.301 -2.1468 -0.6022  2.7099
    1MOL   H122  122   4.585   7.379   3.517  0.0266 -0.2990 -1.3038
    1MOL   H123  123   4.478   7.746   3.321 -1.8299 -0.1038 -1.3686
    1MOL   H124  124   4.544   7.646   3.105  0.0067  1.4757  2.2909
    1MOL   H125  125   4.273   7.441   3.516  1.4903  0.3642 -1.2475
    1MOL   H126  126   4.051   7.368   3.634  1.3415 -1.0135  1.8435
    1MOL   H127  127   4.088   7.685   3.908 -0.0486  0.7425 -0.9057
    1MOL   H128  128   4.313   7.750   3.819 -2.6432  1.7883 -0.6799
    1MOL   H129  129   4.122   7.480   4.013 -0.0760 -0.0105 -1.2637
    1MOL   H130  130   4.081   7.432   4.253 -0.2491  0.7779 -0.2080
    1MOL   H131  131   3.659   7.376   4.178 -0.7247 -0.0861 -2.1808
    1MOL   H132  132   3.685   7.441   3.946  0.9517 -0.1760 -2.1536
    1MOL   H133  133   3.742   7.187   4.311 -1.4797 -0.5983  0.7096
    1MOL   H134  134   3.665   7.122   4.547 -0.1564  1.1343  2.2724
    1MOL   H135  135   3.907   7.441   4.711 -0.7356 -1.1056  1.3462
    1MOL   H136  136   3.951   7.517   4.482 -0.8366  0.3757  1.4090
    1MOL   C137  137   3.606   7.292   4.798  0.8838  0.1282 -0.3269
    1MOL   C138  138   3.487   7.263   4.727 -0.4356 -0.0256 -0.1308
    1MOL   C139  139   3.360   7.321   4.745 -0.1325  0.2926 -0.0395
    1MOL   C140  140   3.353   7.425   4.842  0.4640 -0.1464  0.3724
    1MOL   C141  141   3.465   7.449   4.929 -0.2358 -0.7142 -0.1563
    1MOL   C142  142   3.587   7.385   4.903 -0.7102 -0.5828  0.2251
    1MOL   S143  143   3.188   7.498   4.874  0.0763 -0.1771  0.0835
    1MOL   O144  144   3.086   7.413   4.807  0.0770  0.2099 -0.7501
    1MOL   O145  145   3.191   7.644   4.844  0.0120 -0.2399  0.0738
    1MOL   C146  146   3.171   7.480   5.053  0.4491  0.3834 -0.1192
    1MOL   C147  147   3.097   7.369   5.109  0.4841 -0.2216 -0.0839
    1MOL   C148  148   3.084   7.347   5.246  0.0802  0.2964 -0.2812
    1MOL   C149  149   3.153   7.434   5.330 -0.9091 -0.1510 -1.2939
    1MOL   C150  150   3.231   7.543   5.280  0.5329  0.0398 -0.2893
    1MOL   C151  151   3.248   7.560   5.144 -0.7574 -0.2802 -0.4299
    1MOL   O152  152   3.139   7.423   5.468  0.4383 -0.7355  0.2821
    1MOL   C153  153   3.245   7.365   5.534  0.3117  0.1378 -0.0403
    1MOL   C154  154   3.328   7.273   5.478 -0.1511 -0.5532  0.5502
    1MOL   C155  155   3.424   7.206   5.554  0.6494 -0.2584 -0.1095
    1MOL   C156  156   3.445   7.238   5.690 -0.0512 -0.8156 -0.0009
    1MOL   C157  157   3.365   7.340   5.747 -0.0966 -0.0189 -0.0230
    1MOL   C158  158   3.268   7.409   5.667 -0.6100  0.2639  0.2930
    1MOL   C159  159   3.539   7.157   5.777 -0.5250  0.6416  0.8230
    1MOL   C160  160   3.541   7.017   5.784 -0.3030  0.0945  0.5443
    1MOL   C161  161   3.617   6.945   5.873 -0.3805 -0.2104 -0.5329
    1MOL   C162  162   3.702   7.011   5.962 -0.4107  0.3282  0.8539
    1MOL   C163  163   3.707   7.152   5.960 -0.1815  0.1703  0.3125
    1MOL   C164  164   3.624   7.223   5.871  0.2576  0.4617  0.0964
    1MOL   O165  165   3.794   6.933   6.034  0.5006 -0.2143  0.4934
    1MOL   H166  166   3.486   7.184   4.653 -0.8463 -1.6045  1.5316
    1MOL   H167  167   3.269   7.292   4.695 -0.2869 -0.5919  0.7432
    1MOL   H168  168   3.456   7.532   4.998 -0.8994 -0.6258 -0.3475
    1MOL   H169  169   3.679   7.423   4.946 -0.6221  0.7070 -1.0362
    1MOL   H170  170   3.045   7.299   5.045 -1.1257  0.5272  0.3909
    1MOL   H171  171   3.012   7.275   5.284 -0.3113  1.1858  0.6735
    1MOL   H172  172   3.281   7.613   5.345 -0.0921  0.3705 -0.1716
    1MOL   H173  173   3.309   7.638   5.100  0.5210 -1.0210  0.0111
    1MOL   H174  174   3.335   7.255   5.372 -2.1333 -0.3927  0.3707
    1MOL   H175  175   3.493   7.138   5.506 -0.0813 -1.6972  0.8496
    1MOL   H176  176   3.384   7.362   5.851  0.2161  0.1499 -0.1157
    1MOL   H177  177   3.208   7.483   5.718 -0.6981 -1.0750  2.1831
    1MOL   H178  178   3.473   6.963   5.721  0.9707 -2.4513  1.2649
    1MOL   H179  179   3.617   6.837   5.868 -0.4242 -0.3264  1.5084
    1MOL   H180  180   3.769   7.193   6.038 -0.3066 -1.3400  1.2256
    1MOL   H181  181   3.639   7.330   5.872  1.9590  0.2346  0.4083
    1MOL   C182  182   3.932   6.957   6.026  0.5002  0.0484  0.1550
    1MOL   C183  183   3.991   6.973   5.898  0.5683 -0.0763  0.3733
    1MOL   C184  184   4.126   6.976   5.890 -0.1180  0.4306 -0.9602
    1MOL   C185  185   4.206   6.998   6.008 -0.0646 -0.1379  0.0038
    1MOL   C186  186   4.148   6.989   6.137  0.7792  0.4682 -0.1608
    1MOL   C187  187   4.009   6.969   6.149  0.2212  0.0313  0.4879
    1MOL   S188  188   4.387   7.013   5.992 -0.0144 -0.0789  0.2564
    1MOL   O189  189   4.423   7.129   6.074 -0.0063  0.1006  0.5069
    1MOL   O190  190   4.418   7.025   5.851  0.1518  0.2146 -0.1613
    1MOL   C191  191   4.470   6.868   6.056  0.5739  0.1806  0.1858
    1MOL   C192  192   4.610   6.862   6.030  0.6409  0.2994  0.0304
    1MOL   C193  193   4.682   6.752   6.080  0.2215  0.6305  0.0468
    1MOL   C194  194   4.614   6.637   6.116  0.5144  1.0187  0.4104
    1MOL   C195  195   4.473   6.637   6.126 -0.7799  0.3135  0.1847
    1MOL   C196  196   4.402   6.753   6.099  0.6335 -0.2413 -0.2246
    1MOL   O197  197   4.683   6.516   6.138 -0.5557 -0.1154  0.4589
    1MOL   C198  198   4.663   6.414   6.058  0.8809 -0.4067  0.1883
    1MOL   C199  199   4.639   6.285   6.115  0.3663 -0.3672 -0.7969
    1MOL   C200  200   4.615   6.172   6.027 -0.7480 -0.0312  0.3059
    1MOL   C201  201   4.626   6.191   5.886  0.0884 -0.3456 -0.6612
    1MOL   C202  202   4.648   6.320   5.829 -0.4861  0.1833 -0.0373
    1MOL   C203  203   4.672   6.432   5.915  0.1099 -0.0905 -0.1463
    1MOL   C204  204   4.596   6.084   5.787 -0.0639 -0.3258  0.0679
    1MOL   C205  205   4.679   6.052   5.677 -0.1937  0.2166 -0.8874
    1MOL   C206  206   4.639   5.958   5.583  0.3685  0.7251 -0.1036
    1MOL   C207  207   4.517   5.887   5.600 -0.7778 -0.5800  0.1514
    1MOL   C208  208   4.439   5.907   5.715 -0.1972 -0.1530 -0.4962
    1MOL   C209  209   4.482   6.003   5.810  0.2769 -0.6301 -0.1223
    1MOL   O210  210   4.479   5.789   5.509  0.2352 -0.2671  0.1579
    1MOL   H211  211   3.932   6.958   5.808  0.4954  1.8979  0.0761
    1MOL   H212  212   4.177   6.986   5.795  0.3443 -0.5944 -0.8187
    1MOL   H213  213   4.215   6.989   6.221  2.7475  0.4616 -1.6914
    1MOL   H214  214   3.966   6.943   6.244 -3.2164  2.4379 -0.3248
    1MOL   H215  215   4.672   6.946   6.004  0.2643  0.7161  0.4558
    1MOL   H216  216   4.790   6.756   6.068  0.2657  0.2298  0.3165
    1MOL   H217  217   4.415   6.553   6.160 -1.2882 -0.7469 -3.1557
    1MOL   H218  218   4.295   6.748   6.111  0.6197 -0.6276 -0.5087
    1MOL   H219  219   4.633   6.283   6.223  0.6420  1.3657 -0.7386
    1MOL   H220  220   4.595   6.073   6.066  2.5868 -0.8688  0.0253
    1MOL   H221  221   4.658   6.324   5.722  0.5274  0.1438  0.0526
    1MOL   H222  222   4.703   6.528   5.875  0.2407  0.5932  1.5583
    1MOL   H223  223   4.769   6.110   5.659 -1.1963  2.5526  1.3075
    1MOL   H224  224   4.702   5.932   5.500 -1.7420 -3.8083 -0.4234
    1MOL   H225  225   4.352   5.847   5.733 -0.5091  0.3424 -0.3587
    1MOL   H226  226   4.432   6.009   5.905 -0.2084 -2.3818 -0.2423
    1MOL   C227  227   4.496   5.812   5.373  0.1059 -0.1537 -0.2505
    1MOL   C228  228   4.557   5.720   5.286  0.5701  0.2758 -0.1584
    1MOL   C229  229   4.578   5.744   5.148  0.7328 -0.0802  0.2317
    1MOL   C230  230   4.538   5.867   5.092 -0.1106  0.2596 -0.1554
    1MOL   C231  231   4.467   5.960   5.177  0.2490  0.1387 -0.0149
    1MOL   C232  232   4.451   5.933   5.317 -0.6576  0.5194 -0.1685
    1MOL   S233  233   4.581   5.906   4.910  0.3905  0.2912  0.5895
    1MOL   O234  234   4.632   5.782   4.858 -0.2083 -0.6299  0.3754
    1MOL   O235  235   4.661   6.028   4.912 -0.1609  0.3681 -0.2262
    1MOL   C236  236   4.428   5.932   4.826 -0.3849 -0.1124 -0.9090
    1MOL   C237  237   4.342   6.039   4.862  0.3605  0.4490 -0.4588
    1MOL   C238  238   4.226   6.058   4.785  0.4677 -0.4460  0.1165
    1MOL   C239  239   4.195   5.979   4.672  0.3880  0.1809 -0.4318
    1MOL   C240  240   4.285   5.872   4.642  0.0536 -0.1677  0.1470
    1MOL   C241  241   4.405   5.856   4.710  0.0897 -0.0900  0.2113
    1MOL   O242  242   4.083   6.002   4.596 -0.4864 -0.3396 -0.3509
    1MOL   C243  243   3.963   5.988   4.659  0.8828  0.5597 -0.3501
    1MOL   C244  244   3.863   6.080   4.615  0.1578  0.1722  0.0426
    1MOL   C245  245   3.746   6.087   4.681  0.4082  0.2986  0.1649
    1MOL   C246  246   3.710   5.995   4.781  0.6788  0.8107  0.0867
    1MOL   C247  247   3.807   5.894   4.813 -0.4647 -1.0017 -0.0814
    1MOL   C248  248   3.935   5.892   4.757  0.2124  0.4029 -0.9058
    1MOL   C249  249   3.581   5.989   4.844  0.9536  0.4295  0.2260
    1MOL   C250  250   3.544   6.096   4.929  0.3255  0.1111 -0.5030
    1MOL   C251  251   3.425   6.078   5.011  0.1024 -0.1923  0.2375
    1MOL   C252  252   3.347   5.963   4.999 -0.5334 -0.6072  0.3019
    1MOL   C253  253   3.373   5.869   4.904 -0.4527  0.1761 -0.4144
    1MOL   C254  254   3.497   5.872   4.834 -0.7686 -0.4980 -0.2891
    1MOL   O255  255   3.240   5.950   5.086 -0.5575  0.5559  0.1933
    1MOL   H256  256   4.602   5.630   5.326 -1.4611 -0.8848 -0.3899
    1MOL   H257  257   4.629   5.665   5.095  0.1836 -1.4611  1.7226
    1MOL   H258  258   4.438   6.054   5.132 -0.3922 -0.3001 -0.5411
    1MOL   H259  259   4.408   6.009   5.379  1.5510  1.8865 -0.2824
    1MOL   H260  260   4.365   6.090   4.955 -1.6435 -0.6735  0.6993
    1MOL   H261  261   4.155   6.136   4.811  1.3011 -0.0280  1.2039
    1MOL   H262  262   4.263   5.811   4.556  0.7534 -0.7871  0.4049
    1MOL   H263  263   4.480   5.783   4.681  0.1596  0.5287 -1.2238
    1MOL   H264  264   3.883   6.163   4.550 -2.0995  1.5249  1.0130
    1MOL   H265  265   3.673   6.162   4.655  0.3389 -0.0555 -0.6643
    1MOL   H266  266   3.783   5.818   4.886  0.1762  0.1861  1.4016
    1MOL   H267  267   4.015   5.833   4.799 -0.1231  0.5237 -0.0748
    1MOL   H268  268   3.609   6.181   4.944  0.6222 -0.1331 -0.3998
    1MOL   H269  269   3.394   6.158   5.076 -0.3596 -0.8389  0.8266
    1MOL   H270  270   3.296   5.797   4.878  0.0206 -0.3355 -0.3914
    1MOL   H271  271   3.516   5.794   4.762  0.0816 -0.0916 -0.5122
    1MOL   C272  272   3.243   5.847   5.172 -1.3112  0.3675 -0.1550
    1MOL   C273  273   3.365   5.795   5.226 -0.0343  0.5206  0.3774
    1MOL   C274  274   3.363   5.685   5.307  0.5337 -0.0862 -0.6303
    1MOL   C275  275   3.238   5.636   5.357 -0.6321 -0.0876 -0.3696
    1MOL   C276  276   3.119   5.692   5.307  0.0196 -0.3647  0.0002
    1MOL   C277  277   3.119   5.798   5.217  0.3496  0.5794  0.1364
    1MOL   S278  278   3.220   5.502   5.474  0.2783 -0.2696 -0.4053
    1MOL   O279  279   3.152   5.388   5.410  0.5151 -0.4593  0.4206
    1MOL   O280  280   3.168   5.562   5.599 -0.3103  0.2605 -0.3116
    1MOL   C281  281   3.383   5.445   5.495 -0.3817  0.4510  0.0350
    1MOL   C282  282   3.467   5.508   5.587 -0.5420  0.2550  0.1536
    1MOL   C283  283   3.607   5.485   5.592 -0.5812  0.8273  0.2684
    1MOL   C284  284   3.660   5.402   5.494 -0.2453 -0.2123  0.1011
    1MOL   C285  285   3.568   5.327   5.417  0.4769  0.2455 -0.0832
    1MOL   C286  286   3.434   5.344   5.412 -0.4116 -0.3174 -0.5231
    1MOL   O287  287   3.793   5.360   5.492  0.4415  0.4315 -0.6243
    1MOL   C288  288   3.865   5.393   5.385 -1.0529  0.4202 -0.0146
    1MOL   C289  289   3.860   5.520   5.323  1.1352  0.6179 -0.2517
    1MOL   C290  290   3.935   5.548   5.213  0.3858 -0.2258  0.7912
    1MOL   C291  291   4.027   5.452   5.169  0.1464 -0.6675 -0.3778
    1MOL   C292  292   4.033   5.326   5.229  0.4745  0.2117  0.0883
    1MOL   C293  293   3.945   5.290   5.336 -0.0211  0.5423 -0.2685
    1MOL   C294  294   4.127   5.479   5.062 -0.3758 -0.6575 -0.6202
    1MOL   C295  295   4.089   5.543   4.946  0.5068  0.4766  1.1532
    1MOL   C296  296   4.167   5.541   4.828  0.1484 -0.1472  0.4800
    1MOL   C297  297   4.296   5.492   4.836 -0.4839  0.1311 -0.2750
    1MOL   C298  298   4.341   5.439   4.960 -0.0492 -0.3262 -0.1584
    1MOL   C299  299   4.256   5.431   5.071  0.1947  0.5434  1.0368
    1MOL   O300  300   4.387   5.486   4.739  0.2913  0.1619  0.2236
    1MOL   H301  301   3.462   5.837   5.200 -0.3141  0.0796 -1.5104
    1MOL   H302  302   3.459   5.644   5.334  0.3214  0.3851  0.9052
    1MOL   H303  303   3.020   5.663   5.339  0.3801 -1.7193 -0.0671
    1MOL   H304  304   3.021   5.836   5.195  0.6411  0.0376 -2.2084
    1MOL   H305  305   3.422   5.566   5.666  1.8012  1.6839  0.4818
    1MOL   H306  306   3.661   5.532   5.672 -2.1202 -1.7044  2.8717
    1MOL   H307  307   3.608   5.245   5.359 -0.3732  0.4223 -0.9360
    1MOL   H308  308   3.370   5.281   5.352  0.2222 -1.4913  0.0300
    1MOL   H309  309   3.785   5.592   5.352 -1.0883 -3.2191  4.2673
    1MOL   H310  310   3.918   5.641   5.161  0.9358 -0.2673  0.5369
    1MOL   H311  311   4.106   5.257   5.188  0.7399  1.3608 -1.4439
    1MOL   H312  312   3.944   5.193   5.384  0.1237  0.6522 -0.0396
    1MOL   H313  313   3.988   5.580   4.933  1.1650  2.3541  1.2662
    1MOL   H314  314   4.139   5.584   4.732 -0.8046 -2.6564 -0.3963
    1MOL   H315  315   4.438   5.399   4.982  0.4630  0.1975 -1.4047
    1MOL   H316  316   4.282   5.373   5.158  1.2475 -0.9600 -0.2445
    1MOL   C317  317   4.335   5.414   4.629 -0.3516  0.5156  0.0873
    1MOL   C318  318   4.328   5.275   4.642 -0.6078 -0.2784  0.3593
    1MOL   C319  319   4.261   5.204   4.546 -0.8625 -0.7033  0.7004
    1MOL   C320  320   4.214   5.266   4.429 -0.8337  0.3975 -0.0368
    1MOL   C321  321   4.228   5.407   4.405  0.4116  1.2324 -0.2534
    1MOL   C322  322   4.291   5.480   4.512 -0.5983 -0.2174 -0.6682
    1MOL   S323  323   4.135   5.176   4.298  0.2414  0.1943  0.5243
    1MOL   O324  324   4.225   5.067   4.266  0.0697 -0.4795 -0.3678
    1MOL   O325  325   4.095   5.269   4.193  0.1112  0.2071  0.1668
    1MOL   C326  326   3.980   5.123   4.375 -1.1375  0.3041 -0.3285
    1MOL   C327  327   3.978   5.014   4.456  0.1296  0.0148 -0.7627
    1MOL   C328  328   3.860   4.985   4.536 -0.0534 -0.2345 -0.0730
    1MOL   C329  329   3.741   5.061   4.514  0.0663  0.4658  0.0241
    1MOL   C330  330   3.747   5.175   4.431 -0.7118 -0.1359  0.2552
    1MOL   C331  331   3.863   5.204   4.360  0.4291 -0.5679 -0.2578
    1MOL   O332  332   3.631   5.051   4.594 -0.1308 -0.1297 -0.2469
    1MOL   C333  333   3.612   4.942   4.682  0.9778  0.3704  0.2267
    1MOL   C334  334   3.576   4.824   4.621 -0.1795  1.3269 -0.0718
    1MOL   C335  335   3.562   4.707   4.688 -0.2768 -0.2634  0.0390
    1MOL   C336  336   3.573   4.702   4.826  0.2409  0.2431 -0.9789
    1MOL   C337  337   3.605   4.830   4.896  0.6564  0.2153  0.2005
    1MOL   C338  338   3.641   4.941   4.818 -0.2635 -0.0123 -0.8132
    1MOL   C339  339   3.557   4.577   4.899  0.1443  0.2777 -0.2760
    1MOL   C340  340   3.623   4.556   5.022 -0.1594 -0.5858  0.5739
    1MOL   C341  341   3.619   4.434   5.088 -0.8266  0.1496  0.1372
    1MOL   C342  342   3.558   4.329   5.025  0.6010  0.3273 -0.2001
    1MOL   C343  343   3.486   4.348   4.900  0.6605 -0.3550 -0.2491
    1MOL   C344  344   3.479   4.474   4.842  0.3500  0.2381 -0.0934
    1MOL   O345  345   3.566   4.199   5.080 -0.3553 -0.9883 -0.8976
    1MOL   H346  346   4.357   5.227   4.735  0.9608  2.6496  1.4410
    1MOL   H347  347   4.251   5.097   4.550  3.2259 -1.2740 -1.2574
    1MOL   H348  348   4.199   5.456   4.313 -0.8531 -1.2239 -1.2186
    1MOL   H349  349   4.302   5.587   4.511 -0.4243 -0.2090  0.6239
    1MOL   H350  350   4.067   4.955   4.467 -1.5769 -2.4692  0.2190
    1MOL   H351  351   3.864   4.908   4.612  0.8836 -1.4182 -1.2828
    1MOL   H352  352   3.661   5.237   4.416  0.1118  0.8046 -0.7016
    1MOL   H353  353   3.858   5.290   4.295 -1.2926 -0.5000 -0.0670
    1MOL   H354  354   3.573   4.814   4.513  1.0498  1.1080 -0.0999
    1MOL   H355  355   3.543   4.619   4.627  1.9026 -2.6082  2.6389
    1MOL   H356  356   3.608   4.827   5.003 -1.7710  0.8738  0.3283
    1MOL   H357  357   3.670   5.033   4.866  0.7565  0.2404 -1.8799
    1MOL   H358  358   3.678   4.631   5.079 -0.2983 -0.2906  0.3211
    1MOL   H359  359   3.669   4.417   5.183 -1.0442 -1.5500 -0.0294
    1MOL   H360  360   3.433   4.268   4.851  0.8615 -0.0548 -0.9641
    1MOL   H361  361   3.428   4.475   4.747  1.7926 -2.4531 -0.9848
    1MOL   C362  362   3.448   4.142   5.124 -0.0040 -0.1249 -0.2321
    1MOL   C363  363   3.397   4.031   5.053 -0.6207  0.6598  0.1570
    1MOL   C364  364   3.280   3.970   5.102  0.9076  0.0697  0.3815
    1MOL   C365  365   3.219   4.014   5.221 -0.4924 -0.4131  0.1632
    1MOL   C366  366   3.266   4.125   5.292 -0.4949  0.7379  0.1799
    1MOL   C367  367   3.379   4.192   5.238  0.0168  0.2659 -0.5749
    1MOL   S368  368   3.079   3.934   5.292  0.3028 -0.1441  0.0569
    1MOL   O369  369   3.074   3.798   5.237  0.1291  0.0607 -0.3097
    1MOL   O370  370   2.972   4.034   5.268  0.3761 -0.4577  0.1503
    1MOL   C371  371   3.113   3.919   5.469  0.2729  0.3873  0.5564
    1MOL   C372  372   3.174   3.802   5.514  0.3959 -0.8009 -0.2376
    1MOL   C373  373   3.186   3.788   5.652  0.0331 -0.1940  0.8877
    1MOL   C374  374   3.139   3.884   5.745 -0.3229 -0.0961  0.5253
    1MOL   C375  375   3.072   4.002   5.697 -0.2221  0.2339 -0.8817
    1MOL   C376  376   3.064   4.019   5.554 -0.0606 -0.2684 -0.6215
    1MOL   O377  377   3.156   3.864   5.881 -0.1921 -0.5113  0.2861
    1MOL   C378  378   3.241   3.950   5.946  0.3993  0.1693  0.3801
    1MOL   C379  379   3.376   3.974   5.908  0.5221 -0.5841  0.7359
    1MOL   C380  380   3.456   4.055   5.992 -0.5328 -0.3379  0.5896
    1MOL   C381  381   3.406   4.118   6.111 -0.6155 -0.2526  1.0493
    1MOL   C382  382   3.278   4.075   6.150 -0.6485 -0.2143  0.1744
    1MOL   C383  383   3.193   4.004   6.067  0.0623  0.4864 -0.8102
    1MOL   C384  384   3.499   4.202   6.198 -0.2536  0.7715  1.0621
    1MOL   C385  385   3.478   4.198   6.338 -0.0808 -0.3311  0.2568
    1MOL   C386  386   3.569   4.266   6.418  0.2370 -0.3825 -0.6354
    1MOL   C387  387   3.676   4.344   6.363  0.5362  0.6383 -0.1769
    1MOL   C388  388   3.683   4.368   6.223  0.4111 -0.0977 -0.5080
    1MOL   C389  389   3.598   4.286   6.141 -0.2466  0.2016 -0.3950
    1MOL   O390  390   3.760   4.415   6.446  0.1127  0.3655  0.0259
    1MOL   H391  391   3.440   3.986   4.965 -0.3598  0.4406  0.3939
    1MOL   H392  392   3.242   3.877   5.063  0.5158  0.7623 -0.8848
    1MOL   H393  393   3.219   4.162   5.382  0.7444 -3.4760  2.7221
    1MOL   H394  394   3.408   4.287   5.281  0.0439  0.6520 -1.4356
    1MOL   H395  395   3.218   3.734   5.443 -1.2567  0.0566 -2.1298
    1MOL   H396  396   3.237   3.701   5.692 -0.0417  0.4096  2.3282
    1MOL   H397  397   3.025   4.071   5.767 -1.3874  1.3918 -2.7447
    1MOL   H398  398   3.014   4.105   5.512  0.9039  1.0249  0.8305
    1MOL   H399  399   3.420   3.923   5.824  1.7868 -0.5418  1.3595
    1MOL   H400  400   3.562   4.063   5.971 -1.2123 -0.1975 -3.1041
    1MOL   H401  401   3.228   4.104   6.241 -0.1339 -0.8627  0.6715
    1MOL   H402  402   3.093   3.987   6.104 -0.8534  1.0360 -2.9448
    1MOL   H403  403   3.399   4.143   6.388 -0.1010 -0.4724  0.0699
    1MOL   H404  404   3.541   4.263   6.522  1.1577  2.2769 -0.2487
    1MOL   H405  405   3.769   4.425   6.189  1.7883 -1.0326  1.3668
    1MOL   H406  406   3.598   4.297   6.034 -3.4902 -1.7043 -0.6676
    1MOL   C407  407   3.717   4.526   6.513  0.3727 -0.5310  0.0872
    1MOL   C408  408   3.804   4.582   6.609  0.7666  0.3385  0.0755
    1MOL   C409  409   3.764   4.698   6.681 -0.3753 -0.6848 -0.2268
    1MOL   C410  410   3.634   4.753   6.655  0.3159  0.0378 -0.1152
    1MOL   C411  411   3.548   4.691   6.558 -0.1030 -0.1124  0.4848
    1MOL   C412  412   3.593   4.586   6.484  0.2439  0.2771  0.3592
    1MOL   S413  413   3.569   4.886   6.761 -0.2983  0.0137  0.1941
    1MOL   O414  414   3.421   4.878   6.777 -0.0738  0.2936  0.3802
    1MOL   O415  415   3.628   5.014   6.716 -1.0867 -0.7302  0.1892
    1MOL   C416  416   3.638   4.858   6.917  0.3618  0.1175 -0.0151
    1MOL   C417  417   3.772   4.893   6.951  0.7341  0.0053 -0.4492
    1MOL   C418  418   3.825   4.872   7.078 -0.3952  0.5947  0.4665
    1MOL   C419  419   3.751   4.801   7.176  0.9203 -0.0899 -0.6255
    1MOL   C420  420   3.620   4.759   7.144 -0.3615  0.2391 -0.0508
    1MOL   C421  421   3.563   4.783   7.015 -1.0020  0.8223  0.2795
    1MOL   O422  422   3.795   4.791   7.306  0.5674 -0.4259 -0.9666
    1MOL   C423  423   3.709   4.814   7.413 -0.6950 -0.1372 -0.2994
    1MOL   C424  424   3.654   4.941   7.424 -0.2272 -0.8298 -0.2761
    1MOL   C425  425   3.569   4.972   7.534 -0.5843  0.0644  0.8431
    1MOL   C426  426   3.535   4.874   7.634  0.5937 -0.3356 -0.3422
    1MOL   C427  427   3.585   4.742   7.609  0.1109 -0.1249  0.1206
    1MOL   C428  428   3.677   4.713   7.506 -0.2043  0.3193  0.1600
    1MOL   C429  429   3.444   4.901   7.748  0.7023 -0.1801 -0.2027
    1MOL   C430  430   3.449   4.826   7.870 -0.5317  0.3904 -0.2682
    1MOL   C431  431   3.369   4.851   7.986 -0.0082  0.4728  0.0358
    1MOL   C432  432   3.271   4.952   7.980 -1.2509 -1.0077  0.1161
    1MOL   C433  433   3.259   5.020   7.861  1.2591 -0.0726  0.2668
    1MOL   C434  434   3.339   4.997   7.745 -0.7146 -0.3485  0.0643
    1MOL   O435  435   3.203   4.986   8.095  0.1493  0.7838  0.1666
    1MOL   H436  436   3.893   4.529   6.638  2.2144  2.0064 -1.2443
    1MOL   H437  437   3.835   4.749   6.745 -2.5844  2.6055 -0.2343
    1MOL   H438  438   3.445   4.722   6.546  0.3367  0.4980 -1.8677
    1MOL   H439  439   3.520   4.545   6.416  0.4415 -0.8689  0.8317
    1MOL   H440  440   3.827   4.955   6.882  0.0666  1.4918  0.3106
    1MOL   H441  441   3.917   4.921   7.107 -0.3734  0.1188  1.2286
    1MOL   H442  442   3.552   4.729   7.222  1.3903 -0.7045  1.1539
    1MOL   H443  443   3.463   4.751   6.990 -1.2178  1.5451  0.2030
    1MOL   H444  444   3.675   5.020   7.353 -0.5278 -1.0608 -0.6253
    1MOL   H445  445   3.530   5.072   7.547  0.4958  0.7084 -0.6949
    1MOL   H446  446   3.550   4.662   7.673 -0.2414 -0.6563 -0.7274
    1MOL   H447  447   3.725   4.616   7.514  0.6340  0.8007  1.1645
    1MOL   H448  448   3.536   4.763   7.879  0.3369  1.1333 -2.9305
    1MOL   H449  449   3.393   4.791   8.072 -0.8189  0.2364  0.0973
    1MOL   H450  450   3.186   5.100   7.861 -1.7616 -2.7207  1.4471
    1MOL   H451  451   3.325   5.058   7.657  1.1639  1.0277  0.6913
    1MOL   C452  452   3.252   5.092   8.177  0.7346 -0.3911 -0.4703
    1MOL   C453  453   3.369   5.168   8.140 -0.3761 -0.4707  0.0045
    1MOL   C454  454   3.411   5.277   8.214 -0.4415  0.6791 -0.0416
    1MOL   C455  455   3.342   5.304   8.337  0.1104 -0.5910  0.1725
    1MOL   C456  456   3.230   5.235   0.008 -0.7707 -0.1920 -0.2703
    1MOL   C457  457   3.179   5.129   8.290  0.7746 -0.4961  0.0407
    1MOL   S458  458   3.396   5.440   0.082  0.1640 -0.1008  0.1343
    1MOL   O459  459   3.488   5.525   0.004 -0.5155  0.2332 -0.0059
    1MOL   O460  460   3.431   5.380   0.216 -0.3214  0.4637 -0.7805
    1MOL   C461  461   3.248   5.538   0.121 -0.2743  0.7191 -0.0776
    1MOL   C462  462   3.159   5.495   0.221 -0.0053 -0.6508  0.1124
    1MOL   C463  463   3.052   5.583   0.248  0.1780  0.6384  0.6248
    1MOL   C464  464   3.030   5.702   0.173 -0.3429 -0.4598  0.1343
    1MOL   C465  465   3.122   5.734   0.073 -0.2486 -0.1330 -0.0241
    1MOL   C466  466   3.230   5.656   0.051  0.6559  0.5120 -0.5071
    1MOL   O467  467   2.925   5.784   0.217 -0.2495  0.0119  0.6879
    1MOL   C468  468   2.941   5.868   0.323  0.5189  0.0581 -0.3063
    1MOL   C469  469   3.008   5.835   0.444 -0.3373  0.5346 -0.1203
    1MOL   C470  470   3.010   5.923   0.548  0.3689 -0.3378  0.1542
    1MOL   C471  471   2.958   6.053   0.535 -0.7293 -0.0314 -0.3088
    1MOL   C472  472   2.907   6.094   0.410  0.4446  0.1753  0.8424
    1MOL   C473  473   2.894   6.001   0.310  0.8956  0.3844  0.6045
    1MOL   C474  474   2.967   6.152   0.645 -0.3950  0.2053 -0.2743
    1MOL   C475  475   2.969   6.114   0.779  0.3233  0.0829  0.4346
    1MOL   C476  476   2.963   6.207   0.889  0.5373  0.3160 -0.4438
    1MOL   C477  477   2.932   6.339   0.861 -0.3445  0.5278  0.4381
    1MOL   C478  478   2.952   6.391   0.732  0.2537  0.0587 -0.2902
    1MOL   C479  479   2.966   6.295   0.626  0.4843  0.0054  0.5064
    1MOL   O480  480   2.915   6.421   0.969 -0.1193  0.1014 -0.0031
    1MOL   H481  481   3.430   5.140   8.056  0.3781  2.4203 -0.4634
    1MOL   H482  482   3.496   5.337   8.185  0.5879  0.0275  1.5414
    1MOL   H483  483   3.183   5.269   0.099 -1.7194 -0.6113 -0.5930
    1MOL   H484  484   3.093   5.074   8.324  0.6459 -1.2239 -1.4470
    1MOL   H485  485   3.167   5.403   0.276 -0.5771 -0.6905  0.1233
    1MOL   H486  486   2.984   5.549   0.325 -0.0176  3.4452  1.7474
    1MOL   H487  487   3.104   5.825   0.019 -0.8032 -0.3608 -0.2302
    1MOL   H488  488   3.296   5.689   8.338  1.5929 -0.4460 -0.1430
    1MOL   H489  489   3.037   5.734   0.469  0.1067  0.6144 -0.2958
    1MOL   H490  490   3.037   5.878   0.643 -1.5911 -1.1882  0.3257
    1MOL   H491  491   2.859   6.190   0.402  0.2670  0.3140  3.0973
    1MOL   H492  492   2.851   6.035   0.216  0.9921  0.8869  0.7438
    1MOL   H493  493   2.978   6.010   0.808  1.9002  0.6179  1.9963
    1MOL   H494  494   2.974   6.164   0.988  0.4355  0.8492 -0.2002
    1MOL   H495  495   2.946   6.495   0.703  2.4660  0.8769  2.0416
    1MOL   H496  496   2.966   6.332   0.524  2.2886  0.7179  0.7493
    1MOL   C497  497   3.017   6.496   1.020 -0.4911 -1.1425 -0.5181
    1MOL   C498  498   3.135   6.439   1.073  0.4017 -0.2148 -0.3451
    1MOL   C499  499   3.230   6.519   1.136  0.1274  0.6452 -0.3222
    1MOL   C500  500   3.216   6.662   1.147  0.1015  0.1932  0.1387
    1MOL   C501  501   3.101   6.720   1.088 -0.5136  0.9298 -0.6948
    1MOL   C502  502   3.001   6.634   1.028 -0.5814 -0.0864  0.4091
    1MOL   S503  503   3.336   6.756   1.231 -0.0785 -0.3362 -0.0148
    1MOL   O504  504   3.408   6.657   1.314  0.3979  0.0240 -0.5434
    1MOL   O505  505   3.268   6.875   1.291 -0.2247  0.1167  0.1753
    1MOL   C506  506   3.450   6.811   1.097  0.1792 -0.5182 -0.1373
    1MOL   C507  507   3.397   6.891   0.993  0.1228  0.0259  0.6624
    1MOL   C508  508   3.478   6.941   0.892  0.0317  0.5247 -0.3537
    1MOL   C509  509   3.619   6.918   0.893 -0.6436 -0.0935  0.0992
    1MOL   C510  510   3.674   6.835   0.995 -0.9184  0.0652  0.0868
    1MOL   C511  511   3.592   6.794   1.102  0.4339 -0.6509 -0.6135
    1MOL   O512  512   3.705   6.960   0.793  0.0863  0.0768  0.1945
    1MOL   C513  513   3.656   6.993   0.668  0.5015  0.1002  0.1185
    1MOL   C514  514   3.588   7.121   0.644 -0.7334  0.1602  0.1510
    1MOL   C515  515   3.535   7.155   0.519  0.1378  0.1053 -0.0577
    1MOL   C516  516   3.553   7.061   0.415  0.0315 -0.1423  0.1448
    1MOL   C517  517   3.618   6.936   0.437  0.2171 -0.8508  0.2753
    1MOL   C518  518   3.667   6.903   0.563  0.5579  0.1753  0.4401
    1MOL   C519  519   3.489   7.082   0.284  0.4669  0.5091  0.2319
    1MOL   C520  520   3.387   7.171   0.265  0.1485 -0.4402  0.4409
    1MOL   C521  521   3.329   7.193   0.139 -0.1223 -0.5190  0.1080
    1MOL   C522  522   3.370   7.114   0.031  0.3590  0.5840 -0.8280
    1MOL   C523  523   3.477   7.022   0.048  0.2667  0.5402  0.2222
    1MOL   C524  524   3.537   7.010   0.174  0.2160 -0.2978  0.2123
    1MOL   O525  525   3.321   7.124   8.275 -0.2027 -0.2247  0.0062
    1MOL   H526  526   3.158   6.333   1.075  1.3067 -0.0120  0.0250
    1MOL   H527  527   3.320   6.478   1.178 -1.2129 -0.5799  1.4307
    1MOL   H528  528   3.087   6.827   1.088  1.6573  1.2298 -0.2337
    1MOL   H529  529   2.910   6.680   0.991  0.8896  2.9477  0.3698
    1MOL   H530  530   3.291   6.913   0.989 -0.4588 -2.6756 -0.2025
    1MOL   H531  531   3.435   7.003   0.815  2.7782  2.8188 -0.1465
    1MOL   H532  532   3.780   6.821   0.989 -0.7444  0.3947  2.0523
    1MOL   H533  533   3.625   6.731   1.184 -0.1664  2.2582  1.9419
    1MOL   H534  534   3.586   7.196   0.721  2.5459  0.4326  0.0267
    1MOL   H535  535   3.464   7.235   0.514  2.2224  2.2836  3.0730
    1MOL   H536  536   3.629   6.861   0.360 -0.6260 -0.7873  0.0941
    1MOL   H537  537   3.713   6.805   0.570  0.1897 -0.1875 -1.7779
    1MOL   H538  538   3.347   7.227   0.348 -1.2407  2.7704 -2.2861
    1MOL   H539  539   3.240   7.251   0.115 -0.2592  0.3644  2.5919
    1MOL   H540  540   3.520   6.962   8.336  0.1747 -2.5878  2.4973
    1MOL   H541  541   3.611   6.932   0.183  1.5175  0.4156 -3.5466
    1MOL   C542  542   3.196   7.072   8.255  0.0269 -0.1598 -0.1444
    1MOL   C543  543   3.152   6.951   8.318  0.0810 -0.2134  0.4009
    1MOL   C544  544   3.028   6.896   8.273  0.6291  0.0412  0.4463
    1MOL   C545  545   2.934   6.964   8.197  0.1760 -0.4223  0.4664
    1MOL   C546  546   2.978   7.088   8.147 -0.8670 -0.2059  0.1278
    1MOL   C547  547   3.107   7.136   8.167 -0.1070 -0.5955 -0.0028
    1MOL   S548  548   2.765   6.911   8.172 -0.0915 -0.0183  0.1404
    1MOL   O549  549   2.757   6.772   8.220 -0.5816 -0.1953  0.5670
    1MOL   O550  550   2.723   6.943   8.035  1.0237  0.3468 -0.0166
    1MOL   C551  551   2.667   7.012   8.277  0.3000  0.2017  0.4208
    1MOL   C552  552   2.539   7.063   8.235 -0.7079 -0.7594 -0.3584
    1MOL   C553  553   2.460   7.121   8.330 -0.3009 -0.0752  0.2900
    1MOL   C554  554   2.506   7.148   0.099  0.0518  0.0006  0.1713
    1MOL   C555  555   2.633   7.102   0.134  0.0307  0.2901  0.7928
    1MOL   C556  556   2.713   7.036   0.040 -0.3214 -0.3920 -0.5783
    1MOL   O557  557   2.428   7.203   0.198 -0.4092  0.0368  0.3900
    1MOL   C558  558   2.304   7.234   0.171  0.3071  0.0942 -0.2208
    1MOL   C559  559   2.268   7.350   0.101  0.4044 -0.1034 -0.4276
    1MOL   C560  560   2.136   7.388   0.078  0.1659 -0.1948  0.1438
    1MOL   C561  561   2.035   7.299   0.115  0.4458  0.4952  0.0945
    1MOL   C562  562   2.069   7.183   0.191  0.2868 -0.2661  0.1035
    1MOL   C563  563   2.205   7.149   0.209  0.1079  0.1229  0.0410
    1MOL   C564  564   1.887   7.325   0.083 -0.2381 -0.4010 -0.1203
    1MOL   C565  565   1.857   7.418   8.347  0.6181 -0.1579 -0.1063
    1MOL   C566  566   1.723   7.432   8.294  0.0216  0.7385 -0.9048
    1MOL   C567  567   1.620   7.364   8.363 -0.5413  0.1641 -0.5079
    1MOL   C568  568   1.650   7.272   0.102 -0.0754 -0.1544  0.1859
    1MOL   C569  569   1.779   7.250   0.142 -0.0057 -0.0188  0.2304
    1MOL   O570  570   1.491   7.395   8.319 -0.4650  0.3553  0.2961
    1MOL   H571  571   3.227   6.895   0.007  2.1149  2.3269  0.2914
    1MOL   H572  572   3.005   6.797   8.309 -1.7438  0.0487 -0.9232
    1MOL   H573  573   2.915   7.149   8.085  0.1397 -0.8206 -1.5264
    1MOL   H574  574   3.129   7.228   8.115  0.4410 -0.9415 -0.3876
    1MOL   H575  575   2.499   7.040   8.138 -3.5554 -1.0813  0.8257
    1MOL   H576  576   2.361   7.154   8.305  0.4493  0.8019 -1.6155
    1MOL   H577  577   2.660   7.124   0.236  0.4381  2.4646  0.2378
    1MOL   H578  578   2.816   7.019   0.069 -0.0358 -0.7469 -1.7744
    1MOL   H579  579   2.351   7.413   0.074  0.5395 -0.3131 -0.5028
    1MOL   H580  580   2.120   7.480   0.024  1.1621 -0.4853 -0.6696
    1MOL   H581  581   1.990   7.114   0.217 -1.0743  1.4749  0.7653
    1MOL   H582  582   2.238   7.056   0.254  3.9621  1.8078  0.8614
    1MOL   H583  583   1.938   7.472   8.302 -1.3535  0.8193 -2.6404
    1MOL   H584  584   1.690   7.502   8.218 -2.0808  1.3518  0.5318
    1MOL   H585  585   1.570   7.213   0.145 -1.2208  0.8449 -0.5686
    1MOL   H586  586   1.782   7.174   0.219 -2.3554 -0.4368 -0.0332
    1MOL   C587  587   1.387   7.311   8.356  0.0953 -0.7659  0.1447
    1MOL   C588  588   1.359   7.211   8.268  0.2584  0.2196  0.0208
    1MOL   C589  589   1.270   7.110   8.310 -0.0274 -0.0813 -0.1946
    1MOL   C590  590   1.219   7.106   0.079 -0.3663  0.5154 -0.4192
    1MOL   C591  591   1.260   7.204   0.168  0.3624  0.3494  0.2124
    1MOL   C592  592   1.338   7.311   0.120 -0.3324 -0.2808  0.2085
    1MOL   S593  593   1.099   6.978   0.136  0.7119  0.1071 -0.0252
    1MOL   O594  594   1.086   6.874   0.037 -0.6326  0.0501 -0.0400
    1MOL   O595  595   0.977   7.047   0.175 -0.2486  0.0923 -0.1910
    1MOL   C596  596   1.166   6.909   0.286  0.2627 -0.5030 -0.0879
    1MOL   C597  597   1.088   6.902   0.405  0.5632  0.5650 -0.5332
    1MOL   C598  598   1.147   6.848   0.521 -0.0541 -0.2281 -0.1588
    1MOL   C599  599   1.278   6.798   0.522 -0.0367 -0.0697  0.1693
    1MOL   C600  600   1.346   6.791   0.399  0.1031 -0.8060  0.2724
    1MOL   C601  601   1.291   6.845   0.276 -0.0385 -0.1622 -0.3032
    1MOL   O602  602   1.342   6.769   0.638  0.4868 -0.6442 -0.1541
    1MOL   C603  603   1.363   6.636   0.669  0.1525 -0.7946 -0.5653
    1MOL   C604  604   1.478   6.610   0.746  0.3168 -0.2454 -0.2090
    1MOL   C605  605   1.508   6.473   0.774 -0.4683 -0.1626  0.1383
    1MOL   C606  606   1.427   6.362   0.736  0.1780 -0.0151 -0.4228
    1MOL   C607  607   1.321   6.395   0.649 -0.3488 -0.6426 -0.5055
    1MOL   C608  608   1.281   6.529   0.626 -0.7859 -0.5669  0.0092
    1MOL   C609  609   1.449   6.224   0.781 -0.1327 -0.1995  0.3173
    1MOL   C610  610   1.513   6.188   0.903 -0.9381  0.4544  0.2585
    1MOL   C611  611   1.546   6.054   0.937 -0.0564 -0.0421  1.2311
    1MOL   C612  612   1.502   5.950   0.858  0.5761 -1.0120  0.3006
    1MOL   C613  613   1.424   5.983   0.742  0.3997  0.0169 -0.5452
    1MOL   C614  614   1.394   6.119   0.703  0.2599  0.2361  0.1454
    1MOL   O615  615   1.532   5.821   0.893  0.1569 -0.6066 -0.2084
    1MOL   H616  616   1.405   7.215   8.171  1.3381 -0.6110  0.4950
    1MOL   H617  617   1.239   7.027   8.248 -3.0533  0.4333  0.5822
    1MOL   H618  618   1.219   7.202   0.268 -1.1451 -0.1208 -0.4043
    1MOL   H619  619   1.357   7.394   0.187  0.4588 -0.3103  0.0185
    1MOL   H620  620   0.998   6.961   0.408  0.1595 -0.0220 -0.9994
    1MOL   H621  621   1.093   6.852   0.614  0.6414 -1.7000  0.3171
    1MOL   H622  622   1.443   6.743   0.397  0.2207 -0.5585 -2.4249
    1MOL   H623  623   1.355   6.849   0.189  0.9110  0.8783  0.4355
    1MOL   H624  624   1.546   6.683   0.786  0.4888 -0.5175 -0.0033
    1MOL   H625  625   1.602   6.451   0.823 -0.3009 -0.0383 -0.1260
    1MOL   H626  626   1.269   6.316   0.596 -0.4668  1.0927 -3.0598
    1MOL   H627  627   1.209   6.540   0.545 -0.7034  0.3141  0.0470
    1MOL   H628  628   1.550   6.267   0.967 -0.4253 -0.4965  1.1514
    1MOL   H629  629   1.597   6.043   1.032 -0.2118 -1.8465  1.1329
    1MOL   H630  630   1.377   5.914   0.673  2.1504 -0.2958 -1.4385
    1MOL   H631  631   1.335   6.126   0.613 -0.1198  1.7483  0.4973
    1MOL   C632  632   1.500   5.718   0.808 -0.3976 -0.6486 -0.3590
    1MOL   C633  633   1.578   5.682   0.698 -0.4304  0.3628  0.6353
    1MOL   C634  634   1.548   5.565   0.625 -0.1978 -0.5601 -0.5924
    1MOL   C635  635   1.438   5.482   0.670 -0.0335 -0.0070 -0.0457
    1MOL   C636  636   1.357   5.522   0.777  0.2615  0.3815 -0.1192
    1MOL   C637  637   1.381   5.646   0.840  0.2736  0.2672  0.5829
    1MOL   S638  638   1.399   5.331   0.584 -0.2208 -0.0296  0.3904
    1MOL   O639  639   1.459   5.345   0.453 -0.6583 -0.0128 -0.1228
    1MOL   O640  640   1.257   5.298   0.597  0.7654  0.1224  0.1283
    1MOL   C641  641   1.502   5.212   0.678 -0.0040  0.0795 -0.5259
    1MOL   C642  642   1.634   5.189   0.643 -0.1270 -0.3378 -0.1539
    1MOL   C643  643   1.710   5.088   0.701  0.8332 -0.6458 -0.5771
    1MOL   C644  644   1.650   5.016   0.805  0.4051 -0.4339 -0.2655
    1MOL   C645  645   1.513   5.042   0.850 -0.6484 -0.0135  0.2022
    1MOL   C646  646   1.440   5.138   0.776 -0.7533  0.2593 -0.1425
    1MOL   O647  647   1.720   4.918   0.868  0.4418 -0.1992  0.3579
    1MOL   C648  648   1.765   4.812   0.793  0.3414 -0.1217 -0.2331
    1MOL   C649  649   1.896   4.759   0.802  0.4770 -0.2124 -0.5766
    1MOL   C650  650   1.931   4.653   0.720  0.0926 -0.4165  0.0047
    1MOL   C651  651   1.840   4.592   0.630 -0.3553 -0.4701  0.1192
    1MOL   C652  652   1.704   4.638   0.628 -0.5170  0.0104  0.1381
    1MOL   C653  653   1.673   4.751   0.706 -0.2832 -0.2821  0.2656
    1MOL   C654  654   1.877   4.476   0.544 -0.1631  0.0689 -0.3911
    1MOL   C655  655   1.937   4.352   0.576 -0.0003  0.1454  0.3933
    1MOL   C656  656   1.977   4.256   0.474 -0.3491 -0.4055 -0.0445
    1MOL   C657  657   1.946   4.279   0.340 -0.1846 -0.6014 -0.0177
    1MOL   C658  658   1.884   4.403   0.305 -0.0106  0.1984 -0.6258
    1MOL   C659  659   1.854   4.501   0.405 -0.6727  0.0303  0.3253
    1MOL   O660  660   1.982   4.190   0.242 -0.5117 -0.1803 -0.4989
    1MOL   H661  661   1.655   5.750   0.664  1.5654 -1.0681  2.2135
    1MOL   H662  662   1.621   5.539   0.549  0.8971  2.7447 -0.7268
    1MOL   H663  663   1.282   5.450   0.806 -0.1083  1.2750  1.2139
    1MOL   H664  664   1.321   5.678   0.924  0.7592 -0.6406  1.2893
    1MOL   H665  665   1.679   5.243   0.561  3.8361 -1.2944  1.3005
    1MOL   H666  666   1.808   5.062   0.666  0.8151  0.8955 -1.8216
    1MOL   H667  667   1.468   4.976   0.922  1.7201 -3.0278 -0.9860
    1MOL   H668  668   1.337   5.158   0.803 -1.0919 -0.0513 -1.2019
    1MOL   H669  669   1.970   4.805   0.865  2.2999 -2.1064 -1.2657
    1MOL   H670  670   2.033   4.617   0.710 -0.2000 -0.4965 -3.2521
    1MOL   H671  671   1.637   4.602   0.552  0.6207  1.3364 -1.5398
    1MOL   H672  672   1.572   4.787   0.696  0.4557  1.4038 -1.4163
    1MOL   H673  673   1.968   4.344   0.679  1.1366  1.4804  0.1763
    1MOL   H674  674   2.025   4.165   0.508 -1.9264 -0.4367  2.2015
    1MOL   H675  675   1.863   4.424   0.202  2.0905 -2.0579 -1.5655
    1MOL   H676  676   1.823   4.602   0.383  0.6338  0.6831  1.3754
    1MOL   C677  677   1.953   4.059   0.265  0.2796  0.5872 -0.1440
    1MOL   C678  678   1.818   4.014   0.260 -0.2643  0.0650 -0.3575
    1MOL   C679  679   1.788   3.874   0.279 -0.6935 -0.6640 -0.0887
    1MOL   C680  680   1.894   3.786   0.291  0.4668  0.2922 -0.5423
    1MOL   C681  681   2.028   3.832   0.289  1.5547 -0.2489  0.0573
    1MOL   C682  682   2.058   3.966   0.278 -0.1684 -0.2649 -0.2473
    1MOL   S683  683   1.864   3.612   0.322  0.0476 -0.2113  0.0080
    1MOL   O684  684   1.714   3.598   0.324 -0.1649  0.2868  0.0155
    1MOL   O685  685   1.938   3.574   0.442  0.0382 -0.8189 -0.1459
    1MOL   C686  686   1.932   3.520   0.188 -0.0121 -0.0529  0.6733
    1MOL   C687  687   1.980   3.583   0.073  0.0891 -0.0418  0.2770
    1MOL   C688  688   2.047   3.507   8.339  0.0877 -0.0592  0.2761
    1MOL   C689  689   2.053   3.366   8.352  0.3635 -0.6814 -0.4936
    1MOL   C690  690   1.979   3.299   0.084 -0.6652  0.1086 -0.3729
    1MOL   C691  691   1.917   3.380   0.183  0.7673 -0.2300  0.5805
    1MOL   O692  692   2.117   3.293   8.258 -0.1980  1.0237 -0.1658
    1MOL   C693  693   2.246   3.306   8.249 -0.8802  0.0709  0.1865
    1MOL   C694  694   2.306   3.310   8.123  0.4778 -0.3813  0.2222
    1MOL   C695  695   2.437   3.353   8.113  0.3019 -0.5132 -0.1395
    1MOL   C696  696   2.520   3.375   8.225  0.0918 -0.0549 -0.0576
    1MOL   C697  697   2.469   3.357   8.356 -0.4461 -0.1702  0.1946
    1MOL   C698  698   2.336   3.326   8.364  0.4908 -0.5714  0.3030
    1MOL   C699  699   2.660   3.419   8.206  0.2199 -0.3098  0.0108
    1MOL   C700  700   2.719   3.507   8.297 -0.7007 -0.1287 -0.2324
    1MOL   C701  701   2.849   3.563   8.293  0.2880 -1.1910  0.6120
    1MOL   C702  702   2.926   3.535   8.179 -0.4933 -0.5128 -0.9775
    1MOL   C703  703   2.872   3.441   8.089 -0.4270 -0.7899 -0.1600
    1MOL   C704  704   2.748   3.377   8.107  0.3492 -0.2754  0.3133
    1MOL   O705  705   3.046   3.592   8.151 -0.4138  0.7053 -0.1521
    1MOL   H706  706   1.743   4.089   0.238  0.2672  0.2357 -1.6525
    1MOL   H707  707   1.685   3.840   0.277 -0.3621 -1.6291 -0.9007
    1MOL   H708  708   2.108   3.760   0.297  1.3298 -0.2106  3.2830
    1MOL   H709  709   2.158   4.007   0.281  0.1491 -1.1340  1.9580
    1MOL   H710  710   1.977   3.690   0.076 -0.8968 -0.0932  1.5699
    1MOL   H711  711   2.100   3.558   8.260 -0.4509  0.5721  0.3105
    1MOL   H712  712   1.979   3.191   0.096 -1.5885  0.1431  0.0136
    1MOL   H713  713   1.858   3.328   0.257 -2.2040 -0.3202 -1.7813
    1MOL   H714  714   2.246   3.297   8.034 -0.6212  0.0744  0.8820
    1MOL   H715  715   2.475   3.364   8.013 -1.6875  0.1602 -0.8361
    1MOL   H716  716   2.533   3.366   0.077  0.7654 -1.4969 -0.5413
    1MOL   H717  717   2.294   3.322   0.098  2.2130  1.8081  1.1702
    1MOL   H718  718   2.644   3.541   0.001 -0.8492 -2.8528  0.9804
    1MOL   H719  719   2.869   3.633   0.007  1.7299  0.4229 -1.1208
    1MOL   H720  720   2.928   3.414   8.001 -0.5343  2.8549 -1.4285
    1MOL   H721  721   2.726   3.305   8.030  0.0536  0.9281 -0.7518
    1MOL   C722  722   3.036   3.706   8.081  0.4487  0.1976  0.3348
    1MOL   C723  723   3.041   3.826   8.153 -0.6417  0.2452 -0.0197
    1MOL   C724  724   3.037   3.951   8.079 -0.9718  0.3508 -0.1998
    1MOL   C725  725   3.016   3.949   7.939  0.4353  0.0346  0.3739
    1MOL   C726  726   3.011   3.830   7.867 -0.5141  0.1334 -0.4918
    1MOL   C727  727   3.030   3.706   7.939  0.0606 -0.4663  0.0180
    1MOL   S728  728   3.010   4.111   7.863  0.0209 -0.1369 -0.3469
    1MOL   O729  729   3.036   4.094   7.714 -0.2591 -0.0580 -0.2107
    1MOL   O730  730   3.101   4.200   7.940  0.4070 -0.1910 -0.4674
    1MOL   C731  731   2.855   4.203   7.889  0.0892  0.3620 -0.3770
    1MOL   C732  732   2.852   4.333   7.838 -0.6721  0.5189 -0.3993
    1MOL   C733  733   2.742   4.419   7.870 -0.3179  0.5574 -0.2745
    1MOL   C734  734   2.631   4.377   7.938 -0.1821  0.6772  0.3993
    1MOL   C735  735   2.631   4.242   7.985  0.8547  0.4719  0.6840
    1MOL   C736  736   2.742   4.159   7.965 -0.5546 -0.0768  0.7343
    1MOL   O737  737   2.525   4.452   7.959  0.3255 -0.6633  0.6626
    1MOL   C738  738   2.544   4.563   8.037  0.2783 -0.7025  0.4745
    1MOL   C739  739   2.547   4.553   8.180  0.1196 -0.1781  1.0210
    1MOL   C740  740   2.550   4.672   8.254 -0.1814  0.4086  0.0295
    1MOL   C741  741   2.540   4.801   8.201 -0.7146  0.5211 -0.4571
    1MOL   C742  742   2.558   4.815   8.061  0.1536  0.3515  0.3820
    1MOL   C743  743   2.564   4.694   7.986  0.2009 -0.4649 -0.1928
    1MOL   C744  744   2.523   4.923   8.277 -0.4638 -0.9104 -0.0318
    1MOL   C745  745   2.459   5.042   8.227 -0.1039 -0.0099 -0.3487
    1MOL   C746  746   2.446   5.154   8.307  0.0729  0.2744  0.2591
    1MOL   C747  747   2.495   5.157   0.071  1.0869 -0.3591 -0.0871
    1MOL   C748  748   2.537   5.036   0.130  0.4014 -0.1161 -0.0528
    1MOL   C749  749   2.556   4.923   0.051  0.2614  0.3697  0.5380
    1MOL   O750  750   2.492   5.277   0.146 -0.1290 -0.0230 -0.3803
    1MOL   H751  751   3.026   3.820   8.260 -3.4394  0.2829 -0.3603
    1MOL   H752  752   3.040   4.045   8.131 -1.7574 -0.8877  2.1461
    1MOL   H753  753   2.988   3.822   7.762 -0.9620 -1.2330 -0.3046
    1MOL   H754  754   3.023   3.607   7.895  1.0398  0.2671 -1.8221
    1MOL   H755  755   2.932   4.372   7.776  0.4133 -0.0431  0.6219
    1MOL   H756  756   2.751   4.515   7.822  0.5534  1.1680  1.0655
    1MOL   H757  757   2.540   4.208   8.032  0.4554  1.5436  0.6961
    1MOL   H758  758   2.737   4.064   8.015 -1.7883  0.0196  0.8124
    1MOL   H759  759   2.534   4.456   8.225 -0.6047 -1.0761 -1.0757
    1MOL   H760  760   2.544   4.647   8.359 -0.3902  0.1850 -0.0360
    1MOL   H761  761   2.567   4.915   8.020  0.0404  1.4644  2.9548
    1MOL   H762  762   2.561   4.709   7.880  0.4115 -0.2387 -0.1668
    1MOL   H763  763   2.424   5.049   8.125 -0.0313  0.0394 -0.3702
    1MOL   H764  764   2.404   5.239   8.256  0.0046  0.3761  0.4840
    1MOL   H765  765   2.563   5.044   0.235  0.9301 -2.4731  0.0126
    1MOL   H766  766   2.605   4.839   0.098  0.0609 -1.3370 -2.1854
    1MOL   C767  767   2.379   5.305   0.224 -0.0824 -0.4013 -0.2572
    1MOL   C768  768   2.400   5.399   0.329  0.1313  0.3063 -0.3104
    1MOL   C769  769   2.293   5.421   0.421 -0.3015 -0.0212 -0.3897
    1MOL   C770  770   2.166   5.369   0.400  0.2797 -0.0975 -0.2048
    1MOL   C771  771   2.145   5.279   0.291 -0.0368  0.5800 -0.4267
    1MOL   C772  772   2.252   5.246   0.211  0.0690 -0.4180  0.1003
    1MOL   S773  773   2.038   5.398   0.523 -0.1682  0.4166 -0.0716
    1MOL   O774  774   2.087   5.388   0.664  0.2510  0.5064  0.9740
    1MOL   O775  775   1.920   5.317   0.495 -0.0017 -0.4127  0.0261
    1MOL   C776  776   1.995   5.568   0.497 -0.7821 -0.0316 -0.3081
    1MOL   C777  777   1.993   5.621   0.367 -0.3213 -0.5737 -0.4383
    1MOL   C778  778   1.958   5.752   0.350  0.2426 -0.2884  0.1215
    1MOL   C779  779   1.932   5.836   0.459 -0.1373 -0.0676  0.2978
    1MOL   C780  780   1.925   5.782   0.586  0.2337 -0.5113  0.9737
    1MOL   C781  781   1.957   5.645   0.606 -1.2060  0.4002 -1.0203
    1MOL   O782  782   1.895   5.969   0.438 -0.2002  0.4017 -0.0427
    1MOL   C783  783   1.965   6.038   0.342  0.2961 -0.0905 -0.8338
    1MOL   C784  784   2.098   6.067   0.372  0.3221  1.1203  0.1814
    1MOL   C785  785   2.168   6.151   0.286  0.5485  0.0648 -0.0310
    1MOL   C786  786   2.115   6.192   0.161  0.0804  0.7811  0.2162
    1MOL   C787  787   1.983   6.156   0.133 -0.3337  0.1258  0.4161
    1MOL   C788  788   1.905   6.080   0.224 -0.0860  0.7089 -0.0736
    1MOL   C789  789   2.194   6.259   0.061  0.4529  0.4227  0.1348
    1MOL   C790  790   2.141   6.362   8.349 -0.0668  0.3515 -0.3099
    1MOL   C791  791   2.209   6.410   8.239 -0.5531  0.2065 -0.3607
    1MOL   C792  792   2.340   6.360   8.207 -0.3927  0.0583 -0.0726
    1MOL   C793  793   2.394   6.253   8.283  0.3050 -1.1125  0.0341
    1MOL   C794  794   2.318   6.209   0.026  0.5736  0.7424  0.2316
    1MOL   O795  795   2.382   6.403   8.088  0.4798  0.5796  0.0044
    1MOL   H796  796   2.498   5.444   0.338 -0.5411  1.3897  1.8939
    1MOL   H797  797   2.302   5.495   0.499 -0.2973 -1.0729  0.6259
    1MOL   H798  798   2.044   5.246   0.273 -0.4838  1.7530 -0.1251
    1MOL   H799  799   2.247   5.176   0.129 -0.0311  0.9747 -1.1147
    1MOL   H800  800   2.020   5.561   0.281 -0.0320  0.2714 -0.9463
    1MOL   H801  801   1.953   5.788   0.248  0.3137  0.8483  0.5118
    1MOL   H802  802   1.883   5.848   0.661 -0.6730 -0.2453  0.2311
    1MOL   H803  803   1.946   5.595   0.701  3.1905 -0.4502 -0.8690
    1MOL   H804  804   2.146   6.037   0.464  2.5082  3.5888 -0.0942
    1MOL   H805  805   2.272   6.178   0.302  0.4072 -0.3473  1.6870
    1MOL   H806  806   1.930   6.188   0.044  1.0121  0.6963 -0.2093
    1MOL   H807  807   1.807   6.048   0.193  0.6383 -0.7071 -0.9603
    1MOL   H808  808   2.039   6.396   8.364 -0.7501 -0.5381 -2.7155
    1MOL   H809  809   2.164   6.484   8.174 -1.8045 -0.5387 -0.3611
    1MOL   H810  810   2.490   6.207   8.261  0.5160 -0.6882  0.0407
    1MOL   H811  811   2.346   6.128   0.092 -1.3000  0.3196  0.5277
    1MOL   C812  812   2.408   6.301   8.000 -0.0175 -0.4430 -0.4466
    1MOL   C813  813   2.302   6.210   7.962 -0.4125 -0.1430 -0.0103
    1MOL   C814  814   2.329   6.099   7.882 -0.1482 -0.6278  0.7321
    1MOL   C815  815   2.456   6.083   7.830 -0.3163  0.4042 -0.0157
    1MOL   C816  816   2.552   6.184   7.840 -0.3956 -0.0760 -0.2003
    1MOL   C817  817   2.528   6.294   7.932  0.6218 -0.0570  0.2078
    1MOL   S818  818   2.481   5.962   7.705 -0.1457 -0.4492  0.0723
    1MOL   O819  819   2.605   5.989   7.627  0.7269  0.4305  0.3833
    1MOL   O820  820   2.353   5.959   7.637  0.2523  0.7512  0.7865
    1MOL   C821  821   2.497   5.799   7.781 -0.2363 -0.5161 -0.0308
    1MOL   C822  822   2.571   5.775   7.901  0.6276 -0.4615 -0.1118
    1MOL   C823  823   2.577   5.638   7.937 -0.9635 -0.0353  0.1438
    1MOL   C824  824   2.511   5.533   7.866  0.8236 -0.8365 -0.1711
    1MOL   C825  825   2.443   5.556   7.749 -0.0122 -0.1628  1.1581
    1MOL   C826  826   2.431   5.693   7.712 -0.3814 -0.2328 -0.4557
    1MOL   O827  827   2.537   5.409   7.914 -0.8882 -1.0389  0.0211
    1MOL   C828  828   2.439   5.311   7.902 -0.3087  0.2958  0.6567
    1MOL   C829  829   2.460   5.197   7.821 -0.4059  0.3951 -0.7967
    1MOL   C830  830   2.374   5.088   7.828  0.4475  0.2515 -0.2854
    1MOL   C831  831   2.249   5.097   7.892 -0.3653 -0.2809 -0.2034
    1MOL   C832  832   2.223   5.212   7.961  0.2802  0.1830 -0.8389
    1MOL   C833  833   2.317   5.319   7.977  0.1420 -0.6192  0.1236
    1MOL   C834  834   2.156   4.982   7.901  0.8208 -0.3300 -0.5759
    1MOL   C835  835   2.025   5.004   7.857  0.4205 -0.2069  0.2039
    1MOL   C836  836   1.921   4.907   7.877 -0.5162  0.4752  0.3544
    1MOL   C837  837   1.958   4.780   7.927 -0.7919  0.0614  0.1185
    1MOL   C838  838   2.096   4.751   7.955 -0.6984 -0.2844 -0.3510
    1MOL   C839  839   2.191   4.853   7.943 -0.0503 -0.4174 -0.1078
    1MOL   O840  840   1.863   4.682   7.953 -0.2445 -0.5280 -0.1325
    1MOL   H841  841   2.203   6.223   8.002  0.1124  1.1190  0.9086
    1MOL   H842  842   2.254   6.034   7.839  1.4430  0.6763 -4.4513
    1MOL   H843  843   2.649   6.175   7.793 -0.0499  2.8019 -0.0987
    1MOL   H844  844   2.610   6.363   7.945  0.4700 -0.0144  0.9437
    1MOL   H845  845   2.615   5.856   7.955  0.9499 -0.6301 -0.1202
    1MOL   H846  846   2.632   5.602   8.022 -1.7250 -0.7213  0.3567
    1MOL   H847  847   2.400   5.471   7.699 -0.6892  0.7094  0.2429
    1MOL   H848  848   2.372   5.720   7.626  0.6145 -1.8874 -1.6734
    1MOL   H849  849   2.554   5.176   7.771  0.5533  1.7285  0.4053
    1MOL   H850  850   2.396   4.993   7.783  1.4193 -0.0181  0.7269
    1MOL   H851  851   2.128   5.214   8.012  0.0084 -0.4846 -1.3124
    1MOL   H852  852   2.303   5.408   8.036 -0.2960 -0.2681 -0.4943
    1MOL   H853  853   2.006   5.097   7.805  0.1073 -1.0646 -1.2173
    1MOL   H854  854   1.820   4.919   7.839 -0.3583 -2.7450 -1.2233
    1MOL   H855  855   2.126   4.656   7.995 -1.4176 -0.5510 -0.4454
    1MOL   H856  856   2.294   4.831   7.964  0.8484  2.6466 -1.1029
    1MOL   C857  857   1.813   4.609   7.850  0.5373 -0.7241 -0.0211
    1MOL   C858  858   1.667   4.600   7.849  0.5325 -0.1057  0.6501
    1MOL   C859  859   1.607   4.539   7.742 -0.6029  0.3103 -0.5139
    1MOL   C860  860   1.690   4.464   7.658  0.2001  1.2844  0.4706
    1MOL   C861  861   1.832   4.463   7.666  0.1936  0.1986 -0.0268
    1MOL   C862  862   1.895   4.539   7.761  0.5194  0.1182 -0.1623
    1MOL   S863  863   1.624   4.344   7.543  0.2905  0.3896 -0.2695
    1MOL   O864  864   1.482   4.320   7.578 -0.0562  0.4364  0.2458
    1MOL   O865  865   1.724   4.234   7.529  0.1749  0.0960 -0.3638
    1MOL   C866  866   1.616   4.427   7.386 -0.4881 -0.5795 -0.3439
    1MOL   C867  867   1.734   4.484   7.334  1.0179  0.2274  0.3307
    1MOL   C868  868   1.730   4.558   7.217  0.5022  0.4708  0.4435
    1MOL   C869  869   1.607   4.581   7.152 -0.2621  0.3743  0.0223
    1MOL   C870  870   1.486   4.534   7.205  0.1751  0.4941 -0.8323
    1MOL   C871  871   1.495   4.455   7.327  0.2235 -0.0069  0.3725
    1MOL   O872  872   1.613   4.665   7.037 -0.1134 -0.0188  0.0745
    1MOL   C873  873   1.534   4.638   6.931 -0.7667  0.1161 -0.3867
    1MOL   C874  874   1.452   4.735   6.880  0.5363  0.3995  0.0202
    1MOL   C875  875   1.367   4.701   6.773  0.3974 -0.0191 -0.0052
    1MOL   C876  876   1.358   4.576   6.713 -0.2287 -0.2134 -0.1102
    1MOL   C877  877   1.437   4.476   6.769  0.1496 -0.2094  0.0429
    1MOL   C878  878   1.526   4.507   6.881 -0.2013 -0.7617  0.0127
    1MOL   C879  879   1.268   4.551   6.604 -0.4566  0.2692 -0.1950
    1MOL   C880  880   1.292   4.451   6.501  0.0200  0.3777  0.7967
    1MOL   C881  881   1.197   4.430   6.401  0.0720 -0.0618 -0.3454
    1MOL   C882  882   1.078   4.504   6.395  0.2668 -0.0813 -0.4012
    1MOL   C883  883   1.059   4.601   6.490 -0.5749 -0.1526  0.2169
    1MOL   C884  884   1.153   4.629   6.595  0.1613 -0.3177  0.2038
    1MOL   O885  885   0.993   4.481   6.297 -0.0721 -0.4140 -0.1542
    1MOL   H886  886   1.614   4.649   7.930  0.2789  0.1129  0.3517
    1MOL   H887  887   1.500   4.533   7.732 -0.4418 -0.1474 -2.0290
    1MOL   H888  888   1.902   4.407   7.606  1.2348  1.3996  0.0625
    1MOL   H889  889   2.003   4.544   7.769  0.2664  3.0150  2.3532
    1MOL   H890  890   1.827   4.464   7.385  0.8032  0.1872  0.7060
    1MOL   H891  891   1.823   4.592   7.173  1.0379 -0.2448  1.0002
    1MOL   H892  892   1.392   4.548   7.156 -0.0695  2.1992  0.0803
    1MOL   H893  893   1.405   4.408   7.364 -0.1694 -0.3801 -1.0111
    1MOL   H894  894   1.469   4.833   6.923 -2.6673  1.3604 -0.7471
    1MOL   H895  895   1.304   4.780   6.733  1.5175  0.4273 -0.9210
    1MOL   H896  896   1.444   4.375   6.731  2.3601  0.0526 -0.2872
    1MOL   H897  897   1.597   4.434   6.919 -0.0516 -1.0212 -0.7660
    1MOL   H898  898   1.388   4.406   6.480 -1.2619 -2.8730  1.5716
    1MOL   H899  899   1.212   4.368   6.314 -1.0890 -0.5990 -0.1677
    1MOL   H900  900   0.974   4.666   6.475  1.2215  1.5889 -2.6885
    1MOL   H901  901   1.128   4.713   6.658 -1.1751  0.4268 -1.2976
    1MOL   H902  902   0.974   4.389   6.285  3.2982 -1.7632  3.7018
    2MOL     C1  903   4.161   6.080   7.241  0.8352 -0.7412 -0.1686
    2MOL     C2  904   4.044   6.157   7.268 -0.2236 -0.2093  0.4085
    2MOL     C3  905   4.056   6.286   7.327  0.2227 -0.2086 -0.3838
    2MOL     C4  906   4.180   6.340   7.356 -0.5507 -0.0593 -0.2566
    2MOL     C5  907   4.296   6.267   7.319  0.4232 -0.2997  0.2003
    2MOL     C6  908   4.293   6.140   7.261 -0.3366 -0.3907  0.9818
    2MOL     S7  909   4.211   6.498   7.445  0.3397  0.2182  0.3392
    2MOL     O8  910   4.132   6.596   7.370 -0.5688  0.0479 -0.2791
    2MOL     O9  911   4.354   6.517   7.456  0.1529 -0.5749  0.1216
    2MOL    C10  912   4.134   6.467   7.605 -0.8723  0.2356 -0.2083
    2MOL    C11  913   3.995   6.489   7.625 -0.0212 -0.9591 -0.1365
    2MOL    C12  914   3.931   6.453   7.743  0.1750  0.1148 -1.1067
    2MOL    C13  915   4.013   6.402   7.850 -0.0584 -0.0048 -0.0141
    2MOL    C14  916   4.153   6.390   7.833 -0.1580  0.3512  0.3836
    2MOL    C15  917   4.207   6.416   7.707  0.0264  0.0866  0.0952
    2MOL    O16  918   3.956   6.361   7.974  0.3058  0.4230  0.4368
    2MOL    C17  919   3.895   6.237   7.993  0.0973  0.7792 -0.4329
    2MOL    C18  920   3.871   6.143   7.889  0.6242 -0.8311 -0.5543
    2MOL    C19  921   3.810   6.019   7.912  0.3418 -0.0508  0.8448
    2MOL    C20  922   3.785   5.973   8.045  0.0795 -0.5600  0.6937
    2MOL    C21  923   3.823   6.070   8.149 -0.6900  0.2783 -0.2955
    2MOL    C22  924   3.867   6.201   8.121  0.1781  0.2809 -0.2917
    2MOL    C23  925   3.741   5.836   8.067  0.4832 -0.6013 -0.1304
    2MOL    C24  926   3.792   5.772   8.182 -0.2996  0.0035 -1.0581
    2MOL    C25  927   3.768   5.637   8.207 -0.5986 -0.2947 -0.5169
    2MOL    C26  928   3.706   5.560   8.106 -0.0230  0.2110  0.0966
    2MOL    C27  929   3.655   5.623   7.987 -0.4372  0.2179  0.4307
    2MOL    C28  930   3.668   5.761   7.974 -0.7788  0.1799  0.2942
    2MOL    O29  931   3.701   5.422   8.109  0.5393  0.2966  0.0449
    2MOL    H30  932   3.946   6.127   7.235  0.4092 -1.1284 -0.6592
    2MOL    H31  933   3.966   6.344   7.335 -0.0483 -0.6889  0.0481
    2MOL    H32  934   4.395   6.303   7.343  0.2981  1.0041 -1.1486
    2MOL    H33  935   4.379   6.079   7.239  0.2741 -0.3719  3.2246
    2MOL    H34  936   3.928   6.528   7.550 -2.1840 -1.3532  1.5395
    2MOL    H35  937   3.824   6.461   7.748  0.2918  1.4853 -0.3782
    2MOL    H36  938   4.213   6.352   7.914 -0.8766 -0.1822  0.6728
    2MOL    H37  939   4.314   6.412   7.688  0.1218  1.0826  0.4120
    2MOL    H38  940   3.903   6.170   7.790 -0.0614 -1.6506 -0.9958
    2MOL    H39  941   3.784   5.964   7.822  0.8842  2.2141 -0.7279
    2MOL    H40  942   3.822   6.030   8.249 -0.1769 -1.7332 -1.0668
    2MOL    H41  943   3.891   6.267   8.203 -1.0220  0.9955 -0.5111
    2MOL    H42  944   3.849   5.823   8.259 -2.4835 -2.6667  2.4522
    2MOL    H43  945   3.804   5.584   8.294 -0.6151  0.0456 -0.3057
    2MOL    H44  946   3.607   5.574   7.904  2.1187 -1.3888 -0.1236
    2MOL    H45  947   3.634   5.802   7.880 -0.0675 -0.8391 -0.4113
    2MOL    H46  948   4.145   5.986   7.191  1.3930 -1.0555  0.2539
    2MOL    C47  949   3.812   5.359   8.139 -0.4081  0.3094  0.0705
    2MOL    C48  950   3.818   5.285   8.260  0.1714  0.4902 -0.4800
    2MOL    C49  951   3.933   5.217   8.293 -0.6107 -0.3023  0.1603
    2MOL    C50  952   4.043   5.219   8.209 -0.0104  0.1880  0.3379
    2MOL    C51  953   4.040   5.289   8.088  0.4192 -0.1027  0.4056
    2MOL    C52  954   3.924   5.352   8.052 -0.4421 -0.3352  0.4672
    2MOL    S53  955   4.199   5.144   8.266 -0.3486  0.0762 -0.0763
    2MOL    O54  956   4.304   5.208   8.199  0.3044  0.3835  0.7138
    2MOL    O55  957   4.198   4.998   8.262 -0.0378 -0.1779 -0.0169
    2MOL    C56  958   4.211   5.176   0.079 -0.4119 -0.1642  0.2329
    2MOL    C57  959   4.208   5.304   0.122 -0.0168  0.1280  0.1212
    2MOL    C58  960   4.222   5.335   0.256 -0.7730 -0.3268 -0.4046
    2MOL    C59  961   4.242   5.239   0.353  0.4478  0.7137 -0.4847
    2MOL    C60  962   4.252   5.106   0.312  0.7305  0.5360  0.0001
    2MOL    C61  963   4.228   5.077   0.174 -0.3486 -0.3102  0.4494
    2MOL    O62  964   4.254   5.280   0.483  0.2981  0.1740 -0.3134
    2MOL    C63  965   4.344   5.221   0.573  0.2184  0.2969 -0.0206
    2MOL    C64  966   4.484   5.203   0.549  0.6176  0.0491 -0.0075
    2MOL    C65  967   4.566   5.148   0.648 -0.7747  0.4570  0.1001
    2MOL    C66  968   4.518   5.112   0.776  0.9888  0.0734 -0.4681
    2MOL    C67  969   4.378   5.122   0.797  0.8947 -0.4458  0.4177
    2MOL    C68  970   4.294   5.174   0.697  1.1773  0.3438  0.8186
    2MOL    C69  971   4.611   5.049   0.871  0.0239 -0.0293  0.0238
    2MOL    C70  972   4.740   5.109   0.886  0.9145 -0.2092  0.6450
    2MOL    C71  973   4.825   5.064   0.983 -0.2529  0.0355  0.2732
    2MOL    C72  974   4.790   4.954   1.066  0.3083 -0.1132  0.1715
    2MOL    C73  975   4.666   4.892   1.041 -0.4871  0.7144 -0.3575
    2MOL    C74  976   4.573   4.936   0.945 -0.1532 -0.3828 -0.5882
    2MOL    O75  977   4.885   4.907   1.150 -0.2116 -0.3181  0.2614
    2MOL    H76  978   3.730   5.275   8.322  0.8116  0.8750  0.5041
    2MOL    H77  979   3.938   5.171   0.025 -1.4173  0.0462  0.3725
    2MOL    H78  980   4.127   5.275   8.026 -0.3046 -1.4747 -0.3289
    2MOL    H79  981   3.914   5.391   7.952  0.2786  0.1622  0.5900
    2MOL    H80  982   4.201   5.383   0.049 -0.9599  0.8215  0.9417
    2MOL    H81  983   4.223   5.437   0.291  0.3415  0.0469 -1.4989
    2MOL    H82  984   4.276   5.039   0.394  1.7834  0.2620 -0.5197
    2MOL    H83  985   4.231   4.975   0.138 -1.1364  0.0411 -0.6522
    2MOL    H84  986   4.519   5.228   0.450 -1.8937  1.0711 -0.6787
    2MOL    H85  987   4.669   5.128   0.623 -0.6380 -0.9296  1.7144
    2MOL    H86  988   4.338   5.094   0.893  1.3639 -0.6072  0.5678
    2MOL    H87  989   4.187   5.168   0.712  0.6474  0.9449 -2.4738
    2MOL    H88  990   4.776   5.181   0.814  0.4890 -3.4349 -3.0192
    2MOL    H89  991   4.925   5.106   0.985 -0.9309  1.8747 -2.0668
    2MOL    H90  992   4.633   4.804   1.094 -2.2421  1.0681 -0.8369
    2MOL    H91  993   4.476   4.890   0.931 -1.5177  1.9630  0.8949
    2MOL    C92  994   4.880   4.943   1.286  0.1972  0.5373 -0.3787
    2MOL    C93  995   4.963   5.047   1.336 -0.1146  0.3938  0.2784
    2MOL    C94  996   4.938   5.100   1.461 -0.6651 -0.0736 -0.7050
    2MOL    C95  997   4.835   5.048   1.536  0.2060 -0.6284 -0.2838
    2MOL    C96  998   4.754   4.943   1.492 -0.1601 -0.1737  0.0303
    2MOL    C97  999   4.781   4.885   1.369  0.8234  0.4130 -0.1063
    2MOL    S98 1000   4.801   5.107   1.706 -0.0916  0.1482  0.1763
    2MOL    O99 1001   4.663   5.069   1.732  0.0089  0.1183 -0.1672
    2MOL   O100 1002   4.843   5.246   1.710  0.0678 -0.9665  0.4386
    2MOL   C101 1003   4.913   5.015   1.817  0.1704 -0.1061 -0.0661
    2MOL   C102 1004   4.911   5.019   1.961  0.3897  0.0225 -0.6477
    2MOL   C103 1005   5.012   4.969   2.042  0.0932  0.0931 -0.5873
    2MOL   C104 1006   5.112   4.892   1.981 -0.7736  0.4508  0.6666
    2MOL   C105 1007   5.132   4.895   1.838  0.4354  0.1797 -0.6187
    2MOL   C106 1008   5.033   4.957   1.759  0.2173  0.2515  0.5269
    2MOL   O107 1009   5.208   4.821   2.053  0.4637  0.1564  0.0203
    2MOL   C108 1010   5.167   4.720   2.135  0.2859  0.2629 -0.2019
    2MOL   C109 1011   5.043   4.658   2.124  0.2505  0.1866  0.2507
    2MOL   C110 1012   5.000   4.564   2.220 -1.1704 -0.3590  0.0143
    2MOL   C111 1013   5.089   4.519   2.322  0.0929 -0.4430 -0.0108
    2MOL   C112 1014   5.216   4.580   2.334  0.1582  0.0987  0.5673
    2MOL   C113 1015   5.254   4.683   2.239  0.0919  0.4928  0.5032
    2MOL   C114 1016   5.051   4.412   2.407 -0.1364 -0.4622 -0.3866
    2MOL   C115 1017   4.918   4.394   2.451 -0.0148  0.5425  0.5070
    2MOL   C116 1018   4.888   4.277   2.522  0.1667 -0.2117  0.3424
    2MOL   C117 1019   4.981   4.176   2.553  0.1747 -0.5022  0.0303
    2MOL   C118 1020   5.116   4.200   2.522  0.7273  0.1336 -0.1243
    2MOL   C119 1021   5.145   4.311   2.444 -0.0392  0.0598  0.5224
    2MOL   O120 1022   4.929   4.056   2.605  0.0558 -1.0369  0.1176
    2MOL   H121 1023   5.040   5.083   1.269  0.1409 -0.8422 -0.1099
    2MOL   H122 1024   4.998   5.184   1.496 -1.1117  0.7047 -1.7642
    2MOL   H123 1025   4.669   4.906   1.548  1.0253 -1.9837  0.6880
    2MOL   H124 1026   4.737   4.794   1.329  1.3801  0.0416  0.1206
    2MOL   H125 1027   4.827   5.078   1.997  2.7479  3.7388 -0.9007
    2MOL   H126 1028   5.000   4.966   2.149 -0.7856  0.2495 -0.6715
    2MOL   H127 1029   5.214   4.840   1.794  0.4238  1.4360 -2.2254
    2MOL   H128 1030   5.056   4.971   1.654  1.6184  1.1185  0.9266
    2MOL   H129 1031   4.982   4.694   2.042  0.9808  0.3266 -0.2410
    2MOL   H130 1032   4.898   4.530   2.210 -0.4814 -2.0406 -1.5221
    2MOL   H131 1033   5.283   4.541   2.409 -1.6163 -0.1769  2.0505
    2MOL   H132 1034   5.351   4.728   2.252  1.2052 -1.5192 -0.7724
    2MOL   H133 1035   4.829   4.451   2.431 -0.1305 -0.2415 -1.2745
    2MOL   H134 1036   4.790   4.244   2.553 -0.4567  2.1081  0.9257
    2MOL   H135 1037   5.192   4.130   2.551  0.5913 -0.5876 -1.4537
    2MOL   H136 1038   5.246   4.318   2.408 -0.7860  1.4940 -1.3485
    2MOL   C137 1039   4.998   3.994   2.709 -0.1736  0.7120  0.1027
    2MOL   C138 1040   5.035   4.065   2.820 -1.2971 -0.3781 -0.5705
    2MOL   C139 1041   5.120   4.004   2.916 -0.4406  0.1209  0.0319
    2MOL   C140 1042   5.149   3.865   2.897 -0.6675  0.0619 -0.0549
    2MOL   C141 1043   5.095   3.791   2.795  0.6475 -0.1796  0.2110
    2MOL   C142 1044   5.008   3.853   2.706  0.4126  0.3609  0.3153
    2MOL   S143 1045   5.252   3.784   3.021  0.1486  0.0540 -0.3699
    2MOL   O144 1046   5.378   3.866   3.040  0.2373 -0.5553 -0.1464
    2MOL   O145 1047   5.265   3.641   2.992 -0.0455  0.4615 -0.0109
    2MOL   C146 1048   5.140   3.811   3.167 -0.3548  0.1347 -0.7371
    2MOL   C147 1049   5.193   3.873   3.280  0.1023  0.0228 -0.0170
    2MOL   C148 1050   5.108   3.898   3.387 -0.1468  0.5512  0.2839
    2MOL   C149 1051   4.965   3.869   3.381 -0.7387  0.3005 -0.4155
    2MOL   C150 1052   4.919   3.796   3.267 -0.6178 -0.1459  0.2677
    2MOL   C151 1053   5.006   3.774   3.157  0.1222 -0.1641  0.5513
    2MOL   O152 1054   4.889   3.885   3.492  0.2925 -0.3681  0.2692
    2MOL   C153 1055   4.763   3.943   3.486 -0.5940  0.0256  0.1867
    2MOL   C154 1056   4.755   4.084   3.487  0.1585 -0.1792 -0.2347
    2MOL   C155 1057   4.620   4.138   3.481 -0.8439 -0.9460  0.6244
    2MOL   C156 1058   4.499   4.061   3.474  0.1438  0.5860 -0.3510
    2MOL   C157 1059   4.517   3.919   3.459 -0.3134  0.2353 -0.1917
    2MOL   C158 1060   4.650   3.862   3.472  1.0031 -0.9999  0.0411
    2MOL   C159 1061   4.369   4.131   3.485  0.4340 -0.1257  0.2506
    2MOL   C160 1062   4.339   4.262   3.426  0.0174 -0.2588 -0.4787
    2MOL   C161 1063   4.213   4.326   3.432 -0.1742  0.0194  0.9018
    2MOL   C162 1064   4.115   4.265   3.509  0.2585  0.0320 -0.3072
    2MOL   C163 1065   4.137   4.142   3.571 -0.0928  0.5018  0.1990
    2MOL   C164 1066   4.262   4.072   3.553 -0.3728 -0.6074  0.1497
    2MOL   O165 1067   3.999   4.331   3.540  0.2949  0.2185 -0.4557
    2MOL   H166 1068   5.012   4.171   2.823 -0.3818 -0.2231  2.9134
    2MOL   H167 1069   5.172   4.046   3.001  1.0188 -0.4775 -0.5387
    2MOL   H168 1070   5.112   3.684   2.801 -1.9340 -0.6244  0.1239
    2MOL   H169 1071   4.969   3.803   2.619  1.9887  0.0764 -0.2440
    2MOL   H170 1072   5.299   3.894   3.290 -0.2583  1.4440  0.9961
    2MOL   H171 1073   5.143   3.944   3.478  1.1022 -0.6207  0.4080
    2MOL   H172 1074   4.816   3.763   3.270  0.3167 -3.5327 -1.4539
    2MOL   H173 1075   4.967   3.723   3.070  0.7878  0.2993 -0.0238
    2MOL   H174 1076   4.842   4.148   3.492 -1.4563  2.0544  0.0691
    2MOL   H175 1077   4.619   4.244   3.500 -1.0774 -1.1912  2.0228
    2MOL   H176 1078   4.425   3.865   3.440 -0.6569  1.2402 -1.4660
    2MOL   H177 1079   4.671   3.756   3.471 -1.6825 -1.5897 -1.6250
    2MOL   H178 1080   4.418   4.301   3.364  0.4447 -1.3608 -0.6293
    2MOL   H179 1081   4.189   4.420   3.384 -0.4545 -0.7935 -0.5801
    2MOL   H180 1082   4.049   4.100   3.617 -0.1581  0.5945  0.1586
    2MOL   H181 1083   4.260   3.974   3.597 -2.8060 -0.4624  0.4691
    2MOL   C182 1084   3.877   4.282   3.501  0.8449 -0.3245 -0.4548
    2MOL   C183 1085   3.868   4.188   3.392  0.0262 -0.2460 -0.0390
    2MOL   C184 1086   3.748   4.138   3.346  0.3803  0.4086 -0.6895
    2MOL   C185 1087   3.626   4.188   3.404  0.7928  0.3102  0.2785
    2MOL   C186 1088   3.632   4.281   3.511  0.1361 -0.0265 -0.3354
    2MOL   C187 1089   3.760   4.325   3.559 -0.6027 -0.4597 -0.1782
    2MOL   S188 1090   3.466   4.142   3.353 -0.3315  0.2763 -0.0134
    2MOL   O189 1091   3.366   4.243   3.395 -0.0374 -0.3772  0.4836
    2MOL   O190 1092   3.444   4.004   3.392 -0.0311 -0.6326 -0.1114
    2MOL   C191 1093   3.464   4.131   3.178 -0.4775  0.3441 -0.3725
    2MOL   C192 1094   3.420   4.013   3.112  0.1199  0.5521  0.6750
    2MOL   C193 1095   3.387   4.020   2.975  0.0226 -0.0481  0.7143
    2MOL   C194 1096   3.422   4.136   2.898 -0.1292  0.1217  0.4061
    2MOL   C195 1097   3.473   4.250   2.957 -0.2443 -0.0326 -0.4841
    2MOL   C196 1098   3.485   4.245   3.102 -0.4439 -0.3771  0.2180
    2MOL   O197 1099   3.391   4.146   2.765  0.0761  0.3640  0.4121
    2MOL   C198 1100   3.257   4.167   2.740 -0.1778 -0.1712 -0.7769
    2MOL   C199 1101   3.210   4.109   2.627  0.2621 -0.1144 -0.4191
    2MOL   C200 1102   3.077   4.137   2.585 -0.7701 -0.2758  0.5425
    2MOL   C201 1103   2.997   4.224   2.668 -0.3983  0.5762 -0.2866
    2MOL   C202 1104   3.048   4.283   2.786  0.1383  0.1292 -0.1301
    2MOL   C203 1105   3.180   4.251   2.823  0.7881 -0.5053  0.3382
    2MOL   C204 1106   2.858   4.254   2.638  0.4968 -0.0299 -0.3646
    2MOL   C205 1107   2.802   4.379   2.661  0.4012  0.4031 -0.7264
    2MOL   C206 1108   2.673   4.413   2.624  0.6770 -0.0037  0.2692
    2MOL   C207 1109   2.596   4.321   2.558  0.2449 -0.2772  0.5623
    2MOL   C208 1110   2.643   4.187   2.538 -0.7307  0.0165  0.2758
    2MOL   C209 1111   2.776   4.152   2.574  0.5107  0.3301 -0.0770
    2MOL   O210 1112   2.464   4.357   2.525 -0.6934  0.0054 -0.0658
    2MOL   H211 1113   3.959   4.147   3.351  0.3930 -2.6280  3.0207
    2MOL   H212 1114   3.749   4.070   3.262  1.7077  1.0024 -1.1706
    2MOL   H213 1115   3.543   4.316   3.560  1.4460  1.0604  1.3373
    2MOL   H214 1116   3.774   4.391   3.643 -0.2516  0.1551 -0.7102
    2MOL   H215 1117   3.392   3.924   3.166 -1.5370  0.4232 -0.3599
    2MOL   H216 1118   3.356   3.926   2.934 -0.6127  0.4852 -0.0375
    2MOL   H217 1119   3.481   4.340   2.899 -0.2950 -0.1222 -0.6307
    2MOL   H218 1120   3.499   4.341   3.151  1.4904  0.0143 -1.0600
    2MOL   H219 1121   3.276   4.055   2.561  0.3242  4.0594 -3.9626
    2MOL   H220 1122   3.044   4.098   2.490 -0.3148 -0.1168  0.3198
    2MOL   H221 1123   2.989   4.345   2.853  1.3299 -0.1756  1.2146
    2MOL   H222 1124   3.217   4.300   2.912 -2.6444  1.2663  0.8759
    2MOL   H223 1125   2.866   4.458   2.699 -1.4711  1.7068 -0.2042
    2MOL   H224 1126   2.630   4.510   2.647  0.5664 -0.3626  1.6413
    2MOL   H225 1127   2.574   4.121   2.488 -1.0929 -0.2159  1.0731
    2MOL   H226 1128   2.820   4.058   2.545 -0.1827  0.2821 -0.9979
    2MOL   C227 1129   2.425   4.384   2.397 -0.1507  0.1617  0.0866
    2MOL   C228 1130   2.315   4.324   2.339  0.5893 -0.2722  0.1641
    2MOL   C229 1131   2.286   4.345   2.203 -0.0753  0.3601 -0.4862
    2MOL   C230 1132   2.359   4.442   2.128 -0.4835  0.4521 -0.0333
    2MOL   C231 1133   2.467   4.514   2.192  0.3659  0.5974 -0.5064
    2MOL   C232 1134   2.499   4.482   2.324 -0.3703 -1.0615 -0.1128
    2MOL   S233 1135   2.340   4.471   1.952 -0.4097  0.2483  0.0947
    2MOL   O234 1136   2.379   4.611   1.924  0.2819  0.2640 -0.3888
    2MOL   O235 1137   2.200   4.428   1.915  0.1900 -0.3457 -0.2242
    2MOL   C236 1138   2.457   4.365   1.890 -0.3945 -0.4353 -0.4685
    2MOL   C237 1139   2.545   4.286   1.966  0.4121 -0.1276  0.3648
    2MOL   C238 1140   2.623   4.193   1.901 -0.3237 -0.1378 -0.4291
    2MOL   C239 1141   2.633   4.184   1.766 -0.3180 -0.1043 -0.0345
    2MOL   C240 1142   2.551   4.268   1.685 -0.0752 -0.7968 -0.3740
    2MOL   C241 1143   2.464   4.364   1.747  0.9222  1.2184 -0.5274
    2MOL   O242 1144   2.701   4.082   1.703 -0.1865  0.1612  0.0886
    2MOL   C243 1145   2.833   4.066   1.745  0.0478  0.6462  0.3197
    2MOL   C244 1146   2.883   3.952   1.806  0.8534  0.1032 -0.2280
    2MOL   C245 1147   3.012   3.945   1.857 -0.1794  0.5348 -0.3189
    2MOL   C246 1148   3.100   4.050   1.838  0.3083 -0.2654  0.2192
    2MOL   C247 1149   3.055   4.160   1.763  0.3331 -0.2752 -0.3327
    2MOL   C248 1150   2.928   4.173   1.716 -0.3675 -0.0161  0.1584
    2MOL   C249 1151   3.241   4.045   1.878  0.1043  0.5151  0.3518
    2MOL   C250 1152   3.325   3.936   1.840  0.1078 -0.3616 -0.0124
    2MOL   C251 1153   3.462   3.932   1.877 -0.6321  0.0170  0.4489
    2MOL   C252 1154   3.513   4.044   1.947 -0.0278 -0.1928 -1.0182
    2MOL   C253 1155   3.436   4.155   1.976  0.0860 -0.3346 -0.1539
    2MOL   C254 1156   3.299   4.155   1.947  0.0330  0.2887  0.2733
    2MOL   O255 1157   3.644   4.041   1.988 -0.4319  0.4002 -0.2127
    2MOL   H256 1158   2.247   4.268   2.402 -2.7095  0.9526 -2.1609
    2MOL   H257 1159   2.208   4.295   2.149 -0.9983  0.2905  0.9014
    2MOL   H258 1160   2.537   4.569   2.130 -0.9450  0.6522 -1.9671
    2MOL   H259 1161   2.582   4.531   2.374 -0.5141 -2.2321  1.3221
    2MOL   H260 1162   2.546   4.282   2.074  0.0312 -2.2166  0.3036
    2MOL   H261 1163   2.691   4.125   1.952  0.0000 -1.3765 -2.4797
    2MOL   H262 1164   2.558   4.251   1.579  2.1886  2.8801 -0.9248
    2MOL   H263 1165   2.392   4.416   1.686 -0.0947  1.8843  1.2316
    2MOL   H264 1166   2.822   3.863   1.817 -1.5740  1.8194  0.7755
    2MOL   H265 1167   3.039   3.853   1.907  0.6417  1.4898  1.0044
    2MOL   H266 1168   3.125   4.240   1.747 -1.2487  0.8169 -1.9202
    2MOL   H267 1169   2.899   4.268   1.675  0.6374 -0.4068 -1.5319
    2MOL   H268 1170   3.292   3.849   1.785  1.7666 -0.4044 -1.0115
    2MOL   H269 1171   3.520   3.842   1.862 -1.3038 -0.7238  2.1187
    2MOL   H270 1172   3.483   4.239   2.026 -0.3269 -0.7757  0.9851
    2MOL   H271 1173   3.254   4.250   1.971 -1.0229 -0.4811  1.4242
    2MOL   C272 1174   3.669   3.976   2.106  0.7408 -0.1787  0.3664
    2MOL   C273 1175   3.793   3.906   2.119 -0.4989 -0.1876  1.0408
    2MOL   C274 1176   3.819   3.836   2.237  0.9240 -0.6400  0.0694
    2MOL   C275 1177   3.741   3.848   2.348  0.5931  0.6774  0.7844
    2MOL   C276 1178   3.624   3.931   2.338 -0.2160  0.2096  0.2478
    2MOL   C277 1179   3.586   3.988   2.218  0.1029  0.1578 -1.0191
    2MOL   S278 1180   3.765   3.774   2.508 -0.1505 -0.3799 -0.1677
    2MOL   O279 1181   3.781   3.629   2.494  0.0965 -0.1638  1.0813
    2MOL   O280 1182   3.672   3.838   2.602  0.3341 -0.3704  0.2814
    2MOL   C281 1183   3.931   3.827   2.548 -0.2857  0.3896 -0.3439
    2MOL   C282 1184   4.008   3.739   2.627 -0.0730  0.1132  0.3663
    2MOL   C283 1185   4.135   3.773   2.674 -0.0967  0.2521  0.4634
    2MOL   C284 1186   4.188   3.900   2.640 -0.8826  0.3871 -0.2303
    2MOL   C285 1187   4.113   3.986   2.562  0.1564 -0.7225 -0.0512
    2MOL   C286 1188   3.983   3.952   2.514  0.1001 -0.2677  0.1231
    2MOL   O287 1189   4.313   3.940   2.691  0.1506 -0.1515  0.6548
    2MOL   C288 1190   4.421   3.916   2.613 -0.6292  0.6559  0.3577
    2MOL   C289 1191   4.485   4.025   2.555 -0.0570  0.4447 -0.8231
    2MOL   C290 1192   4.594   4.005   2.467  0.3672  0.2007  0.0774
    2MOL   C291 1193   4.637   3.873   2.433 -0.0873  0.0253  0.2983
    2MOL   C292 1194   4.579   3.760   2.502 -0.1056 -0.3284 -0.3795
    2MOL   C293 1195   4.472   3.781   2.589 -0.0927  0.2005  0.8041
    2MOL   C294 1196   4.748   3.843   2.335  0.1570 -0.4972  0.6955
    2MOL   C295 1197   4.746   3.719   2.267  0.2132 -0.0594  0.7848
    2MOL   C296 1198   4.844   3.688   2.174 -0.2028 -0.0280  0.2156
    2MOL   C297 1199   4.950   3.773   2.146 -0.3068 -0.5637 -0.5765
    2MOL   C298 1200   4.953   3.900   2.211  0.5578 -0.4961 -0.0459
    2MOL   C299 1201   4.847   3.934   2.295 -0.1370  0.0614 -0.4069
    2MOL   O300 1202   5.048   3.742   2.054  0.0429 -0.0017  0.5057
    2MOL   H301 1203   3.852   3.896   2.028 -0.8464 -2.3493  1.0217
    2MOL   H302 1204   3.908   3.777   2.256  1.6181  0.8638  1.6428
    2MOL   H303 1205   3.568   3.943   2.429 -1.1387 -0.0115 -0.2925
    2MOL   H304 1206   3.505   4.059   2.211  0.4216  1.1203  3.4097
    2MOL   H305 1207   3.961   3.646   2.654  3.1826 -1.8186 -0.3944
    2MOL   H306 1208   4.188   3.707   2.742  1.3570  0.6411 -0.2723
    2MOL   H307 1209   4.176   4.069   2.534  0.1495 -0.3683  0.9794
    2MOL   H308 1210   3.925   4.020   2.453  0.6975  0.6232  0.5475
    2MOL   H309 1211   4.446   4.123   2.580 -1.2960  0.1342 -1.5184
    2MOL   H310 1212   4.647   4.089   2.423 -0.6619 -0.0243 -1.6603
    2MOL   H311 1213   4.622   3.662   2.492  0.7650 -0.2508  2.3307
    2MOL   H312 1214   4.430   3.697   2.642  0.7185 -0.7217  0.0153
    2MOL   H313 1215   4.669   3.647   2.291 -0.2989  0.6099  1.1620
    2MOL   H314 1216   4.835   3.602   2.109 -1.1061  0.9049 -0.9043
    2MOL   H315 1217   5.034   3.969   2.193  0.1907 -0.2175 -0.6799
    2MOL   H316 1218   4.838   4.034   2.334 -0.8051 -0.3100  0.4148
    2MOL   C317 1219   5.083   3.830   1.957  0.0220 -0.7762  0.0851
    2MOL   C318 1220   5.214   3.887   1.938  0.0871  0.4561 -0.3684
    2MOL   C319 1221   5.241   3.973   1.826  0.2370  0.1477 -0.1111
    2MOL   C320 1222   5.135   4.012   1.748  0.8490 -0.3513 -0.9031
    2MOL   C321 1223   5.000   3.970   1.772 -0.7377 -0.2244  0.1367
    2MOL   C322 1224   4.980   3.878   1.875  0.4246 -0.2800 -0.7789
    2MOL   S323 1225   5.156   4.103   1.597  0.0311  0.1399  0.1577
    2MOL   O324 1226   5.298   4.138   1.596  0.1123  0.9128 -0.0528
    2MOL   O325 1227   5.052   4.207   1.584 -0.1684 -0.2770  0.6710
    2MOL   C326 1228   5.131   3.981   1.466  0.6262  0.0413 -0.6691
    2MOL   C327 1229   5.002   3.936   1.434 -0.4661 -0.2048 -0.3704
    2MOL   C328 1230   4.971   3.867   1.319 -0.3946 -0.3590 -0.0153
    2MOL   C329 1231   5.070   3.842   1.221 -0.0155  0.1130 -0.3594
    2MOL   C330 1232   5.205   3.878   1.258  0.5459 -0.4949 -0.3379
    2MOL   C331 1233   5.239   3.944   1.379 -0.4699 -0.2722 -0.2253
    2MOL   O332 1234   5.038   3.807   1.092 -0.2543 -0.1969  0.2629
    2MOL   C333 1235   5.096   3.886   0.997  1.1159 -0.4242  0.3922
    2MOL   C334 1236   5.176   3.823   0.899  0.3381  0.3092 -0.3149
    2MOL   C335 1237   5.238   3.898   0.796  0.1475 -0.2051  0.7073
    2MOL   C336 1238   5.217   4.037   0.800 -0.3773  0.3567 -0.4700
    2MOL   C337 1239   5.130   4.098   0.892 -0.3982  1.0297 -0.4403
    2MOL   C338 1240   5.069   4.023   0.985 -0.9096 -0.0451 -0.2912
    2MOL   C339 1241   5.281   4.134   0.704  0.2289  0.2985  0.2116
    2MOL   C340 1242   5.334   4.256   0.744 -0.1311  0.4644 -0.5478
    2MOL   C341 1243   5.386   4.354   0.655  0.0114  0.2621  0.3228
    2MOL   C342 1244   5.370   4.325   0.513 -0.2228  0.0723  0.8424
    2MOL   C343 1245   5.322   4.199   0.478  0.3632  0.4372 -0.4521
    2MOL   C344 1246   5.279   4.106   0.567 -0.2140 -0.8989 -0.0728
    2MOL   O345 1247   5.420   4.403   0.413  0.3592  0.0044 -0.3793
    2MOL   H346 1248   5.293   3.844   1.998  0.0227  1.0836  0.1701
    2MOL   H347 1249   5.344   3.995   1.801  0.3617  0.5094  0.7009
    2MOL   H348 1250   4.919   4.002   1.708  0.3239 -0.5705 -1.4151
    2MOL   H349 1251   4.878   3.844   1.888  0.2921 -0.5288 -2.3313
    2MOL   H350 1252   4.922   3.956   1.504  0.6605 -0.0939  0.8934
    2MOL   H351 1253   4.872   3.830   1.297 -1.7343  3.3657 -0.6714
    2MOL   H352 1254   5.276   3.864   1.178  1.7016  0.9964  0.4120
    2MOL   H353 1255   5.342   3.970   1.396 -1.6362  2.2650  3.3396
    2MOL   H354 1256   5.179   3.715   0.902  0.8672  0.2941 -1.3169
    2MOL   H355 1257   5.304   3.852   0.725  0.9040  1.4179  0.3191
    2MOL   H356 1258   5.110   4.202   0.872  0.0521  0.8970 -1.6428
    2MOL   H357 1259   4.995   4.064   1.052 -1.2683 -2.0084  0.5810
    2MOL   H358 1260   5.338   4.276   0.850  3.7172 -0.8621 -0.3418
    2MOL   H359 1261   5.430   4.446   0.687  0.6925  0.3082 -0.7215
    2MOL   H360 1262   5.310   4.173   0.374  1.7149 -0.7135 -0.3315
    2MOL   H361 1263   5.238   4.013   0.531  1.7003 -1.9510  0.3819
    2MOL   C362 1264   5.400   4.543   0.409 -0.1274 -0.0025 -0.0501
    2MOL   C363 1265   5.271   4.593   0.442 -0.2867 -0.1069  0.5929
    2MOL   C364 1266   5.252   4.729   0.447  0.6877 -0.5016  0.6181
    2MOL   C365 1267   5.352   4.819   0.401 -0.3619 -0.2206 -0.9640
    2MOL   C366 1268   5.477   4.771   0.363  0.2668  0.3119  0.2790
    2MOL   C367 1269   5.501   4.630   0.378  0.3474  0.6556 -0.0839
    2MOL   S368 1270   5.313   4.994   0.386 -0.1533 -0.2986  0.5764
    2MOL   O369 1271   5.386   5.044   0.268 -0.0200 -0.0606 -0.7128
    2MOL   O370 1272   5.348   5.047   0.515 -0.1119  0.1001  0.1007
    2MOL   C371 1273   5.136   5.015   0.356 -0.5659  0.3010 -0.0672
    2MOL   C372 1274   5.057   5.083   0.454  0.0564 -0.6114 -0.3280
    2MOL   C373 1275   4.923   5.118   0.427  0.0973 -0.9352  0.2543
    2MOL   C374 1276   4.867   5.082   0.302  1.0379  0.7618  0.1622
    2MOL   C375 1277   4.943   5.021   0.204 -1.2515 -0.1541  0.3548
    2MOL   C376 1278   5.080   4.987   0.230  0.2887 -0.3493  0.1704
    2MOL   O377 1279   4.737   5.113   0.283 -0.0488 -0.0690 -0.1504
    2MOL   C378 1280   4.653   5.014   0.261 -0.0862  0.9185 -0.9126
    2MOL   C379 1281   4.634   4.917   0.362 -0.2565  0.0915  0.1332
    2MOL   C380 1282   4.548   4.813   0.340 -0.2831  1.2654  0.2891
    2MOL   C381 1283   4.496   4.787   0.210 -0.4047  0.3939 -0.8111
    2MOL   C382 1284   4.525   4.880   0.111 -0.3750  0.6472  0.6009
    2MOL   C383 1285   4.597   4.994   0.136 -0.0023  0.2357 -0.1192
    2MOL   C384 1286   4.415   4.660   0.186  0.2863  0.3662 -0.8598
    2MOL   C385 1287   4.443   4.547   0.261  0.6470  0.3953 -0.0895
    2MOL   C386 1288   4.379   4.429   0.231 -0.2600  0.4309 -0.3149
    2MOL   C387 1289   4.286   4.422   0.129 -0.0106 -0.1870  0.2701
    2MOL   C388 1290   4.263   4.527   0.048  0.6455  0.0527 -0.0381
    2MOL   C389 1291   4.322   4.649   0.078 -0.0680 -0.5741  0.8716
    2MOL   O390 1292   4.213   4.307   0.120 -0.1926  0.6756  0.4562
    2MOL   H391 1293   5.204   4.512   0.470  0.8947 -1.6780 -1.0157
    2MOL   H392 1294   5.156   4.772   0.473  0.4928 -0.5834  0.0440
    2MOL   H393 1295   5.554   4.835   0.322  0.0280  1.5076  1.6768
    2MOL   H394 1296   5.601   4.593   0.356  0.8015  1.4084  0.6743
    2MOL   H395 1297   5.106   5.115   0.544 -2.7195 -1.5743  1.5644
    2MOL   H396 1298   4.867   5.161   0.509  1.5343  0.8167  0.3615
    2MOL   H397 1299   4.898   5.001   0.108 -1.0846  2.4084 -0.2838
    2MOL   H398 1300   5.137   4.938   0.152  0.6423  0.4209 -0.0633
    2MOL   H399 1301   4.673   4.933   0.461 -0.7031 -0.1835  0.3534
    2MOL   H400 1302   4.529   4.754   0.428 -1.4788  1.1945 -0.0013
    2MOL   H401 1303   4.486   4.844   0.017 -2.4705  2.6042  0.6551
    2MOL   H402 1304   4.607   5.061   0.052  0.4510  0.0228 -0.2387
    2MOL   H403 1305   4.517   4.552   0.340  0.2762 -1.8647  0.4654
    2MOL   H404 1306   4.399   4.339   0.289 -1.8850  0.0250 -0.3541
    2MOL   H405 1307   4.194   4.525   8.331  0.2799 -0.7608  0.2817
    2MOL   H406 1308   4.308   4.737   0.017  0.3810 -1.1800 -0.1007
    2MOL   C407 1309   4.187   4.256   8.362 -0.2755  0.6899  0.1006
    2MOL   C408 1310   4.052   4.258   8.314 -0.6823  0.2721 -0.0331
    2MOL   C409 1311   4.024   4.210   8.187 -0.2508 -0.4301 -0.1199
    2MOL   C410 1312   4.127   4.174   8.101 -0.4586 -0.0043  0.1435
    2MOL   C411 1313   4.265   4.172   8.149  0.2812  0.0265 -0.3386
    2MOL   C412 1314   4.290   4.213   8.278  0.0778  0.6665 -0.1251
    2MOL   S413 1315   4.080   4.121   7.935 -0.3751 -0.0735  0.6184
    2MOL   O414 1316   3.961   4.039   7.945  0.3521 -0.3696  0.1552
    2MOL   O415 1317   4.198   4.062   7.877 -0.8620  0.1322  0.1969
    2MOL   C416 1318   4.048   4.269   7.854  0.8457  0.3041  0.4416
    2MOL   C417 1319   4.103   4.391   7.892 -0.0500 -0.2914  0.1457
    2MOL   C418 1320   4.090   4.505   7.809 -0.2632 -0.1065  0.4145
    2MOL   C419 1321   4.024   4.487   7.682 -1.0648  0.2252 -1.0048
    2MOL   C420 1322   3.961   4.370   7.650 -0.2019 -0.2249 -0.6924
    2MOL   C421 1323   3.971   4.262   7.737  0.5182 -0.2342 -0.2821
    2MOL   O422 1324   4.016   4.585   7.595 -0.2461  0.3520  0.1933
    2MOL   C423 1325   4.089   4.569   7.485 -0.3673 -0.8180  0.3807
    2MOL   C424 1326   4.230   4.570   7.495  0.0664  0.5090  0.0735
    2MOL   C425 1327   4.309   4.553   7.383  0.1443 -0.1639 -0.3860
    2MOL   C426 1328   4.257   4.536   7.251  0.3009 -0.3294  0.4558
    2MOL   C427 1329   4.114   4.551   7.245 -0.4020 -0.1401 -0.2174
    2MOL   C428 1330   4.035   4.564   7.355  0.1110 -0.4349 -0.1153
    2MOL   C429 1331   4.345   4.527   7.132  0.1350 -0.6109 -0.0249
    2MOL   C430 1332   4.323   4.450   7.020  0.6013  0.1902  0.3979
    2MOL   C431 1333   4.413   4.448   6.909 -0.0932 -0.4067  0.2780
    2MOL   C432 1334   4.522   4.529   6.908  0.2932  0.0176 -0.1646
    2MOL   C433 1335   4.551   4.606   7.022 -0.2874  0.1711 -0.1938
    2MOL   C434 1336   4.463   4.605   7.133  0.3448  0.4094 -0.0033
    2MOL   O435 1337   4.597   4.525   6.796 -0.5957 -0.0265 -0.0450
    2MOL   H436 1338   3.975   4.288   0.018 -0.3669  0.4654  0.2317
    2MOL   H437 1339   3.923   4.213   8.147 -1.2703 -1.2456  2.3397
    2MOL   H438 1340   4.344   4.136   8.084  0.7353  2.9254 -1.4597
    2MOL   H439 1341   4.391   4.227   8.312  0.3453  0.8543 -0.9907
    2MOL   H440 1342   4.167   4.399   7.979  0.9953 -1.2234 -0.5170
    2MOL   H441 1343   4.136   4.601   7.829 -2.1326  0.9759 -0.3856
    2MOL   H442 1344   3.905   4.359   7.559  0.4548  3.1535 -1.5525
    2MOL   H443 1345   3.918   4.169   7.718  0.3869 -0.5005  1.2423
    2MOL   H444 1346   4.286   4.588   7.585  0.2957  0.8767 -0.1409
    2MOL   H445 1347   4.416   4.551   7.398  0.8458 -0.8430 -4.8116
    2MOL   H446 1348   4.057   4.537   7.154  0.0186  0.7602 -0.6274
    2MOL   H447 1349   3.928   4.564   7.350  0.0558 -0.3076  0.9375
    2MOL   H448 1350   4.235   4.388   7.024 -0.6076  1.9420  1.6243
    2MOL   H449 1351   4.391   4.376   6.831  1.3819  0.0171 -0.5640
    2MOL   H450 1352   4.641   4.664   7.036  0.0406  0.1233 -2.0281
    2MOL   H451 1353   4.494   4.661   7.220  0.0929  0.9219 -0.2403
    2MOL   C452 1354   4.564   4.613   6.693 -0.5220  0.9498 -0.4255
    2MOL   C453 1355   4.431   4.611   6.630 -0.2646 -0.4016  0.1405
    2MOL   C454 1356   4.402   4.711   6.532 -0.4478 -0.1225  0.2520
    2MOL   C455 1357   4.507   4.796   6.490 -0.8039  0.1717  0.7576
    2MOL   C456 1358   4.635   4.797   6.543 -0.3262 -0.3270 -0.5000
    2MOL   C457 1359   4.662   4.706   6.647  0.3704  0.9237  0.3112
    2MOL   S458 1360   4.476   4.904   6.349 -0.4047  0.0745  0.2364
    2MOL   O459 1361   4.340   4.875   6.295 -0.3563  0.3740  0.0667
    2MOL   O460 1362   4.593   4.882   6.261  0.3360  0.2104 -0.4736
    2MOL   C461 1363   4.481   5.077   6.403 -0.5697 -0.8208  0.5732
    2MOL   C462 1364   4.537   5.113   6.526 -0.5431  0.4732 -0.2254
    2MOL   C463 1365   4.531   5.247   6.563  0.4530 -0.4056 -0.0644
    2MOL   C464 1366   4.490   5.348   6.479 -0.0599  0.2778  0.7228
    2MOL   C465 1367   4.433   5.306   6.360  0.5364 -0.5155 -0.1766
    2MOL   C466 1368   4.427   5.174   6.316 -0.1281 -0.3132 -0.3355
    2MOL   O467 1369   4.491   5.479   6.501  0.5889 -0.0072 -0.0565
    2MOL   C468 1370   4.443   5.523   6.624  0.1279 -0.3697  0.0102
    2MOL   C469 1371   4.530   5.526   6.732  0.9930 -0.0128 -0.4398
    2MOL   C470 1372   4.490   5.585   6.861  0.3733 -0.6024 -0.2631
    2MOL   C471 1373   4.353   5.612   6.874  1.1647 -0.4631 -0.3709
    2MOL   C472 1374   4.269   5.611   6.763 -0.2047  0.3766  0.5208
    2MOL   C473 1375   4.308   5.569   6.636  0.2669  0.2856 -0.8630
    2MOL   C474 1376   4.297   5.643   7.010  0.0526  0.1559  0.1961
    2MOL   C475 1377   4.381   5.713   7.103 -0.0168  0.1161 -0.7208
    2MOL   C476 1378   4.334   5.731   7.234  0.1676  0.3399  0.3116
    2MOL   C477 1379   4.207   5.704   7.276  0.7870  0.6482 -0.4458
    2MOL   C478 1380   4.117   5.649   7.180  0.0688 -0.1377 -0.6044
    2MOL   C479 1381   4.165   5.624   7.048 -0.2077  0.2722  0.3064
    2MOL   O480 1382   4.169   5.722   7.408 -0.4085 -0.6009  0.0135
    2MOL   H481 1383   4.352   4.546   6.665  0.5475  0.8099  4.5868
    2MOL   H482 1384   4.308   4.712   6.479 -1.1523 -2.9388  1.3686
    2MOL   H483 1385   4.718   4.858   6.510 -0.8193  1.9159  2.2135
    2MOL   H484 1386   4.758   4.708   6.696 -0.5324  0.0962  2.1795
    2MOL   H485 1387   4.575   5.039   6.595  0.8513  0.7158 -0.7390
    2MOL   H486 1388   4.553   5.276   6.665 -1.8596 -0.3339  0.4431
    2MOL   H487 1389   4.380   5.377   6.298 -0.0865 -0.4051  0.4834
    2MOL   H488 1390   4.392   5.136   6.222  1.7804  2.0499 -2.0645
    2MOL   H489 1391   4.635   5.499   6.735  1.6832  2.6149  0.9788
    2MOL   H490 1392   4.565   5.590   6.938 -0.1643  0.2244  0.2008
    2MOL   H491 1393   4.165   5.634   6.781 -0.1259 -0.0103  1.5328
    2MOL   H492 1394   4.243   5.571   6.550 -0.1312 -0.0001 -0.5697
    2MOL   H493 1395   4.487   5.724   7.086  0.7332 -2.3816  1.8041
    2MOL   H494 1396   4.406   5.781   7.298 -1.5719 -1.5761  3.9402
    2MOL   H495 1397   4.022   5.618   7.219  0.4090 -0.5240 -0.0689
    2MOL   H496 1398   4.099   5.574   6.978 -2.4837  0.7723  2.0676
    2MOL   C497 1399   4.221   5.637   7.505 -0.1165  0.1456 -0.7219
    2MOL   C498 1400   4.339   5.654   7.573  0.6694 -0.3411  0.2246
    2MOL   C499 1401   4.390   5.566   7.668  0.1923 -0.2431 -0.1602
    2MOL   C500 1402   4.315   5.451   7.692  0.4403  0.1481 -0.3636
    2MOL   C501 1403   4.188   5.425   7.631  0.0063  0.1834 -0.1593
    2MOL   C502 1404   4.141   5.526   7.547 -0.8501  0.4260 -1.1574
    2MOL   S503 1405   4.393   5.328   7.795  0.2076  0.4810 -0.1159
    2MOL   O504 1406   4.508   5.275   7.712  0.2435 -0.4143  0.0089
    2MOL   O505 1407   4.294   5.236   7.846 -0.0464 -0.2454  0.4338
    2MOL   C506 1408   4.450   5.427   7.932 -0.2358  0.4821  0.5161
    2MOL   C507 1409   4.354   5.489   8.012  0.3017 -0.3560 -0.0802
    2MOL   C508 1410   4.393   5.572   8.114 -0.0533  0.0010 -0.3396
    2MOL   C509 1411   4.527   5.595   8.137  0.0803 -0.0672 -0.0188
    2MOL   C510 1412   4.624   5.531   8.057  0.6451  0.0479  0.8483
    2MOL   C511 1413   4.586   5.444   7.950  0.1482  0.0849 -0.1293
    2MOL   O512 1414   4.561   5.691   8.220  0.0458 -0.0663 -0.0809
    2MOL   C513 1415   4.586   5.671   8.352 -0.4398 -0.2155  0.2924
    2MOL   C514 1416   4.713   5.712   0.035 -0.4513  0.1466 -0.0604
    2MOL   C515 1417   4.742   5.700   0.171 -0.0459  0.5417 -0.4611
    2MOL   C516 1418   4.651   5.636   0.259  0.7884  1.0038  0.0757
    2MOL   C517 1419   4.531   5.588   0.205 -0.4234 -0.7717  0.3103
    2MOL   C518 1420   4.499   5.604   0.071  0.9132  0.0990 -0.2652
    2MOL   C519 1421   4.686   5.613   0.399 -0.0972  0.6749 -0.0146
    2MOL   C520 1422   4.685   5.720   0.496 -0.2635  0.8179  0.2400
    2MOL   C521 1423   4.714   5.696   0.631 -0.9263 -0.4092 -0.9505
    2MOL   C522 1424   4.754   5.565   0.669 -0.2982 -0.2275 -0.4390
    2MOL   C523 1425   4.760   5.461   0.573  0.3490 -0.1004 -0.5933
    2MOL   C524 1426   4.724   5.486   0.446  0.5651 -0.4331 -0.6622
    2MOL   O525 1427   4.796   5.537   0.798 -0.2375 -0.0178  0.0783
    2MOL   H526 1428   4.392   5.744   7.548  3.4754 -2.1424 -0.5889
    2MOL   H527 1429   4.488   5.573   7.713  0.2504 -2.2991  0.1017
    2MOL   H528 1430   4.134   5.332   7.646  3.7037 -1.9902  0.1250
    2MOL   H529 1431   4.035   5.523   7.523 -0.8930  1.5913 -1.1346
    2MOL   H530 1432   4.252   5.463   7.987 -0.9935  0.5820  3.8646
    2MOL   H531 1433   4.317   5.622   8.173 -0.4209 -4.1981  3.0525
    2MOL   H532 1434   4.729   5.548   8.076  0.4515  0.3666  1.6798
    2MOL   H533 1435   4.669   5.404   7.894  0.8359  0.0522  0.8802
    2MOL   H534 1436   4.779   5.760   8.330 -0.1658  1.6872  1.2112
    2MOL   H535 1437   4.831   5.739   0.218 -1.7633  1.5702  2.0802
    2MOL   H536 1438   4.470   5.533   0.276  0.1602 -1.5097  0.2359
    2MOL   H537 1439   4.412   5.554   0.030  0.6225  0.3970 -0.0215
    2MOL   H538 1440   4.642   5.816   0.471 -1.2023  0.4968  0.6133
    2MOL   H539 1441   4.706   5.771   0.709 -0.3148 -0.1563 -1.1299
    2MOL   H540 1442   4.781   5.360   0.605 -1.3640 -0.1621  0.3483
    2MOL   H541 1443   4.729   5.401   0.379  3.5467 -1.4376  0.7876
    2MOL   C542 1444   4.708   5.564   0.898 -0.0055 -0.6147  0.1993
    2MOL   C543 1445   4.607   5.471   0.922 -0.0699  0.3360 -0.1773
    2MOL   C544 1446   4.513   5.501   1.019 -0.1820 -0.2013  0.3228
    2MOL   C545 1447   4.515   5.623   1.084 -0.7103 -0.1681  0.4651
    2MOL   C546 1448   4.618   5.715   1.058 -0.6700 -0.6401  0.8567
    2MOL   C547 1449   4.725   5.686   0.969  0.0324 -0.3427 -0.0931
    2MOL   S548 1450   4.363   5.668   1.177  0.2850  0.3191 -0.3819
    2MOL   O549 1451   4.390   5.787   1.260 -0.1719 -0.5589 -0.2452
    2MOL   O550 1452   4.317   5.548   1.243  0.1217 -0.4603 -0.8911
    2MOL   C551 1453   4.240   5.712   1.060  0.6474  0.4117  0.7381
    2MOL   C552 1454   4.164   5.830   1.074  0.6425  1.1662  0.3160
    2MOL   C553 1455   4.049   5.850   0.995 -0.5870 -0.4694  0.4656
    2MOL   C554 1456   4.007   5.748   0.901 -0.1887  0.2460  0.1820
    2MOL   C555 1457   4.089   5.637   0.883 -0.0181  0.3576 -0.1630
    2MOL   C556 1458   4.201   5.619   0.963  0.7053 -0.2939 -0.0442
    2MOL   O557 1459   3.884   5.749   0.844 -0.2226  0.1243 -0.7339
    2MOL   C558 1460   3.814   5.865   0.855 -0.3452  0.0343  0.1293
    2MOL   C559 1461   3.707   5.879   0.946  0.0799  0.0922  0.1392
    2MOL   C560 1462   3.634   6.002   0.959 -0.3846  0.2772 -0.3540
    2MOL   C561 1463   3.677   6.117   0.897 -0.1123 -0.0211 -0.0801
    2MOL   C562 1464   3.800   6.109   0.822 -0.1717 -0.3793 -1.0638
    2MOL   C563 1465   3.860   5.986   0.789  0.7514  0.7385  0.4940
    2MOL   C564 1466   3.602   6.245   0.901 -0.3564  0.8535  0.9672
    2MOL   C565 1467   3.668   6.374   0.918  0.8961 -0.5769  0.0976
    2MOL   C566 1468   3.591   6.494   0.914 -0.2092 -0.3243  0.7920
    2MOL   C567 1469   3.455   6.495   0.871  0.1107 -0.0385  0.4206
    2MOL   C568 1470   3.393   6.372   0.836  0.0554 -0.1465 -0.3068
    2MOL   C569 1471   3.466   6.250   0.863 -0.1690 -0.5004 -0.7731
    2MOL   O570 1472   3.389   6.607   0.838 -0.0581 -0.4260 -0.7187
    2MOL   H571 1473   4.598   5.377   0.870  0.5042  0.3235 -0.2502
    2MOL   H572 1474   4.435   5.431   1.045 -2.0006  1.3439 -0.8650
    2MOL   H573 1475   4.604   5.805   1.116  0.3378  0.5879 -0.8040
    2MOL   H574 1476   4.804   5.757   0.952  0.2636 -0.4441  0.5688
    2MOL   H575 1477   4.189   5.901   1.152  3.4921 -0.5800  1.0820
    2MOL   H576 1478   3.986   5.935   1.015 -2.1977 -0.2476 -4.8345
    2MOL   H577 1479   4.066   5.551   0.822  2.5162 -0.4210 -0.0831
    2MOL   H578 1480   4.243   5.520   0.965 -0.2701 -0.7248 -0.7306
    2MOL   H579 1481   3.672   5.787   0.991 -0.6637  0.1916 -0.2281
    2MOL   H580 1482   3.547   6.005   1.022 -0.1097  0.1001  0.0382
    2MOL   H581 1483   3.826   6.200   0.770  1.7302  0.2981  0.9515
    2MOL   H582 1484   3.950   5.992   0.729  0.6654 -3.7658 -0.2935
    2MOL   H583 1485   3.774   6.386   0.938  0.6127 -2.3851  2.9333
    2MOL   H584 1486   3.636   6.590   0.931  0.7756 -0.3385 -1.6017
    2MOL   H585 1487   3.290   6.374   0.804 -0.7080 -1.5555  1.9489
    2MOL   H586 1488   3.414   6.156   0.854 -1.0136 -0.0818 -0.3804
    2MOL   C587 1489   3.351   6.640   0.710 -0.7126  0.5845  0.2630
    2MOL   C588 1490   3.434   6.630   0.596 -0.0770 -0.2567  0.0546
    2MOL   C589 1491   3.385   6.677   0.472 -0.2691 -0.5471  0.1273
    2MOL   C590 1492   3.265   6.745   0.471  0.6595 -0.4432  0.3392
    2MOL   C591 1493   3.179   6.757   0.583  0.7372  0.4146  0.4004
    2MOL   C592 1494   3.222   6.695   0.701  0.6862 -0.2224  0.3325
    2MOL   S593 1495   3.212   6.824   0.320 -0.2250 -0.0617  0.4041
    2MOL   O594 1496   3.319   6.798   0.218  0.6843 -0.5726 -0.0254
    2MOL   O595 1497   3.167   6.962   0.354 -0.4746 -0.3209 -0.1167
    2MOL   C596 1498   3.070   6.734   0.249 -0.8303  0.2765 -0.1978
    2MOL   C597 1499   3.074   6.597   0.232  0.4625 -0.5175 -0.4453
    2MOL   C598 1500   2.955   6.524   0.201  0.3243 -0.4918  0.2151
    2MOL   C599 1501   2.836   6.593   0.174 -0.0822  0.4260 -0.7724
    2MOL   C600 1502   2.830   6.733   0.191 -0.5073  0.1539 -0.5562
    2MOL   C601 1503   2.946   6.797   0.235  0.1175  0.6133  0.5095
    2MOL   O602 1504   2.726   6.523   0.136 -0.3921 -0.1827 -0.1062
    2MOL   C603 1505   2.735   6.416   0.060 -0.1270  0.2823  1.1428
    2MOL   C604 1506   2.786   6.431   8.293 -0.1144  0.2131  0.4498
    2MOL   C605 1507   2.811   6.314   8.213  0.0729 -0.0992  0.3346
    2MOL   C606 1508   2.789   6.181   8.261  0.1541  0.3277  0.8668
    2MOL   C607 1509   2.730   6.176   0.020 -0.2727  0.8511  0.5735
    2MOL   C608 1510   2.702   6.284   0.105  0.6853  0.0877  0.1245
    2MOL   C609 1511   2.836   6.059   8.184 -0.0321 -0.8500 -0.6499
    2MOL   C610 1512   2.830   6.048   8.042 -0.1884  0.5503  0.7640
    2MOL   C611 1513   2.857   5.929   7.971  0.0393 -0.4896  0.2883
    2MOL   C612 1514   2.887   5.814   8.044  0.4911  0.2536 -0.0997
    2MOL   C613 1515   2.886   5.814   8.186 -0.4219  0.2429 -0.1157
    2MOL   C614 1516   2.857   5.936   8.253 -0.0308 -0.5030  0.0947
    2MOL   O615 1517   2.922   5.703   7.976  0.0575  0.4126  0.6026
    2MOL   H616 1518   3.526   6.573   0.591  1.1500  1.5079  1.7900
    2MOL   H617 1519   3.444   6.670   0.382  1.4029 -0.7888  1.2207
    2MOL   H618 1520   3.087   6.812   0.571  2.0519  2.3419 -1.0605
    2MOL   H619 1521   3.151   6.684   0.781  1.3493 -0.8849  0.8431
    2MOL   H620 1522   3.170   6.554   0.257  0.0551 -2.0423 -1.3870
    2MOL   H621 1523   2.966   6.417   0.196 -0.6893 -0.5394 -1.1758
    2MOL   H622 1524   2.736   6.781   0.169  0.6827  2.4004 -0.9318
    2MOL   H623 1525   2.950   6.903   0.256 -2.5307  1.3315 -2.2079
    2MOL   H624 1526   2.783   6.530   8.250 -2.2769 -0.0707 -0.0809
    2MOL   H625 1527   2.848   6.338   8.115 -0.1298  2.0812  0.7629
    2MOL   H626 1528   2.702   6.079   0.059 -1.9367  0.8538 -0.5827
    2MOL   H627 1529   2.663   6.260   0.202 -0.0803 -0.3888 -0.2973
    2MOL   H628 1530   2.806   6.136   7.983  0.2801  0.0586 -0.1844
    2MOL   H629 1531   2.869   5.938   7.864  0.6633  0.2816  0.4135
    2MOL   H630 1532   2.908   5.725   8.243 -0.3087  0.1158 -0.3563
    2MOL   H631 1533   2.858   5.937   8.361 -0.3867  2.2243  0.1077
    2MOL   C632 1534   3.030   5.702   7.892 -0.1780  0.6584  0.2698
    2MOL   C633 1535   3.148   5.753   7.949  0.0988 -0.5858  1.1262
    2MOL   C634 1536   3.264   5.774   7.868 -0.1350  0.0644 -0.2296
    2MOL   C635 1537   3.254   5.754   7.730 -0.6017  0.1066  0.1226
    2MOL   C636 1538   3.140   5.695   7.677  0.5476 -0.0611 -0.5682
    2MOL   C637 1539   3.020   5.679   7.753  0.5391  0.0767 -0.1134
    2MOL   S638 1540   3.394   5.776   7.633 -0.3308  0.0844  0.1722
    2MOL   O639 1541   3.462   5.644   7.615  0.8645  0.0900  0.7322
    2MOL   O640 1542   3.482   5.876   7.698  0.5664 -0.3910 -0.0957
    2MOL   C641 1543   3.327   5.827   7.478  0.1487 -0.1114 -0.1712
    2MOL   C642 1544   3.244   5.937   7.479  0.2741 -0.0292  0.4528
    2MOL   C643 1545   3.186   5.974   7.355 -0.2336 -0.1270  0.3292
    2MOL   C644 1546   3.222   5.913   7.232 -0.1202 -0.3740 -0.3434
    2MOL   C645 1547   3.312   5.804   7.231  0.4786 -0.1810 -0.2336
    2MOL   C646 1548   3.367   5.759   7.353 -0.2100  0.3345  0.0290
    2MOL   O647 1549   3.159   5.957   7.121  0.2224  0.2708  0.1712
    2MOL   C648 1550   3.228   5.960   7.007 -0.1493 -0.1134  0.6167
    2MOL   C649 1551   3.196   5.869   6.906  0.3368 -0.1381 -0.7816
    2MOL   C650 1552   3.269   5.871   6.788  0.4050  0.6407 -0.6591
    2MOL   C651 1553   3.363   5.976   6.766 -0.3087  0.1317 -0.0584
    2MOL   C652 1554   3.381   6.075   6.868  0.5070 -0.2335  0.4139
    2MOL   C653 1555   3.322   6.063   6.993 -0.5089  0.1578 -0.0369
    2MOL   C654 1556   3.450   5.974   6.646  0.5220  0.0278 -0.3223
    2MOL   C655 1557   3.520   6.092   6.609  1.0900  0.7649  0.0372
    2MOL   C656 1558   3.606   6.089   6.494  0.7362 -0.2279 -0.6865
    2MOL   C657 1559   3.616   5.976   6.416 -0.1604  0.1179  0.4161
    2MOL   C658 1560   3.546   5.864   6.448  0.7234 -0.0008 -0.0369
    2MOL   C659 1561   3.469   5.860   6.564  0.0799 -0.3431 -0.0189
    2MOL   O660 1562   3.699   5.968   6.311  0.1728 -0.3971 -0.2264
    2MOL   H661 1563   3.157   5.771   8.055  2.6091 -1.3870  1.0843
    2MOL   H662 1564   3.360   5.808   7.902 -0.4811  1.1028 -0.2841
    2MOL   H663 1565   3.144   5.663   7.573 -1.3790  1.2245 -1.0592
    2MOL   H664 1566   2.930   5.636   7.712  0.1846 -0.3427  1.0740
    2MOL   H665 1567   3.217   5.986   7.571 -0.3672 -1.2794  0.9300
    2MOL   H666 1568   3.116   6.057   7.364 -2.9227 -2.0864 -1.6548
    2MOL   H667 1569   3.358   5.774   7.138  2.9702  2.4466  0.0872
    2MOL   H668 1570   3.448   5.688   7.363  0.8170  1.1518 -2.1222
    2MOL   H669 1571   3.131   5.787   6.933  0.4024 -0.2508 -0.9602
    2MOL   H670 1572   3.251   5.785   6.725 -0.4212  0.2080  0.1617
    2MOL   H671 1573   3.458   6.151   6.860 -0.9904  1.4557  1.5741
    2MOL   H672 1574   3.323   6.143   7.065 -2.8958 -0.6033  0.8953
    2MOL   H673 1575   3.498   6.180   6.668 -2.1062 -0.2224  0.4248
    2MOL   H674 1576   3.675   6.167   6.466 -0.8265  2.3489  2.2781
    2MOL   H675 1577   3.552   5.774   6.389 -1.7637 -0.5449  0.5011
    2MOL   H676 1578   3.425   5.764   6.586  1.5531 -0.2327  3.8897
    2MOL   C677 1579   3.835   5.982   6.342 -0.3173 -0.8456 -0.0422
    2MOL   C678 1580   3.916   6.033   6.240 -0.4021 -0.4391  0.2854
    2MOL   C679 1581   4.053   6.075   6.272  0.0172 -0.3029  0.1710
    2MOL   C680 1582   4.097   6.061   6.404  0.4496  0.0795 -0.6088
    2MOL   C681 1583   4.018   5.996   6.504  0.3932  0.0979  0.3078
    2MOL   C682 1584   3.883   5.962   6.472 -0.4045 -0.0100 -0.1201
    2MOL   S683 1585   4.263   6.118   6.451  0.8327  0.0711 -0.1170
    2MOL   O684 1586   4.355   6.099   6.337  1.2434  0.3668 -0.7674
    2MOL   O685 1587   4.306   6.061   6.581 -0.1389  0.0199 -0.4564
    2MOL   C686 1588   4.251   6.294   6.473  0.6021 -0.1540  0.1236
    2MOL   C687 1589   4.225   6.345   6.605  0.6214 -0.1257 -0.6047
    2MOL   C688 1590   4.213   6.484   6.625 -0.8153  0.2872 -0.4330
    2MOL   C689 1591   4.222   6.565   6.510  0.0460 -0.5315  0.1300
    2MOL   C690 1592   4.223   6.512   6.378 -0.1902  0.4071 -0.2037
    2MOL   C691 1593   4.255   6.378   6.357  0.7001 -0.5406  0.0562
    2MOL   O692 1594   4.222   6.700   6.525 -0.1973 -0.1722  0.0846
    2MOL   C693 1595   4.150   6.759   6.621 -0.3023  0.7025  0.0908
    2MOL   C694 1596   4.012   6.742   6.622 -0.8097 -0.5104  0.2169
    2MOL   C695 1597   3.937   6.816   6.720  0.3124  0.1534  0.3963
    2MOL   C696 1598   3.992   6.892   6.818  0.4499 -0.3564  0.2945
    2MOL   C697 1599   4.134   6.904   6.814  0.2950  0.7175 -0.0219
    2MOL   C698 1600   4.214   6.842   6.711  0.2337  0.3197 -0.0161
    2MOL   C699 1601   3.909   6.958   6.924 -0.9637  0.0477 -0.2285
    2MOL   C700 1602   3.914   6.928   7.060  0.2028 -0.1231 -0.2032
    2MOL   C701 1603   3.824   6.978   7.154 -0.1791 -0.3504  0.8761
    2MOL   C702 1604   3.722   7.067   7.111 -0.0918  0.6046 -0.3937
    2MOL   C703 1605   3.720   7.107   6.977 -0.5113 -0.0442  0.3715
    2MOL   C704 1606   3.813   7.048   6.881  0.0459 -0.0303 -0.2849
    2MOL   O705 1607   3.629   7.110   7.205  0.0927  0.2970  0.2889
    2MOL   H706 1608   3.873   6.054   6.143 -3.0139 -0.5252  1.3691
    2MOL   H707 1609   4.126   6.110   6.201  1.0500  1.1981  1.9292
    2MOL   H708 1610   4.062   5.972   6.600  1.1835  1.8136  0.3878
    2MOL   H709 1611   3.821   5.915   6.547 -1.8414  0.0368 -1.2428
    2MOL   H710 1612   4.218   6.277   6.689  0.2839  0.1259 -0.4293
    2MOL   H711 1613   4.196   6.523   6.724 -0.4906 -2.5383  0.7897
    2MOL   H712 1614   4.238   6.580   6.295  3.2746  1.9250  1.5267
    2MOL   H713 1615   4.281   6.327   6.266  0.4292 -1.5118  0.5194
    2MOL   H714 1616   3.965   6.680   6.547 -0.9838 -0.4362  0.2622
    2MOL   H715 1617   3.830   6.809   6.711  0.1686  0.5680  1.7523
    2MOL   H716 1618   4.179   6.982   6.874 -2.0354  1.6372  0.5566
    2MOL   H717 1619   4.320   6.863   6.702 -0.0506  1.5597 -0.5152
    2MOL   H718 1620   3.986   6.854   7.094  2.6861  1.5571 -1.5786
    2MOL   H719 1621   3.832   6.939   7.255 -0.3746 -0.3238  0.9020
    2MOL   H720 1622   3.636   7.161   6.937  0.9633  1.7252 -0.4130
    2MOL   H721 1623   3.807   7.071   6.775  1.8177  0.4214 -0.3136
    2MOL   C722 1624   3.537   7.015   7.244 -0.3424  0.7127  0.2765
    2MOL   C723 1625   3.518   6.997   7.382 -0.0642  0.0100  0.0998
    2MOL   C724 1626   3.408   6.914   7.426 -0.0580 -0.0669  0.1786
    2MOL   C725 1627   3.333   6.834   7.335 -0.1575 -0.0998  0.2689
    2MOL   C726 1628   3.349   6.850   7.197  0.0679 -0.1995  0.2807
    2MOL   C727 1629   3.451   6.939   7.155  0.6487 -0.1946 -0.3889
    2MOL   S728 1630   3.218   6.723   7.405  0.2298  0.1614  0.0410
    2MOL   O729 1631   3.249   6.702   7.547 -0.0787 -0.5974 -0.1081
    2MOL   O730 1632   3.197   6.615   7.311  0.2358 -0.4028 -0.1357
    2MOL   C731 1633   3.065   6.807   7.417  0.3017 -0.5135  0.1387
    2MOL   C732 1634   2.943   6.733   7.426  0.3092  0.3064  0.6497
    2MOL   C733 1635   2.815   6.799   7.422 -1.1043  1.1109 -0.3854
    2MOL   C734 1636   2.810   6.935   7.410 -0.3368 -0.4518 -0.1829
    2MOL   C735 1637   2.928   7.006   7.415  0.0379 -0.0759 -0.1804
    2MOL   C736 1638   3.055   6.948   7.412  1.0126  0.3850 -0.3292
    2MOL   O737 1639   2.692   6.997   7.394  0.3099 -0.0423 -0.7148
    2MOL   C738 1640   2.596   6.995   7.503 -0.3675 -0.3156 -0.4056
    2MOL   C739 1641   2.464   6.995   7.461 -0.0846  0.5471  0.0898
    2MOL   C740 1642   2.363   7.004   7.557  0.8001  0.0177  0.2340
    2MOL   C741 1643   2.390   7.028   7.692 -0.2926 -0.0689  0.0159
    2MOL   C742 1644   2.526   7.013   7.734 -0.0372 -0.1555  0.1382
    2MOL   C743 1645   2.633   6.994   7.641  0.5746  0.6240  0.2199
    2MOL   C744 1646   2.278   7.066   7.790  0.7410 -0.1817  0.5464
    2MOL   C745 1647   2.148   7.099   7.745  0.0419 -0.8492  0.1593
    2MOL   C746 1648   2.047   7.137   7.832 -0.1676 -0.0318  0.8917
    2MOL   C747 1649   2.078   7.160   7.964 -0.0721  0.0979 -0.0694
    2MOL   C748 1650   2.206   7.129   8.015 -0.0370 -0.5742  1.3241
    2MOL   C749 1651   2.307   7.086   7.926  0.0431 -0.6102 -0.3263
    2MOL   O750 1652   1.990   7.217   8.051 -0.4995 -0.0794  0.3526
    2MOL   H751 1653   3.578   7.048   7.456  0.7108 -1.6186  0.6148
    2MOL   H752 1654   3.393   6.891   7.530 -0.3271  1.4759  0.4895
    2MOL   H753 1655   3.277   6.806   7.131 -0.4769  2.0550 -0.6943
    2MOL   H754 1656   3.472   6.950   7.050 -1.3257 -0.1864 -0.7910
    2MOL   H755 1657   2.944   6.626   7.438  1.9473  0.4149  1.5646
    2MOL   H756 1658   2.717   6.754   7.432 -0.3175 -0.3962  0.5213
    2MOL   H757 1659   2.919   7.113   7.405 -0.3462 -0.1157 -0.2857
    2MOL   H758 1660   3.146   7.006   7.408  1.6805 -0.5382  0.9599
    2MOL   H759 1661   2.428   6.997   7.359  0.1474 -2.6758 -0.0939
    2MOL   H760 1662   2.263   7.016   7.519  1.1059  1.9169 -0.0342
    2MOL   H761 1663   2.554   7.009   7.838  0.0172 -2.9452  0.0298
    2MOL   H762 1664   2.733   6.974   7.677  0.2172  1.2599  1.5999
    2MOL   H763 1665   2.126   7.105   7.639  0.0350  0.2871  0.2234
    2MOL   H764 1666   1.950   7.155   7.788 -0.2999 -0.4261  1.0237
    2MOL   H765 1667   2.238   7.141   8.117  0.6908 -1.3410  1.1907
    2MOL   H766 1668   2.406   7.088   7.969 -0.3015  3.0037  0.4596
    2MOL   C767 1669   1.901   7.134   8.122 -0.9392 -0.0173  0.4963
    2MOL   C768 1670   1.770   7.139   8.078  0.6073 -0.5380  0.5993
    2MOL   C769 1671   1.674   7.061   8.146 -0.3166 -0.2747  0.3134
    2MOL   C770 1672   1.712   6.990   8.264 -0.1355  0.0497  0.1794
    2MOL   C771 1673   1.848   6.992   8.310 -0.2843  0.1530 -0.2784
    2MOL   C772 1674   1.947   7.047   8.227  0.5735 -0.2440  0.2160
    2MOL   S773 1675   1.591   6.898   8.356 -0.4664  0.3726 -0.0894
    2MOL   O774 1676   1.467   6.896   8.283  0.1466 -0.3659  0.5380
    2MOL   O775 1677   1.605   6.941   0.129 -0.0987  0.1113  0.2043
    2MOL   C776 1678   1.666   6.732   8.345  0.7174 -0.4584  1.0300
    2MOL   C777 1679   1.713   6.669   0.095  0.0948  0.2341  0.1754
    2MOL   C778 1680   1.742   6.531   0.086  0.7618  0.2681  0.1660
    2MOL   C779 1681   1.751   6.473   8.325  0.1782  0.1715 -0.2029
    2MOL   C780 1682   1.703   6.539   8.206  0.1505 -0.0480  0.3430
    2MOL   C781 1683   1.655   6.670   8.217 -0.3759  0.1166  0.2817
    2MOL   O782 1684   1.792   6.340   8.313  0.3568 -0.3244 -0.1085
    2MOL   C783 1685   1.828   6.288   8.189  0.9738  0.1940 -0.0433
    2MOL   C784 1686   1.771   6.170   8.149 -0.4866  0.4885 -0.3519
    2MOL   C785 1687   1.804   6.122   8.019  0.1115 -0.5337  0.2478
    2MOL   C786 1688   1.876   6.200   7.925  0.2092 -0.1104 -0.7100
    2MOL   C787 1689   1.937   6.319   7.975 -0.0935  0.9787  0.4412
    2MOL   C788 1690   1.916   6.360   8.105 -0.2098  0.4209  0.3492
    2MOL   C789 1691   1.880   6.157   7.784  0.4701 -0.3031 -0.4764
    2MOL   C790 1692   1.987   6.173   7.692 -0.7856  0.4523  0.4002
    2MOL   C791 1693   1.980   6.139   7.557 -0.3068 -0.4876 -0.3510
    2MOL   C792 1694   1.872   6.073   7.501 -0.3094  0.0760 -0.1579
    2MOL   C793 1695   1.760   6.053   7.591  0.2732  0.1566  0.7698
    2MOL   C794 1696   1.766   6.100   7.726 -0.3436  0.1210 -0.0471
    2MOL   O795 1697   1.875   6.038   7.367 -0.4110 -0.0064  1.5150
    2MOL   H796 1698   1.740   7.194   7.990 -0.3605 -0.8194  0.7501
    2MOL   H797 1699   1.572   7.060   8.111 -0.1078 -1.8622 -0.2890
    2MOL   H798 1700   1.871   6.937   0.035 -1.1869  0.4387  0.1174
    2MOL   H799 1701   2.049   7.036   8.258  0.3198 -0.5665  0.9529
    2MOL   H800 1702   1.713   6.717   0.192 -0.8349  0.8101 -0.1036
    2MOL   H801 1703   1.759   6.470   0.174 -1.3927  0.9365  1.0617
    2MOL   H802 1704   1.700   6.490   8.110  0.0617  4.3620 -2.0454
    2MOL   H803 1705   1.595   6.725   8.146 -0.0343 -0.3301 -0.3581
    2MOL   H804 1706   1.707   6.112   8.214 -0.2145  0.3258 -0.2308
    2MOL   H805 1707   1.775   6.021   7.995 -2.0048  0.1822 -0.2577
    2MOL   H806 1708   1.987   6.380   7.900  0.2173  1.1036  0.7461
    2MOL   H807 1709   1.956   6.452   8.146 -0.4903  0.8244 -0.2647
    2MOL   H808 1710   2.081   6.222   7.715 -0.5952  0.9519 -1.3922
    2MOL   H809 1711   2.068   6.162   7.498 -0.2740 -0.5957 -0.3437
    2MOL   H810 1712   1.672   5.997   7.560  1.1911 -0.8091 -0.1542
    2MOL   H811 1713   1.679   6.080   7.786 -0.3430  0.2675  0.0011
    2MOL   C812 1714   1.781   5.944   7.334  0.6602 -0.4041  1.0834
    2MOL   C813 1715   1.821   5.808   7.337  0.5365  0.5091 -0.3431
    2MOL   C814 1716   1.735   5.703   7.302 -0.6972  0.0640 -0.8805
    2MOL   C815 1717   1.607   5.736   7.252  0.3265 -0.1548 -0.0253
    2MOL   C816 1718   1.567   5.873   7.253 -0.7689 -0.2530  0.0040
    2MOL   C817 1719   1.651   5.979   7.292 -0.0721 -0.0941  0.7440
    2MOL   S818 1720   1.492   5.595   7.220 -0.0333 -0.1642 -0.1952
    2MOL   O819 1721   1.378   5.607   7.313  0.1548  0.8257 -0.0733
    2MOL   O820 1722   1.568   5.468   7.235  0.0091 -0.4788  0.0589
    2MOL   C821 1723   1.447   5.603   7.050 -0.1911 -0.4004 -0.2860
    2MOL   C822 1724   1.308   5.605   7.020 -0.2960 -0.3628  0.4207
    2MOL   C823 1725   1.269   5.591   6.888  0.5066 -0.0761  0.3787
    2MOL   C824 1726   1.364   5.594   6.786 -0.3980 -0.4416  0.4051
    2MOL   C825 1727   1.502   5.595   6.820 -0.0885 -0.1834  0.2735
    2MOL   C826 1728   1.543   5.590   6.954  1.4041  0.3165  0.4968
    2MOL   O827 1729   1.321   5.608   6.656 -0.4102  0.2428  0.1588
    2MOL   C828 1730   1.326   5.493   6.579 -0.6527  0.3058  0.8990
    2MOL   C829 1731   1.425   5.477   6.477 -0.1975  0.3530 -0.1657
    2MOL   C830 1732   1.443   5.363   6.400 -0.0067 -0.5371  0.1487
    2MOL   C831 1733   1.355   5.254   6.408  0.3009  0.3950  0.2049
    2MOL   C832 1734   1.249   5.268   6.503  0.4260 -0.4115  0.2245
    2MOL   C833 1735   1.234   5.382   6.591  0.0598 -0.1051 -0.3014
    2MOL   C834 1736   1.378   5.132   6.332  0.0141 -0.3781 -0.4198
    2MOL   C835 1737   1.374   5.001   6.399  0.1379  0.0948  0.0819
    2MOL   C836 1738   1.400   4.884   6.337  0.0201 -0.3072 -0.1909
    2MOL   C837 1739   1.431   4.886   6.202 -1.0569  0.5747  0.6776
    2MOL   C838 1740   1.435   5.008   6.124 -0.3383 -0.0955  0.4762
    2MOL   C839 1741   1.415   5.130   6.194  0.6978 -0.1764  0.2446
    2MOL   O840 1742   1.453   4.770   6.127  0.4818 -0.0691 -0.4027
    2MOL   H841 1743   1.920   5.785   7.373 -0.4586 -0.4533  1.8466
    2MOL   H842 1744   1.752   5.598   7.320 -1.6045  0.3002  1.6141
    2MOL   H843 1745   1.469   5.890   7.211 -0.9475 -0.9114  0.1555
    2MOL   H844 1746   1.626   6.084   7.287 -2.1634 -0.5408  1.4530
    2MOL   H845 1747   1.242   5.618   7.104  0.0123  1.1793  0.4313
    2MOL   H846 1748   1.167   5.595   6.853  0.7083  0.7294 -0.1167
    2MOL   H847 1749   1.575   5.616   6.744 -1.2138  0.2344 -0.7085
    2MOL   H848 1750   1.642   5.585   6.998  1.0743 -2.1640  1.0306
    2MOL   H849 1751   1.494   5.558   6.460  0.4788  0.6399  3.5599
    2MOL   H850 1752   1.517   5.356   6.321  0.9602  0.5088  0.9506
    2MOL   H851 1753   1.184   5.183   6.514 -0.1495  0.0519  0.4480
    2MOL   H852 1754   1.157   5.368   6.666  0.5444  0.8095  0.3803
    2MOL   H853 1755   1.349   4.990   6.503 -1.8560 -0.3755 -0.4289
    2MOL   H854 1756   1.393   4.790   6.390  0.2357  0.7553  1.7724
    2MOL   H855 1757   1.458   5.012   6.019  1.5108  2.3734  0.9280
    2MOL   H856 1758   1.427   5.218   6.133 -2.2821  0.0039 -0.1404
    2MOL   C857 1759   1.349   4.726   6.047 -0.0485 -0.8044  0.3676
    2MOL   C858 1760   1.234   4.675   6.108 -0.6543  0.3638  0.2605
    2MOL   C859 1761   1.133   4.622   6.023 -0.7941  0.5924 -0.0736
    2MOL   C860 1762   1.145   4.636   5.886  0.1542 -0.5028  0.5535
    2MOL   C861 1763   1.262   4.678   5.821 -0.4564 -0.1022  0.2429
    2MOL   C862 1764   1.365   4.729   5.907  0.3638 -0.0306  0.3384
    2MOL   S863 1765   1.011   4.572   5.777 -0.1174 -0.3031 -0.3672
    2MOL   O864 1766   0.925   4.481   5.854  0.2773 -0.1448 -0.0679
    2MOL   O865 1767   1.080   4.521   5.657 -0.2729  0.2208 -0.6644
    2MOL   C866 1768   0.909   4.711   5.723 -0.4878 -0.4799 -0.1928
    2MOL   C867 1769   0.775   4.689   5.695 -0.3062 -0.5922  0.6499
    2MOL   C868 1770   0.696   4.800   5.654  0.1371 -0.3790  0.0633
    2MOL   C869 1771   0.755   4.926   5.634  1.0404 -0.6150  0.0911
    2MOL   C870 1772   0.890   4.945   5.661 -0.1861  0.3429  1.1128
    2MOL   C871 1773   0.972   4.840   5.702 -0.1541  0.0367  0.2057
    2MOL   O872 1774   0.672   5.034   5.618  0.3861 -0.0937  0.1195
    2MOL   C873 1775   0.611   5.050   5.497 -0.3777  0.5559 -0.1408
    2MOL   C874 1776   0.510   5.147   5.484  0.4115 -0.3911  0.2860
    2MOL   C875 1777   0.445   5.170   5.360 -0.1142 -0.0756  0.6713
    2MOL   C876 1778   0.477   5.095   5.249 -0.0684 -0.5204  0.5437
    2MOL   C877 1779   0.572   4.990   5.261 -0.0930  0.1878  0.0867
    2MOL   C878 1780   0.644   4.969   5.382 -0.2689  0.1800 -0.2674
    2MOL   C879 1781   0.396   5.109   5.122 -0.6402  0.5781  0.0737
    2MOL   C880 1782   0.356   5.239   5.082  0.7460  0.2322 -0.1370
    2MOL   C881 1783   0.268   5.249   4.976  1.3246  0.4133 -0.0144
    2MOL   C882 1784   0.223   5.139   4.900  0.2112 -0.4089 -0.7020
    2MOL   C883 1785   0.274   5.010   4.929  0.7666 -0.2883  0.3028
    2MOL   C884 1786   0.352   4.996   5.047 -0.1704 -0.1184  0.3739
    2MOL   O885 1787   0.136   5.167   4.797 -0.2201  0.1177  0.7157
    2MOL   H886 1788   1.226   4.686   6.215 -0.9780 -3.1552  0.6475
    2MOL   H887 1789   1.041   4.585   6.066  0.0339 -1.7699 -0.2585
    2MOL   H888 1790   1.265   4.671   5.713  2.8064 -1.1001  0.3541
    2MOL   H889 1791   1.455   4.773   5.865 -0.0772  1.3480  0.7962
    2MOL   H890 1792   0.728   4.594   5.717 -2.7516  0.3588 -0.3630
    2MOL   H891 1793   0.594   4.791   5.621 -0.3833  1.4674  1.1176
    2MOL   H892 1794   0.927   5.046   5.655  0.0096  0.2100 -0.1377
    2MOL   H893 1795   1.079   4.849   5.717 -0.4665  1.9723  1.4038
    2MOL   H894 1796   0.483   5.200   5.575  0.8589 -0.3820  0.4144
    2MOL   H895 1797   0.368   5.246   5.359 -0.4776 -0.4514  0.2508
    2MOL   H896 1798   0.589   4.922   5.180  0.5040  0.5334 -0.0845
    2MOL   H897 1799   0.716   4.889   5.385  0.3203  0.7505  0.8971
    2MOL   H898 1800   0.399   5.329   5.124 -0.5298 -1.1633  4.3940
    2MOL   H899 1801   0.234   5.348   4.948 -0.6318 -0.1315  0.3741
    2MOL   H900 1802   0.247   4.918   4.878 -0.3619  0.7536 -1.0194
    2MOL   H901 1803   0.372   4.895   5.081 -1.7560 -1.0075 -1.2310
    2MOL   H902 1804   0.083   5.246   4.802  0.4000  0.6826 -1.3701
    3MOL     C1 1805   0.980   7.096   5.165 -0.3050  0.2857  0.4003
    3MOL     C2 1806   1.022   7.004   5.069  0.0616  0.7960 -0.2304
    3MOL     C3 1807   0.925   6.937   4.993  0.5261  0.2973  0.0658
    3MOL     C4 1808   0.790   6.949   5.024  0.1093  0.0589 -0.2082
    3MOL     C5 1809   0.741   7.040   5.121 -0.0865 -0.5792  0.9916
    3MOL     C6 1810   0.843   7.117   5.182  0.6771  0.0241  0.0018
    3MOL     S7 1811   0.665   6.883   4.914  0.0814 -0.3934  0.1938
    3MOL     O8 1812   0.533   6.871   4.979 -0.2596 -0.1480 -0.1129
    3MOL     O9 1813   0.730   6.771   4.839  0.3086  0.4654  0.1530
    3MOL    C10 1814   0.645   7.008   4.785  0.1194  0.0612 -0.0023
    3MOL    C11 1815   0.731   7.119   4.776 -0.6797  0.1146  0.0154
    3MOL    C12 1816   0.711   7.213   4.674 -0.0111 -0.4817  0.0458
    3MOL    C13 1817   0.614   7.196   4.575  0.2778 -0.4988  0.9578
    3MOL    C14 1818   0.530   7.084   4.574 -0.1576  0.4581  0.2200
    3MOL    C15 1819   0.538   6.996   4.685 -0.3820  0.3137 -0.2025
    3MOL    O16 1820   0.581   7.288   4.482 -0.5587  0.1256 -0.3491
    3MOL    C17 1821   0.551   7.417   4.525 -0.1972  0.2048  0.2547
    3MOL    C18 1822   0.423   7.441   4.591 -0.1860  0.9239  0.4464
    3MOL    C19 1823   0.389   7.571   4.640 -0.0804 -0.1958  0.5900
    3MOL    C20 1824   0.486   7.676   4.635  0.2895 -0.1981 -0.1678
    3MOL    C21 1825   0.609   7.654   4.568  0.2941  0.4985 -0.1016
    3MOL    C22 1826   0.641   7.525   4.507  0.5293  0.7422 -0.8528
    3MOL    C23 1827   0.451   7.801   4.694 -0.2853 -0.3787 -0.6634
    3MOL    C24 1828   0.512   7.919   4.640  0.1066 -0.0684 -0.5081
    3MOL    C25 1829   0.476   8.044   4.685  0.2587 -0.2049 -1.0491
    3MOL    C26 1830   0.385   8.061   4.791 -0.0118 -0.2521  0.0064
    3MOL    C27 1831   0.320   7.942   4.847  0.4664 -0.2221  0.9831
    3MOL    C28 1832   0.359   7.815   4.807  0.2827 -0.2247 -0.0978
    3MOL    O29 1833   0.349   8.191   4.832 -0.5211 -0.3428 -0.0327
    3MOL    H30 1834   1.130   6.992   5.062 -0.0136  0.1726 -0.3137
    3MOL    H31 1835   0.953   6.874   4.910  1.3460 -0.3524  0.8303
    3MOL    H32 1836   0.634   7.044   5.134 -0.2643  0.6210 -0.6439
    3MOL    H33 1837   0.813   7.194   5.251 -1.8438  0.5172 -1.5608
    3MOL    H34 1838   0.816   7.129   4.843  0.8796 -0.7815 -1.7838
    3MOL    H35 1839   0.777   7.297   4.654  0.1724 -0.5054  0.5285
    3MOL    H36 1840   0.442   7.073   4.512  1.2840 -1.3894 -1.5729
    3MOL    H37 1841   0.470   6.914   4.704  0.3425  0.0834  1.5771
    3MOL    H38 1842   0.351   7.361   4.596  0.3986  0.3390 -0.4305
    3MOL    H39 1843   0.290   7.584   4.682  0.3272 -3.4787  2.7273
    3MOL    H40 1844   0.687   7.728   4.563  0.3903  0.3908 -0.1797
    3MOL    H41 1845   0.739   7.506   4.466  1.6812  0.4953  1.9724
    3MOL    H42 1846   0.583   7.910   4.559 -1.7537 -0.2953 -2.1546
    3MOL    H43 1847   0.520   8.131   4.640  0.0632  1.1501  1.2991
    3MOL    H44 1848   0.248   7.941   4.927 -2.2717 -0.5538 -1.3994
    3MOL    H45 1849   0.316   7.731   4.859  0.3186  0.1907  0.6023
    3MOL    H46 1850   1.047   7.148   5.231  0.9203 -1.2938  0.4315
    3MOL    C47 1851   0.345   8.219   4.966  0.8955 -0.6440 -0.6537
    3MOL    C48 1852   0.237   8.177   5.052  0.3529  0.4203 -0.7820
    3MOL    C49 1853   0.244   8.213   5.190 -0.2254  0.2646 -0.1228
    3MOL    C50 1854   0.354   8.285   5.240 -0.5490 -0.7678 -0.1706
    3MOL    C51 1855   0.454   8.330   5.151  0.7476 -0.1049 -0.7828
    3MOL    C52 1856   0.452   8.292   5.015  0.1453 -0.4499 -0.2474
    3MOL    S53 1857   0.373   8.321   5.412  0.3949  0.0874  0.3370
    3MOL    O54 1858   0.471   0.067   5.430  0.0180 -0.4565  0.0204
    3MOL    O55 1859   0.400   8.190   5.475 -0.9604  0.0015 -0.7437
    3MOL    C56 1860   0.208   8.364   5.466 -0.6900 -0.0776 -0.7218
    3MOL    C57 1861   0.141   8.283   5.565 -0.0149 -0.1811  0.4088
    3MOL    C58 1862   0.015   8.322   5.608 -0.3716  0.0840  0.0190
    3MOL    C59 1863   8.316   0.067   5.548 -0.2003 -0.7742  0.1025
    3MOL    C60 1864   0.012   0.146   5.446 -0.4088  0.7340 -0.4138
    3MOL    C61 1865   0.148   0.116   5.413  0.0760 -0.5278 -0.7122
    3MOL    O62 1866   8.190   0.093   5.590  0.2137  0.4167  0.1086
    3MOL    C63 1867   8.141   0.213   5.632  0.1993 -0.3217  0.4167
    3MOL    C64 1868   8.102   0.310   5.538 -0.4902  0.3087 -0.0069
    3MOL    C65 1869   8.043   0.429   5.590 -0.5240 -0.1081  0.1037
    3MOL    C66 1870   8.033   0.451   5.725 -0.1883 -0.1020 -0.6378
    3MOL    C67 1871   8.081   0.355   5.816  0.0264  0.7112 -0.6144
    3MOL    C68 1872   8.123   0.233   5.769  0.1067  0.3041  0.0026
    3MOL    C69 1873   7.987   0.574   5.789 -0.4577  0.3034  0.3215
    3MOL    C70 1874   7.890   0.568   5.889  1.1136 -0.4618  0.1150
    3MOL    C71 1875   7.839   0.688   5.938 -0.2074 -0.3499 -0.3592
    3MOL    C72 1876   7.892   0.816   5.899 -0.0757 -0.3251 -0.5494
    3MOL    C73 1877   7.991   0.814   5.793  0.3625  0.1121  0.8793
    3MOL    C74 1878   8.033   0.697   5.737  0.0396  0.5308  0.5385
    3MOL    O75 1879   7.860   0.933   5.967 -0.2261 -0.4172 -0.0329
    3MOL    H76 1880   0.149   8.123   5.019  1.2785  0.0074 -2.6665
    3MOL    H77 1881   0.155   8.191   5.247 -0.0154  2.4324  1.0781
    3MOL    H78 1882   0.547   0.012   5.180  0.0681  1.4515 -1.1133
    3MOL    H79 1883   0.540   8.301   4.954  0.1718 -1.0531 -0.3007
    3MOL    H80 1884   0.186   8.195   5.609  0.9435 -0.0209 -0.2391
    3MOL    H81 1885   8.334   8.270   5.690 -2.0275  1.3535 -0.1043
    3MOL    H82 1886   8.335   0.234   5.402  2.6646  2.1713 -0.6397
    3MOL    H83 1887   0.212   0.173   5.349  0.0953  1.3632  0.9385
    3MOL    H84 1888   8.113   0.307   5.430 -1.3615  0.5565 -0.1099
    3MOL    H85 1889   8.003   0.504   5.523  2.0592 -0.3855 -1.8592
    3MOL    H86 1890   8.080   0.365   5.924  0.2243  0.1464 -0.5569
    3MOL    H87 1891   8.154   0.151   5.832 -2.2081 -0.1085  0.6542
    3MOL    H88 1892   7.850   0.477   5.931 -3.7539  2.5706  2.5178
    3MOL    H89 1893   7.777   0.681   6.026  1.0389 -1.0224  0.4697
    3MOL    H90 1894   8.033   0.909   5.764 -1.2990  1.5340  2.9617
    3MOL    H91 1895   8.113   0.701   5.665 -0.9926  0.5041 -0.6255
    3MOL    C92 1896   7.768   1.022   5.914  0.0098  0.1285  0.4142
    3MOL    C93 1897   7.707   1.002   5.792 -0.5182  0.3933 -0.6482
    3MOL    C94 1898   7.620   1.101   5.733 -0.1153  0.7615 -0.4103
    3MOL    C95 1899   7.596   1.226   5.804  0.4628 -0.6494  0.5756
    3MOL    C96 1900   7.651   1.241   5.929 -0.1310  0.5475  0.0661
    3MOL    C97 1901   7.737   1.142   5.983  0.6193  1.1364 -0.5369
    3MOL    S98 1902   7.494   1.358   5.733  0.0642 -0.1526  0.1040
    3MOL    O99 1903   7.440   1.436   5.848 -0.6107 -0.4429 -0.0574
    3MOL   O100 1904   7.404   1.295   5.636 -0.1924  0.6743  0.2508
    3MOL   C101 1905   7.599   1.461   5.636  0.1215 -0.2273  0.6940
    3MOL   C102 1906   7.552   1.519   5.518  0.0890 -0.5255 -0.6021
    3MOL   C103 1907   7.634   1.601   5.439  0.1837  0.2857 -0.4274
    3MOL   C104 1908   7.764   1.637   5.479 -0.0472 -0.5542 -0.5194
    3MOL   C105 1909   7.811   1.576   5.596 -0.0560 -0.1100  0.3531
    3MOL   C106 1910   7.731   1.492   5.679  0.0767 -0.5199  0.2929
    3MOL   O107 1911   7.833   1.729   5.400  0.7290 -0.7375  0.1799
    3MOL   C108 1912   7.944   1.696   5.326  0.3131  0.0524  0.0330
    3MOL   C109 1913   8.063   1.701   5.407  1.0086 -0.6029  0.2655
    3MOL   C110 1914   8.184   1.675   5.335  0.8785  0.3127  0.4210
    3MOL   C111 1915   8.188   1.654   5.195 -0.7601  0.5216  0.4274
    3MOL   C112 1916   8.063   1.648   5.121  0.3684  0.1260  0.4326
    3MOL   C113 1917   7.944   1.658   5.188 -0.4072  0.3361 -0.2979
    3MOL   C114 1918   8.317   1.614   5.135  0.2664  0.3399  0.0446
    3MOL   C115 1919   8.355   1.674   5.010  0.0358  0.4224 -0.2330
    3MOL   C116 1920   0.105   1.630   4.941 -0.7730 -0.1905 -0.0634
    3MOL   C117 1921   0.184   1.532   4.997 -0.3109  0.0598  0.2203
    3MOL   C118 1922   0.155   1.482   5.123  0.1792  0.2803  0.1059
    3MOL   C119 1923   0.037   1.519   5.193  0.5089  0.0716  0.2709
    3MOL   O120 1924   0.301   1.495   4.936  0.5924 -0.3119  0.3977
    3MOL   H121 1925   7.723   0.913   5.734 -1.0640 -1.8820  2.5700
    3MOL   H122 1926   7.573   1.099   5.636 -1.0350  0.4042  0.0311
    3MOL   H123 1927   7.644   1.334   5.985  1.5959  0.4957  0.4010
    3MOL   H124 1928   7.778   1.140   6.083  1.7227 -3.1503 -0.9590
    3MOL   H125 1929   7.454   1.492   5.482  0.8260 -1.7171 -1.7686
    3MOL   H126 1930   7.592   1.647   5.351  0.2208  0.5601 -0.3011
    3MOL   H127 1931   7.914   1.598   5.621  0.5042 -0.8473 -1.2202
    3MOL   H128 1932   7.781   1.456   5.767 -1.4838 -0.1696  1.3434
    3MOL   H129 1933   8.051   1.724   5.512 -0.4121  0.3589 -0.0919
    3MOL   H130 1934   8.281   1.671   5.384  0.7638 -2.0350  0.4836
    3MOL   H131 1935   8.067   1.620   5.016 -0.0794  3.5537 -0.5528
    3MOL   H132 1936   7.847   1.653   5.140  0.4687 -1.3283 -1.9285
    3MOL   H133 1937   8.295   1.750   4.961 -1.4644 -0.9001 -0.5038
    3MOL   H134 1938   0.126   1.667   4.842  0.5778 -1.5101 -0.2872
    3MOL   H135 1939   0.214   1.401   5.165  1.1827  0.3876 -1.0508
    3MOL   H136 1940   0.011   1.480   5.291  1.4126 -0.7899  0.1685
    3MOL   C137 1941   0.418   1.567   4.960 -0.0230 -0.0138  0.3171
    3MOL   C138 1942   0.418   1.703   4.959  0.1079 -0.0893 -0.1515
    3MOL   C139 1943   0.531   1.784   4.994 -0.6277  0.4989  0.5540
    3MOL   C140 1944   0.645   1.717   5.028 -0.4499  0.6598  0.2756
    3MOL   C141 1945   0.650   1.577   5.025 -0.0169 -0.3723 -0.1810
    3MOL   C142 1946   0.530   1.502   5.006 -0.4429 -0.3961  0.2283
    3MOL   S143 1947   0.802   1.805   5.069 -0.1144  0.2877 -0.2971
    3MOL   O144 1948   0.914   1.727   5.012 -0.0426 -0.0849  0.2304
    3MOL   O145 1949   0.803   1.829   5.216  0.4580 -0.1937 -0.5904
    3MOL   C146 1950   0.818   1.966   4.992 -0.0430 -0.1871  0.4293
    3MOL   C147 1951   0.757   2.075   5.057  0.1957  0.6874  0.7966
    3MOL   C148 1952   0.770   2.204   4.994 -0.2748  0.1530 -0.6405
    3MOL   C149 1953   0.847   2.221   4.873  0.7107 -0.1431  0.5616
    3MOL   C150 1954   0.892   2.107   4.804  0.1626  0.4323 -0.1157
    3MOL   C151 1955   0.880   1.980   4.862  0.4603 -0.6862  0.2034
    3MOL   O152 1956   0.871   2.344   4.815 -0.0086 -0.1087 -0.0703
    3MOL   C153 1957   0.766   2.423   4.775 -0.7460 -0.0724 -0.7054
    3MOL   C154 1958   0.642   2.373   4.728 -0.3805 -0.4340  0.6431
    3MOL   C155 1959   0.531   2.456   4.698  0.1497  0.2546  0.9605
    3MOL   C156 1960   0.543   2.598   4.713 -0.9559 -0.1047 -0.1836
    3MOL   C157 1961   0.665   2.645   4.773 -0.2917  0.0363  0.0921
    3MOL   C158 1962   0.767   2.561   4.796  0.1916 -0.1659 -0.1058
    3MOL   C159 1963   0.433   2.690   4.669  0.2379  0.3523  0.6407
    3MOL   C160 1964   0.470   2.809   4.602 -0.2727 -0.4007 -0.3789
    3MOL   C161 1965   0.367   2.900   4.569 -0.2029  0.0614  0.3707
    3MOL   C162 1966   0.232   2.866   4.586  0.0621 -0.6323 -0.4393
    3MOL   C163 1967   0.194   2.734   4.635  0.4502  0.7717  0.6134
    3MOL   C164 1968   0.295   2.652   4.684  0.1129 -0.0555  0.4022
    3MOL   O165 1969   0.131   2.957   4.565  0.0283 -0.4072  0.5416
    3MOL   H166 1970   0.329   1.745   4.915  0.8320  0.3241 -1.2470
    3MOL   H167 1971   0.532   1.890   4.977 -0.8792  0.5740  0.9905
    3MOL   H168 1972   0.739   1.525   5.057  0.8178  0.6594 -0.7755
    3MOL   H169 1973   0.532   1.395   4.993  2.5479 -0.3863  0.2055
    3MOL   H170 1974   0.718   2.059   5.156 -1.4724 -0.1858  0.0097
    3MOL   H171 1975   0.731   2.286   5.052 -1.4686  0.3701 -1.7509
    3MOL   H172 1976   0.941   2.114   4.708  0.8583  0.9068  0.2704
    3MOL   H173 1977   0.927   1.893   4.818 -0.5113 -2.0813  1.8693
    3MOL   H174 1978   0.638   2.266   4.711  0.2156 -0.1527 -1.4138
    3MOL   H175 1979   0.444   2.410   4.653  0.1220 -1.0019  2.2282
    3MOL   H176 1980   0.672   2.751   4.793  0.0704 -0.4188  2.4864
    3MOL   H177 1981   0.852   2.600   4.850  0.8171 -1.2062 -0.3314
    3MOL   H178 1982   0.573   2.832   4.580 -0.7372  3.6650  1.1812
    3MOL   H179 1983   0.385   2.998   4.529 -1.3317  0.2053  0.2190
    3MOL   H180 1984   0.092   2.699   4.643  0.8137 -0.8246 -1.4319
    3MOL   H181 1985   0.254   2.565   4.733  0.4946  0.2280  1.2363
    3MOL   C182 1986   0.119   3.075   4.634  0.6866  0.8547 -0.0762
    3MOL   C183 1987   0.152   3.072   4.772 -0.0800 -0.2052  0.2404
    3MOL   C184 1988   0.157   3.195   4.842  0.1777 -0.5250  0.8215
    3MOL   C185 1989   0.128   3.316   4.779 -0.4463  0.1031  0.3171
    3MOL   C186 1990   0.088   3.314   4.645 -0.1593  0.6506 -0.4040
    3MOL   C187 1991   0.091   3.196   4.574  0.0873 -0.2269 -0.3570
    3MOL   S188 1992   0.135   3.464   4.874 -0.1391  0.2456  0.9796
    3MOL   O189 1993   0.119   3.585   4.789 -0.6587  0.1536  0.2466
    3MOL   O190 1994   0.257   3.455   4.953  0.0920 -0.4445 -0.3571
    3MOL   C191 1995   8.362   3.459   4.977 -0.4455  0.8429 -0.1039
    3MOL   C192 1996   8.240   3.400   4.934  0.3061  0.7381  0.3332
    3MOL   C193 1997   8.127   3.395   5.022  0.7531 -0.2155 -0.2026
    3MOL   C194 1998   8.135   3.465   5.146  0.3375  1.5503  0.6850
    3MOL   C195 1999   8.258   3.521   5.188  0.6819 -0.9141  0.5691
    3MOL   C196 2000   0.006   3.517   5.102 -0.0607  0.3438  0.4373
    3MOL   O197 2001   8.017   3.494   5.208  0.3594  0.5643  0.3583
    3MOL   C198 2002   7.989   3.626   5.230 -0.3680 -0.2342 -0.5594
    3MOL   C199 2003   8.016   3.720   5.134  0.1745  0.3082 -0.2662
    3MOL   C200 2004   7.972   3.851   5.152 -0.0997 -0.2397  0.4518
    3MOL   C201 2005   7.908   3.893   5.273 -0.2897  0.8095  0.2663
    3MOL   C202 2006   7.890   3.794   5.374 -0.0769  0.3153 -0.0414
    3MOL   C203 2007   7.923   3.658   5.353 -0.3869 -0.0313  0.3334
    3MOL   C204 2008   7.863   4.033   5.301 -0.5178 -0.5072  0.4813
    3MOL   C205 2009   7.856   4.083   5.433 -0.3384 -0.2944  0.0718
    3MOL   C206 2010   7.822   4.220   5.452  0.0442  0.2766  0.2356
    3MOL   C207 2011   7.795   4.309   5.347 -0.0835 -0.6422  0.7529
    3MOL   C208 2012   7.794   4.257   5.215  0.3791  0.1864  0.3180
    3MOL   C209 2013   7.831   4.123   5.195 -0.1490  0.1243 -0.0035
    3MOL   O210 2014   7.762   4.439   5.366  0.4659  0.7826 -0.0657
    3MOL   H211 2015   0.166   2.978   4.824 -1.1135 -0.9733 -0.8242
    3MOL   H212 2016   0.180   3.187   4.948  3.3251 -0.0824  0.2257
    3MOL   H213 2017   0.070   3.405   4.589  0.0982  0.1638 -1.2832
    3MOL   H214 2018   0.093   3.208   4.467 -0.1182  0.2893 -0.3042
    3MOL   H215 2019   8.231   3.361   4.834 -2.8633  0.1842  0.7577
    3MOL   H216 2020   8.037   3.359   4.974 -0.2781  2.3867 -0.2887
    3MOL   H217 2021   8.275   3.573   5.281  1.0206  0.7009 -0.3683
    3MOL   H218 2022   0.098   3.563   5.135  1.3084 -0.3850 -2.2314
    3MOL   H219 2023   8.043   3.695   5.032 -0.3567  1.1360 -0.6160
    3MOL   H220 2024   7.994   3.932   5.084 -0.4347 -0.7803 -0.3135
    3MOL   H221 2025   7.848   3.817   5.471 -0.2737  0.3092 -0.1237
    3MOL   H222 2026   7.910   3.581   5.427 -0.7358  0.9673  1.3295
    3MOL   H223 2027   7.885   4.022   5.517 -0.9056  1.5132  1.6027
    3MOL   H224 2028   7.826   4.263   5.551 -2.2258  1.4453 -0.1524
    3MOL   H225 2029   7.790   4.327   5.133  1.0956 -0.4331 -0.2506
    3MOL   H226 2030   7.842   4.093   5.092  0.3218 -2.5363  0.7877
    3MOL   C227 2031   7.848   4.527   5.419  0.3344  0.2004  0.2478
    3MOL   C228 2032   7.926   4.605   5.335  0.2305 -0.7524 -0.0142
    3MOL   C229 2033   8.014   4.702   5.389 -0.1155  0.2269 -0.1437
    3MOL   C230 2034   8.031   4.712   5.528 -0.8045 -0.7362 -0.5501
    3MOL   C231 2035   7.958   4.625   5.617 -0.3924 -0.1399 -0.2121
    3MOL   C232 2036   7.861   4.543   5.558 -0.0174  0.5197  0.4572
    3MOL   S233 2037   8.163   4.824   5.596  0.1057  0.2899 -0.0626
    3MOL   O234 2038   8.116   4.897   5.713  0.4108  0.4483 -0.2380
    3MOL   O235 2039   8.217   4.897   5.481 -0.4109  0.4763 -0.4718
    3MOL   C236 2040   8.291   4.709   5.651  0.0339  1.3556 -0.6255
    3MOL   C237 2041   8.298   4.671   5.790  0.4351 -0.0952 -0.1707
    3MOL   C238 2042   0.029   4.586   5.835  0.0724 -0.4299  0.5824
    3MOL   C239 2043   0.119   4.527   5.738 -1.1045  0.5001  0.2009
    3MOL   C240 2044   0.103   4.551   5.602  0.2505 -0.6733  0.3041
    3MOL   C241 2045   0.009   4.643   5.558 -0.5837 -0.1051 -0.0429
    3MOL   O242 2046   0.216   4.442   5.781  0.0477 -0.2155  0.2782
    3MOL   C243 2047   0.322   4.409   5.700 -0.2361 -0.2089 -0.3763
    3MOL   C244 2048   0.420   4.501   5.664 -0.7192  0.2077 -0.1536
    3MOL   C245 2049   0.524   4.475   5.573 -0.7626 -0.9704 -0.2516
    3MOL   C246 2050   0.536   4.347   5.514  0.0308 -0.2452 -0.4996
    3MOL   C247 2051   0.438   4.253   5.552  0.5148  0.0651 -0.0638
    3MOL   C248 2052   0.337   4.280   5.647  0.0848  0.2198 -0.5752
    3MOL   C249 2053   0.654   4.322   5.419  0.7552 -0.5135  0.0853
    3MOL   C250 2054   0.635   4.247   5.302  0.5340  0.1023  0.4081
    3MOL   C251 2055   0.742   4.215   5.217 -0.2232 -0.6911  1.0936
    3MOL   C252 2056   0.873   4.251   5.267  0.2670  0.0819  0.2269
    3MOL   C253 2057   0.900   4.329   5.381  0.1122  0.7578 -0.3199
    3MOL   C254 2058   0.786   4.359   5.461 -0.4899  0.1142 -0.3689
    3MOL   O255 2059   0.977   4.201   5.197  0.3110  0.0390 -0.3644
    3MOL   H256 2060   7.907   4.590   5.230 -2.8010  0.9390  0.2210
    3MOL   H257 2061   8.080   4.759   5.327  1.0573  0.7225  1.5120
    3MOL   H258 2062   7.961   4.629   5.725  0.2113 -0.8574 -0.1944
    3MOL   H259 2063   7.799   4.486   5.627  0.1864 -0.7023 -0.3534
    3MOL   H260 2064   8.236   4.725   5.861 -1.1529 -0.6055 -1.1307
    3MOL   H261 2065   0.023   4.568   5.941 -2.0113  3.5902  1.2146
    3MOL   H262 2066   0.182   4.506   5.543 -0.0678  0.7501 -1.2558
    3MOL   H263 2067   8.356   4.665   5.453  1.7495 -1.8443 -0.8724
    3MOL   H264 2068   0.429   4.602   5.699 -0.2820  0.8828 -2.1804
    3MOL   H265 2069   0.595   4.551   5.546 -0.9573 -0.6263  0.2055
    3MOL   H266 2070   0.446   4.153   5.511  0.3119 -0.4975  1.2214
    3MOL   H267 2071   0.264   4.207   5.677 -0.8239  1.1119 -0.5694
    3MOL   H268 2072   0.541   4.200   5.278  1.0364 -0.0791 -1.2813
    3MOL   H269 2073   0.719   4.157   5.129 -4.5394 -1.5936  2.6760
    3MOL   H270 2074   1.002   4.343   5.414  0.7431  0.0700 -1.9529
    3MOL   H271 2075   0.807   4.409   5.553  0.8503 -0.9359 -0.0931
    3MOL   C272 2076   1.087   4.157   5.261 -0.3055 -0.1084  0.7538
    3MOL   C273 2077   1.078   4.074   5.374 -0.0245 -0.8512 -0.2883
    3MOL   C274 2078   1.196   4.026   5.435 -0.8236 -0.6402  0.4984
    3MOL   C275 2079   1.324   4.044   5.373  1.1526  0.5356 -0.1231
    3MOL   C276 2080   1.328   4.113   5.249  0.0840  0.0494 -0.5056
    3MOL   C277 2081   1.209   4.173   5.201 -1.2504  0.4920  0.4385
    3MOL   S278 2082   1.479   3.989   5.441 -0.5507  0.2680  0.1392
    3MOL   O279 2083   1.457   3.976   5.585  0.4336 -0.1138 -0.0477
    3MOL   O280 2084   1.589   4.068   5.393  0.0049 -0.5344  0.1623
    3MOL   C281 2085   1.488   3.825   5.374 -0.3900  0.6651  0.8795
    3MOL   C282 2086   1.576   3.787   5.271  0.3998  0.1256  0.0892
    3MOL   C283 2087   1.578   3.655   5.220  0.3658  0.5345  0.1140
    3MOL   C284 2088   1.494   3.556   5.265  0.1749  0.7385 -0.5687
    3MOL   C285 2089   1.400   3.598   5.361  0.3269 -0.4632 -1.0150
    3MOL   C286 2090   1.399   3.731   5.414 -0.1534  0.0638 -0.3937
    3MOL   O287 2091   1.496   3.429   5.212 -0.5498 -0.8188 -0.3542
    3MOL   C288 2092   1.505   3.327   5.300 -0.1587  0.3325 -0.1746
    3MOL   C289 2093   1.397   3.237   5.301 -0.4165  0.2673  0.0699
    3MOL   C290 2094   1.396   3.134   5.400  0.1459 -0.7608  0.1160
    3MOL   C291 2095   1.512   3.107   5.472  0.6047  0.0612 -0.9851
    3MOL   C292 2096   1.619   3.196   5.466 -0.6365  0.2951  0.0684
    3MOL   C293 2097   1.613   3.307   5.375  0.0321  0.5333  0.2779
    3MOL   C294 2098   1.519   2.975   5.542 -0.1785 -0.7054 -0.1170
    3MOL   C295 2099   1.420   2.936   5.633  0.5184  0.2460 -0.2303
    3MOL   C296 2100   1.419   2.813   5.698  0.0206 -0.1648  0.2923
    3MOL   C297 2101   1.523   2.721   5.664 -0.0402 -0.1444 -0.0547
    3MOL   C298 2102   1.625   2.759   5.573 -0.0087 -0.7158 -0.2749
    3MOL   C299 2103   1.613   2.882   5.506  0.1010  0.5430 -0.5715
    3MOL   O300 2104   1.519   2.597   5.720  0.2346 -0.1208 -0.0154
    3MOL   H301 2105   0.979   4.064   5.416 -1.0391  2.7722 -1.5684
    3MOL   H302 2106   1.195   3.978   5.531  0.3464 -0.2210  0.7357
    3MOL   H303 2107   1.423   4.123   5.200 -0.1057 -0.4502 -0.9890
    3MOL   H304 2108   1.213   4.227   5.108  0.6062  0.6028  0.5664
    3MOL   H305 2109   1.653   3.857   5.240  1.9108 -1.8666 -0.8013
    3MOL   H306 2110   1.657   3.621   5.155  1.4518  0.4174  1.4569
    3MOL   H307 2111   1.323   3.529   5.392  1.9555 -0.7422  2.7210
    3MOL   H308 2112   1.320   3.763   5.482 -0.6265 -0.7046 -0.5718
    3MOL   H309 2113   1.318   3.248   5.228  0.9722  0.2428 -1.4705
    3MOL   H310 2114   1.313   3.066   5.392  0.1891 -0.5821 -2.1298
    3MOL   H311 2115   1.715   3.162   5.501 -0.2654 -0.1117 -1.3166
    3MOL   H312 2116   1.693   3.377   5.357  0.3674 -0.1154 -0.7830
    3MOL   H313 2117   1.342   3.008   5.652  1.1663  0.5888  1.2363
    3MOL   H314 2118   1.344   2.779   5.767 -0.3487  0.5993  0.2690
    3MOL   H315 2119   1.707   2.692   5.553  2.2663  2.0153 -0.4965
    3MOL   H316 2120   1.687   2.907   5.431 -1.1654 -0.9495 -2.3745
    3MOL   C317 2121   1.491   2.495   5.633  0.6859 -0.2130 -0.6833
    3MOL   C318 2122   1.364   2.430   5.647 -0.6096  0.1036 -1.4233
    3MOL   C319 2123   1.338   2.311   5.579  0.0939 -1.0087  0.0374
    3MOL   C320 2124   1.431   2.263   5.482  0.1418 -0.7339  0.3858
    3MOL   C321 2125   1.553   2.334   5.461  0.3955 -1.0925  0.2834
    3MOL   C322 2126   1.582   2.447   5.541 -0.0069 -0.0283  0.0489
    3MOL   S323 2127   1.408   2.102   5.405  0.0047 -0.3101 -0.0507
    3MOL   O324 2128   1.292   2.040   5.469  0.6944 -0.1735  0.2236
    3MOL   O325 2129   1.538   2.033   5.388  0.1954 -0.3461  0.8960
    3MOL   C326 2130   1.351   2.153   5.241  0.5202  0.5029 -0.3541
    3MOL   C327 2131   1.445   2.216   5.150  0.4719 -0.5932  0.6719
    3MOL   C328 2132   1.404   2.258   5.016  0.8043  0.2370 -0.0409
    3MOL   C329 2133   1.266   2.243   4.984  0.5501 -0.3801  0.2264
    3MOL   C330 2134   1.179   2.178   5.073 -0.4174 -1.4895 -0.2430
    3MOL   C331 2135   1.215   2.140   5.204  0.1466  0.3485  0.6347
    3MOL   O332 2136   1.213   2.303   4.868 -0.9449  0.1647  0.2590
    3MOL   C333 2137   1.178   2.438   4.887 -1.1601 -0.6968  0.1770
    3MOL   C334 2138   1.094   2.482   4.990 -0.2248  0.0787 -0.9824
    3MOL   C335 2139   1.058   2.617   5.008  0.7750  0.3847 -0.2184
    3MOL   C336 2140   1.097   2.712   4.914  0.0323 -0.2058 -0.2936
    3MOL   C337 2141   1.179   2.669   4.803  1.0659 -0.2271  0.3277
    3MOL   C338 2142   1.218   2.537   4.796  0.4506  0.7801 -0.0831
    3MOL   C339 2143   1.054   2.849   4.932  0.3554  0.2296 -0.8212
    3MOL   C340 2144   1.085   2.923   5.045 -1.0380 -0.3954 -0.4030
    3MOL   C341 2145   1.039   3.059   5.054 -0.2858 -0.1754 -0.1173
    3MOL   C342 2146   0.968   3.116   4.948 -0.1869 -0.0825 -0.1530
    3MOL   C343 2147   0.947   3.044   4.828 -0.0286  0.3517  0.2745
    3MOL   C344 2148   0.994   2.913   4.823  0.6543 -0.3335 -0.0113
    3MOL   O345 2149   0.921   3.247   4.950  0.3884 -0.5957  0.1020
    3MOL   H346 2150   1.287   2.462   5.715  0.1918  0.5435 -0.7144
    3MOL   H347 2151   1.254   2.247   5.603 -0.3051 -0.5612 -0.1633
    3MOL   H348 2152   1.616   2.293   5.384  1.9489  0.6295  0.5910
    3MOL   H349 2153   1.682   2.485   5.530  0.6696 -0.9176  2.7775
    3MOL   H350 2154   1.550   2.226   5.175  0.4480 -0.6476  0.7979
    3MOL   H351 2155   1.470   2.310   4.948  0.5771  0.8851  0.2320
    3MOL   H352 2156   1.073   2.177   5.049 -0.6233  1.1914  0.3763
    3MOL   H353 2157   1.139   2.098   5.267  0.4056 -1.2886 -0.1136
    3MOL   H354 2158   1.065   2.415   5.070  1.0576  2.4532  1.5458
    3MOL   H355 2159   0.997   2.648   5.092  0.6742  0.5493 -0.3524
    3MOL   H356 2160   1.205   2.738   4.724 -0.6256 -0.0829 -0.1318
    3MOL   H357 2161   1.270   2.499   4.709 -2.6379 -0.3229 -1.5114
    3MOL   H358 2162   1.131   2.867   5.125  0.9571 -1.1570 -2.0436
    3MOL   H359 2163   1.040   3.124   5.139  1.3136 -0.5115  0.1384
    3MOL   H360 2164   0.892   3.088   4.746 -1.6197 -0.2295  0.9982
    3MOL   H361 2165   0.982   2.861   4.730  0.1143 -0.3835  0.0864
    3MOL   C362 2166   0.976   3.325   4.857 -0.1634 -1.0377 -0.1556
    3MOL   C363 2167   0.906   3.348   4.734 -0.1619  0.2077 -0.0843
    3MOL   C364 2168   0.956   3.432   4.635  0.6032  0.3924 -0.5296
    3MOL   C365 2169   1.089   3.484   4.652 -0.9426 -0.5866  0.4823
    3MOL   C366 2170   1.155   3.468   4.774 -0.0119 -0.2318 -0.5247
    3MOL   C367 2171   1.097   3.391   4.882  0.2086  0.3469 -0.1379
    3MOL   S368 2172   1.162   3.570   4.506  0.2993 -0.1632 -0.3372
    3MOL   O369 2173   1.241   3.687   4.543 -0.2857 -0.4069  0.2507
    3MOL   O370 2174   1.057   3.592   4.410  0.1056  0.2946  0.2752
    3MOL   C371 2175   1.268   3.441   4.436 -0.8161  0.2166 -0.0647
    3MOL   C372 2176   1.306   3.441   4.300 -0.2578 -0.4701 -0.7092
    3MOL   C373 2177   1.402   3.352   4.247  0.5018 -0.1361 -0.2488
    3MOL   C374 2178   1.460   3.255   4.335 -0.1341  0.0559  0.4894
    3MOL   C375 2179   1.414   3.245   4.468 -0.7437  0.3270  0.2153
    3MOL   C376 2180   1.327   3.346   4.516  0.0676  0.6357  0.4129
    3MOL   O377 2181   1.551   3.161   4.288 -0.2155 -0.7889  0.6281
    3MOL   C378 2182   1.682   3.174   4.335 -0.0755 -0.0458  0.1286
    3MOL   C379 2183   1.737   3.303   4.370  0.0761 -0.7937 -0.1090
    3MOL   C380 2184   1.874   3.310   4.402 -0.0450  0.5859 -0.3544
    3MOL   C381 2185   1.954   3.194   4.408 -1.1503  0.0058  0.8246
    3MOL   C382 2186   1.896   3.070   4.382 -0.0627  0.8368 -0.8060
    3MOL   C383 2187   1.765   3.063   4.336 -0.2415 -0.5453 -0.0580
    3MOL   C384 2188   2.098   3.194   4.429 -0.0767 -0.3345 -0.0196
    3MOL   C385 2189   2.158   3.248   4.540  0.1025 -0.2214  0.6059
    3MOL   C386 2190   2.302   3.259   4.551  0.5287  0.0076  1.4978
    3MOL   C387 2191   2.387   3.206   4.450 -0.0784  0.0445  0.0083
    3MOL   C388 2192   2.322   3.143   4.341  0.1986  0.0427 -0.5997
    3MOL   C389 2193   2.180   3.136   4.333 -0.7809  0.1580 -0.3424
    3MOL   O390 2194   2.524   3.178   4.459  0.0349 -0.3171 -0.0856
    3MOL   H391 2195   0.805   3.312   4.720 -1.1000  2.6454  0.0784
    3MOL   H392 2196   0.890   3.451   4.551  0.8719 -0.4417 -0.9290
    3MOL   H393 2197   1.252   3.515   4.785  0.4440 -1.0875 -0.8664
    3MOL   H394 2198   1.143   3.393   4.979 -1.1637 -2.5003  0.6297
    3MOL   H395 2199   1.263   3.513   4.231  0.8745  2.9329  1.9736
    3MOL   H396 2200   1.411   3.337   4.141 -1.2700 -1.5106 -0.2301
    3MOL   H397 2201   1.443   3.163   4.533  2.6617  1.6602  0.4730
    3MOL   H398 2202   1.303   3.344   4.622  3.7799 -1.2175  1.3002
    3MOL   H399 2203   1.674   3.387   4.346  0.0348 -0.7370  0.1974
    3MOL   H400 2204   1.918   3.408   4.412 -1.1979  0.8864  2.0487
    3MOL   H401 2205   1.954   2.978   4.380 -1.6291 -0.1846 -0.2533
    3MOL   H402 2206   1.724   2.967   4.307  0.6679 -1.4804  1.6811
    3MOL   H403 2207   2.098   3.284   4.622 -0.7360 -0.6524  0.1861
    3MOL   H404 2208   2.340   3.313   4.636  1.8830  1.3469  0.0703
    3MOL   H405 2209   2.376   3.087   4.266  0.2727  0.5147 -0.8983
    3MOL   H406 2210   2.144   3.084   4.245 -0.0253 -1.9219  0.5480
    3MOL   C407 2211   2.583   3.199   4.579  0.4536 -0.2985  0.0070
    3MOL   C408 2212   2.664   3.315   4.602 -0.2379 -1.3270  0.2738
    3MOL   C409 2213   2.736   3.328   4.721  0.3563  0.6812  0.4583
    3MOL   C410 2214   2.742   3.220   4.815  0.1821  0.4426 -0.0786
    3MOL   C411 2215   2.674   3.100   4.782 -0.4484  0.3530  0.3281
    3MOL   C412 2216   2.598   3.085   4.667 -0.5960  0.0109 -0.4914
    3MOL   S413 2217   2.846   3.223   4.956  0.0538 -0.4532 -0.1654
    3MOL   O414 2218   2.944   3.334   4.948 -0.0651 -0.3568 -0.2992
    3MOL   O415 2219   2.896   3.087   4.975  0.4544 -0.2579 -0.1131
    3MOL   C416 2220   2.746   3.256   5.101 -0.3155  1.0676  0.0457
    3MOL   C417 2221   2.615   3.303   5.095  0.9027 -0.0415  0.5323
    3MOL   C418 2222   2.554   3.347   5.216 -0.5497 -0.2758  0.2732
    3MOL   C419 2223   2.627   3.334   5.339  0.4524  0.2006 -0.0096
    3MOL   C420 2224   2.748   3.276   5.345 -0.2905 -0.4801  0.1744
    3MOL   C421 2225   2.814   3.237   5.224  0.1256  0.1629  0.1825
    3MOL   O422 2226   2.574   3.380   5.456  0.0402  0.7551 -0.4992
    3MOL   C423 2227   2.466   3.316   5.520 -0.6777 -0.6151  0.2791
    3MOL   C424 2228   2.400   3.389   5.622  0.7778  0.0785 -0.2633
    3MOL   C425 2229   2.283   3.336   5.685 -0.0011  0.0121 -0.1889
    3MOL   C426 2230   2.237   3.204   5.657  0.2112  0.0801 -0.0166
    3MOL   C427 2231   2.310   3.127   5.558  0.2168  0.4907  0.4077
    3MOL   C428 2232   2.429   3.185   5.497  0.1199 -0.1201  0.5683
    3MOL   C429 2233   2.116   3.151   5.725 -0.4838  0.1508  0.4061
    3MOL   C430 2234   2.027   3.059   5.663 -0.5473  0.7999 -0.0972
    3MOL   C431 2235   1.902   3.040   5.716  0.5360  0.4681 -0.0566
    3MOL   C432 2236   1.872   3.091   5.840  0.5915 -0.3384  0.0379
    3MOL   C433 2237   1.960   3.172   5.915 -0.3639  0.5958 -0.2315
    3MOL   C434 2238   2.081   3.203   5.851 -0.1846 -0.1186  0.5890
    3MOL   O435 2239   1.740   3.078   5.882 -0.0610 -0.0040 -0.1638
    3MOL   H436 2240   2.653   3.407   4.547 -0.3736 -1.1316  0.6252
    3MOL   H437 2241   2.774   3.425   4.753 -0.9177  0.8044  1.6444
    3MOL   H438 2242   2.694   3.013   4.843 -0.6986  0.7987  1.0602
    3MOL   H439 2243   2.547   2.992   4.648  1.4946 -0.7950 -2.3458
    3MOL   H440 2244   2.567   3.315   4.999  1.2025 -2.4525  0.0377
    3MOL   H441 2245   2.459   3.397   5.208 -1.9004 -2.4725  1.9929
    3MOL   H442 2246   2.796   3.252   5.439 -0.4943  1.9769  0.9396
    3MOL   H443 2247   2.913   3.193   5.226  0.2421  0.4398  0.6211
    3MOL   H444 2248   2.427   3.492   5.639  1.3429 -0.4280  2.0670
    3MOL   H445 2249   2.231   3.404   5.751 -1.0903 -0.0126 -1.0028
    3MOL   H446 2250   2.291   3.023   5.537 -0.8239  1.7163 -5.5509
    3MOL   H447 2251   2.489   3.128   5.427  0.4543  0.5329  0.3162
    3MOL   H448 2252   2.049   3.006   5.571  1.1308  0.4220  0.5074
    3MOL   H449 2253   1.821   2.991   5.665 -0.2910  1.1149  0.6414
    3MOL   H450 2254   1.931   3.207   6.013  0.7462  1.9269 -0.3590
    3MOL   H451 2255   2.147   3.278   5.893 -1.1354  0.7145  0.6224
    3MOL   C452 2256   1.653   3.176   5.841 -0.3561  0.2226  0.0334
    3MOL   C453 2257   1.519   3.162   5.876  0.4113 -0.4021 -0.7493
    3MOL   C454 2258   1.430   3.266   5.876 -0.0078 -0.3940  0.0562
    3MOL   C455 2259   1.470   3.386   5.818  0.2173  0.4650  0.7775
    3MOL   C456 2260   1.603   3.397   5.768  1.2572 -0.0898 -0.1009
    3MOL   C457 2261   1.695   3.294   5.779  0.7383  0.2049  0.2301
    3MOL   S458 2262   1.350   3.523   5.825  0.1936 -0.1853 -0.2744
    3MOL   O459 2263   1.240   3.487   5.917 -0.1959 -0.8472 -0.4366
    3MOL   O460 2264   1.316   3.567   5.689  0.1161 -0.3133 -0.6861
    3MOL   C461 2265   1.438   3.650   5.907  1.1227  1.1790 -0.3818
    3MOL   C462 2266   1.457   3.650   6.047 -0.1565 -0.2714  0.5080
    3MOL   C463 2267   1.516   3.760   6.105 -1.3563  0.1671  0.2512
    3MOL   C464 2268   1.559   3.870   6.025  0.0814 -0.1028 -0.0366
    3MOL   C465 2269   1.540   3.867   5.886 -0.0212  0.2253 -0.7901
    3MOL   C466 2270   1.477   3.757   5.825 -0.0277 -0.0376 -0.7321
    3MOL   O467 2271   1.613   3.979   6.083 -0.3485  0.4281  0.3626
    3MOL   C468 2272   1.620   3.991   6.218 -0.1248 -0.6009  0.2029
    3MOL   C469 2273   1.520   4.066   6.284 -0.3955  0.8321  0.6530
    3MOL   C470 2274   1.535   4.073   6.423  0.4137 -0.0348  0.1707
    3MOL   C471 2275   1.652   4.023   6.488  0.5036 -0.0598 -0.4732
    3MOL   C472 2276   1.751   3.950   6.414  0.6167  0.0321  0.3208
    3MOL   C473 2277   1.741   3.944   6.275  0.0020 -0.8585  0.2049
    3MOL   C474 2278   1.669   4.037   6.638  0.5175 -0.0185  0.0458
    3MOL   C475 2279   1.739   4.148   6.689 -0.0329 -0.6096 -0.1616
    3MOL   C476 2280   1.731   4.178   6.825  0.1236  0.0165 -0.7233
    3MOL   C477 2281   1.682   4.088   6.916  0.4557  0.2793 -0.4870
    3MOL   C478 2282   1.616   3.974   6.866 -0.6567 -0.4624 -0.1525
    3MOL   C479 2283   1.610   3.949   6.731  0.1489 -1.0279 -0.2052
    3MOL   O480 2284   1.686   4.112   7.052 -0.0140 -0.3478  0.7417
    3MOL   H481 2285   1.504   3.067   5.926  2.1407 -0.8694 -1.1108
    3MOL   H482 2286   1.338   3.246   5.930  0.9618 -1.5288  1.3112
    3MOL   H483 2287   1.641   3.487   5.722  1.9962 -1.2541 -1.8563
    3MOL   H484 2288   1.797   3.316   5.751  0.4895  1.0891 -0.0042
    3MOL   H485 2289   1.424   3.574   6.116 -2.4675  0.8509  0.6871
    3MOL   H486 2290   1.528   3.753   6.212  1.5931  0.5640 -0.0115
    3MOL   H487 2291   1.567   3.953   5.826 -0.8999  2.6052  2.1163
    3MOL   H488 2292   1.456   3.744   5.720  1.2492 -1.9038 -0.7907
    3MOL   H489 2293   1.440   4.117   6.234 -0.3612 -0.6585 -0.9905
    3MOL   H490 2294   1.475   4.136   6.487  0.1833  1.2762 -1.3131
    3MOL   H491 2295   1.834   3.900   6.462  2.0557  2.4310  0.4230
    3MOL   H492 2296   1.815   3.899   6.211 -1.4184 -0.2701 -1.9023
    3MOL   H493 2297   1.789   4.213   6.618 -0.1305 -1.5614 -1.1102
    3MOL   H494 2298   1.783   4.264   6.865  1.8751 -1.0629 -0.6409
    3MOL   H495 2299   1.570   3.903   6.933  1.0145 -0.3557  1.1202
    3MOL   H496 2300   1.562   3.858   6.698  1.8719 -1.2964 -2.0395
    3MOL   C497 2301   1.571   4.125   7.126 -0.2348  0.2144 -0.6551
    3MOL   C498 2302   1.563   4.071   7.261 -0.1264 -0.2078  0.0299
    3MOL   C499 2303   1.440   4.078   7.329 -0.5375 -0.2739  0.1568
    3MOL   C500 2304   1.326   4.132   7.272  0.1978 -0.1562  0.6870
    3MOL   C501 2305   1.332   4.183   7.146 -0.1766 -0.4498 -0.1487
    3MOL   C502 2306   1.453   4.187   7.076  0.1923  0.3234 -0.0234
    3MOL   S503 2307   1.170   4.144   7.364  0.2633 -0.3178 -0.2629
    3MOL   O504 2308   1.064   4.088   7.278 -0.0850  0.2827 -0.6219
    3MOL   O505 2309   1.158   4.284   7.413 -0.0151 -0.2433 -0.2089
    3MOL   C506 2310   1.181   4.032   7.508 -0.1850 -0.5032 -0.5795
    3MOL   C507 2311   1.177   4.090   7.635  0.1235 -0.5521  0.5262
    3MOL   C508 2312   1.216   4.018   7.747 -0.2316 -0.6450 -0.1101
    3MOL   C509 2313   1.248   3.884   7.736  0.3829 -0.0417 -0.1903
    3MOL   C510 2314   1.255   3.827   7.607 -0.1474 -0.6409  0.7048
    3MOL   C511 2315   1.219   3.902   7.493 -0.5151  0.3297 -0.5645
    3MOL   O512 2316   1.297   3.825   7.850 -0.0095 -0.5148  0.9529
    3MOL   C513 2317   1.251   3.700   7.883 -0.2507 -0.0995  0.2640
    3MOL   C514 2318   1.303   3.578   7.829  0.2651  0.5441 -0.3872
    3MOL   C515 2319   1.252   3.451   7.867  0.2526 -0.2297  0.1735
    3MOL   C516 2320   1.149   3.436   7.963  0.0363 -0.5616 -0.0195
    3MOL   C517 2321   1.093   3.553   8.014 -0.4411  0.0771  0.5102
    3MOL   C518 2322   1.143   3.681   7.971 -0.4600  0.2859 -0.0542
    3MOL   C519 2323   1.101   3.300   8.007 -0.5649  0.3878  0.6309
    3MOL   C520 2324   0.962   3.261   7.998  0.4348 -0.3481  0.2409
    3MOL   C521 2325   0.925   3.135   8.033 -0.2876  1.1528  0.1164
    3MOL   C522 2326   1.023   3.035   8.064  0.0675 -0.0240  0.3274
    3MOL   C523 2327   1.155   3.072   8.077 -0.2627  0.2751  0.2320
    3MOL   C524 2328   1.194   3.203   8.046 -0.0982  0.6691 -0.7526
    3MOL   O525 2329   0.984   2.914   8.111 -0.2238 -0.4495  0.0460
    3MOL   H526 2330   1.646   4.024   7.311  1.4960  1.4830 -1.0134
    3MOL   H527 2331   1.434   4.038   7.429 -3.8959  0.6434  0.3687
    3MOL   H528 2332   1.245   4.228   7.101  0.1297  3.1213  2.6009
    3MOL   H529 2333   1.456   4.232   6.978 -0.3609  0.5372  0.0586
    3MOL   H530 2334   1.156   4.196   7.642  0.6004 -0.4571  0.5214
    3MOL   H531 2335   1.221   4.066   7.844 -0.0773  0.9343 -0.8794
    3MOL   H532 2336   1.278   3.722   7.610 -0.0123 -0.5996  1.2794
    3MOL   H533 2337   1.231   3.847   7.401  0.9152  0.4251 -0.4489
    3MOL   H534 2338   1.389   3.579   7.765 -0.1188 -1.0888 -0.9683
    3MOL   H535 2339   1.297   3.365   7.820  2.3486  0.1685  1.3601
    3MOL   H536 2340   1.009   3.544   8.081  0.0136 -3.6622  0.6467
    3MOL   H537 2341   1.086   3.765   8.007 -1.3509 -0.2065 -0.3066
    3MOL   H538 2342   0.882   3.327   7.966  1.7465  1.3052  0.3376
    3MOL   H539 2343   0.820   3.109   8.041 -0.8279  3.1770 -0.1292
    3MOL   H540 2344   1.233   3.003   8.106  0.3036  0.6647 -0.3537
    3MOL   H541 2345   1.299   3.226   8.056  0.2168 -1.5144  1.3828
    3MOL   C542 2346   0.974   2.808   8.027  0.1677  0.6132  0.0060
    3MOL   C543 2347   1.072   2.707   8.030 -0.1529  0.0702  0.5201
    3MOL   C544 2348   1.055   2.601   7.938  0.2429  0.1073 -0.2035
    3MOL   C545 2349   0.937   2.584   7.862 -0.1661 -0.6396  0.2511
    3MOL   C546 2350   0.849   2.693   7.856  0.5037  0.2749 -0.2425
    3MOL   C547 2351   0.864   2.808   7.940 -0.4437  0.9653 -0.2681
    3MOL   S548 2352   0.902   2.440   7.754 -0.3674 -0.2519 -0.0868
    3MOL   O549 2353   1.016   2.443   7.657 -0.0698  0.3870  0.2809
    3MOL   O550 2354   0.763   2.451   7.707  0.0936 -0.3392 -0.1441
    3MOL   C551 2355   0.910   2.290   7.853 -1.0355  0.5982 -0.1681
    3MOL   C552 2356   0.937   2.292   7.989  0.8274 -0.2184 -0.1700
    3MOL   C553 2357   0.956   2.166   8.059  0.4583  0.5834  0.4204
    3MOL   C554 2358   0.916   2.041   7.994 -0.4366 -0.0489 -0.0063
    3MOL   C555 2359   0.880   2.044   7.849 -0.3603 -0.8609 -1.1558
    3MOL   C556 2360   0.889   2.169   7.784 -0.0783 -0.4270  0.3013
    3MOL   O557 2361   0.922   1.923   8.059  0.3749 -0.3303  0.0954
    3MOL   C558 2362   0.817   1.873   8.127  0.7731 -0.6878 -0.2264
    3MOL   C559 2363   0.683   1.924   8.116 -0.0795  0.5953  0.1854
    3MOL   C560 2364   0.577   1.873   8.193  0.0247  0.3110 -0.5179
    3MOL   C561 2365   0.597   1.776   8.299 -0.4968 -0.1739 -0.1457
    3MOL   C562 2366   0.731   1.736   8.314  0.2574  0.4994 -0.6728
    3MOL   C563 2367   0.837   1.775   8.228 -0.0159  0.4050 -0.2761
    3MOL   C564 2368   0.495   1.727   0.031  0.4273  0.0810  0.1801
    3MOL   C565 2369   0.502   1.596   0.085 -0.6372 -0.6898 -0.3366
    3MOL   C566 2370   0.391   1.534   0.149  0.5435 -0.4429  0.4296
    3MOL   C567 2371   0.271   1.605   0.169 -0.0555 -0.1046  0.2986
    3MOL   C568 2372   0.264   1.738   0.120 -0.5488  0.0808  0.8258
    3MOL   C569 2373   0.374   1.795   0.052 -0.2140  0.3914 -1.0511
    3MOL   O570 2374   0.167   1.549   0.242  0.6720 -0.4017  0.6731
    3MOL   H571 2375   1.162   2.704   8.091  0.0131 -1.7829  0.2014
    3MOL   H572 2376   1.137   2.532   7.923  1.1753  1.2722 -0.5509
    3MOL   H573 2377   0.776   2.693   7.776  1.3034  1.8466 -0.9879
    3MOL   H574 2378   0.789   2.885   7.931 -0.1647  1.4429  1.4005
    3MOL   H575 2379   0.942   2.384   8.046  0.6969  0.9191 -1.9817
    3MOL   H576 2380   0.987   2.166   8.162  0.1426  0.4812  0.5162
    3MOL   H577 2381   0.875   1.945   7.807 -0.4093 -1.6890  0.7477
    3MOL   H578 2382   0.883   2.175   7.677  0.3992 -0.0864  0.2921
    3MOL   H579 2383   0.668   1.994   8.036 -1.9355 -0.1608 -0.1408
    3MOL   H580 2384   0.481   1.910   8.160 -0.4748 -0.8041 -0.3073
    3MOL   H581 2385   0.750   1.665   0.026  0.7484  0.9013 -0.4247
    3MOL   H582 2386   0.930   1.721   8.237  0.6654  1.2742 -1.9291
    3MOL   H583 2387   0.596   1.542   0.084  0.6099  1.4262  0.0013
    3MOL   H584 2388   0.409   1.432   0.180  0.4339 -0.7182 -0.3877
    3MOL   H585 2389   0.172   1.795   0.118  0.6795  2.1057 -0.5360
    3MOL   H586 2390   0.374   1.894   0.010  0.2728  0.5724 -0.6307
    3MOL   C587 2391   0.053   1.615   0.273  0.0301  0.2157 -0.3028
    3MOL   C588 2392   0.057   1.715   0.370  0.1223  0.3215  0.1366
    3MOL   C589 2393   8.303   1.778   0.410  0.0159 -0.2059  0.0311
    3MOL   C590 2394   8.178   1.738   0.344  0.3557 -0.2228  0.1295
    3MOL   C591 2395   8.181   1.646   0.240  0.2054 -0.3844 -0.1664
    3MOL   C592 2396   8.298   1.582   0.207 -0.5189 -0.9309  0.0383
    3MOL   S593 2397   8.021   1.813   0.390 -0.1262  0.5014 -0.2973
    3MOL   O594 2398   7.954   1.838   0.261 -0.0916 -0.2821  0.1093
    3MOL   O595 2399   8.058   1.929   0.479  0.1856  0.3601 -0.0667
    3MOL   C596 2400   7.943   1.687   0.489  0.0324  0.5019  0.1442
    3MOL   C597 2401   7.904   1.570   0.430 -0.2696 -0.2769  0.1299
    3MOL   C598 2402   7.874   1.455   0.511  0.6835  1.2235  1.1387
    3MOL   C599 2403   7.868   1.465   0.646  0.4526  0.0953 -0.0313
    3MOL   C600 2404   7.892   1.589   0.705  0.3173  0.0541 -0.3318
    3MOL   C601 2405   7.939   1.699   0.623 -0.2639 -0.2158 -0.5315
    3MOL   O602 2406   7.818   1.364   0.722  0.0821  0.1748 -0.2096
    3MOL   C603 2407   7.891   1.249   0.728  0.6659  0.6071  0.6613
    3MOL   C604 2408   7.851   1.143   0.646  0.3160 -0.2220  0.6606
    3MOL   C605 2409   7.911   1.013   0.660  0.1109 -0.6037 -0.0488
    3MOL   C606 2410   8.023   0.993   0.751  0.6985 -0.0490 -0.0912
    3MOL   C607 2411   8.058   1.105   0.826 -0.0187  0.2723  0.0490
    3MOL   C608 2412   7.998   1.230   0.818 -0.4224  0.5832  0.3855
    3MOL   C609 2413   8.098   0.868   0.765 -0.4085  0.2958 -0.0496
    3MOL   C610 2414   8.232   0.861   0.807  0.5557 -0.1823  0.0440
    3MOL   C611 2415   8.298   0.736   0.807 -0.0307  0.2436 -0.6260
    3MOL   C612 2416   8.231   0.620   0.780 -0.8568  0.4366 -0.6133
    3MOL   C613 2417   8.102   0.622   0.731 -0.2448 -0.5949 -0.1363
    3MOL   C614 2418   8.034   0.749   0.730  0.2562  0.3945  0.7407
    3MOL   O615 2419   8.285   0.495   0.799  0.5051  0.4034  0.0379
    3MOL   H616 2420   0.148   1.742   0.421 -0.0239  2.1139 -0.5044
    3MOL   H617 2421   8.294   1.857   0.483 -3.7082 -0.8292  0.3337
    3MOL   H618 2422   8.088   1.624   0.190 -0.3600 -2.1431  1.5655
    3MOL   H619 2423   8.295   1.505   0.131 -2.3821 -0.6938 -0.1628
    3MOL   H620 2424   7.892   1.548   0.325 -2.5500 -1.4203  0.6115
    3MOL   H621 2425   7.837   1.363   0.468 -0.8928  1.2538  2.4248
    3MOL   H622 2426   7.864   1.601   0.808 -0.9144 -1.1198 -0.5142
    3MOL   H623 2427   7.966   1.798   0.659 -1.0406 -0.2169  0.0660
    3MOL   H624 2428   7.773   1.149   0.572  2.4970 -0.8855 -1.7429
    3MOL   H625 2429   7.877   0.932   0.598  1.5812 -0.7885 -0.6343
    3MOL   H626 2430   8.132   1.102   0.905 -0.2336  2.1688  0.3468
    3MOL   H627 2431   8.022   1.301   0.895  0.8912  0.4152  0.1369
    3MOL   H628 2432   8.285   0.949   0.842  0.3550 -1.3112  3.3215
    3MOL   H629 2433   0.026   0.740   0.859  0.6022 -0.0000 -1.7281
    3MOL   H630 2434   8.042   0.535   0.711  0.6191 -0.8914 -1.5017
    3MOL   H631 2435   7.938   0.752   0.682 -0.1593 -1.8775  1.3681
    3MOL   C632 2436   0.025   0.470   0.879  0.6948  0.4942 -1.0015
    3MOL   C633 2437   0.026   0.517   1.013  0.5636 -0.0464  0.1345
    3MOL   C634 2438   0.135   0.497   1.103 -0.9441 -0.0991  0.6856
    3MOL   C635 2439   0.249   0.427   1.057 -0.9124 -0.0498 -0.3516
    3MOL   C636 2440   0.250   0.366   0.926 -0.1840 -0.0462 -0.5630
    3MOL   C637 2441   0.135   0.390   0.835  0.4306  0.1362 -0.4094
    3MOL   S638 2442   0.393   0.431   1.161 -0.0663 -0.1988 -0.1678
    3MOL   O639 2443   0.461   0.304   1.149 -1.0759  0.0428 -0.3158
    3MOL   O640 2444   0.353   0.481   1.294  0.6419  0.0473 -0.0830
    3MOL   C641 2445   0.502   0.557   1.091 -0.6399  0.5798 -0.2281
    3MOL   C642 2446   0.444   0.657   1.013 -0.1704 -0.4563 -0.7556
    3MOL   C643 2447   0.526   0.754   0.948  0.4151 -0.5545 -0.6404
    3MOL   C644 2448   0.661   0.755   0.973  0.3044 -0.4594  0.7352
    3MOL   C645 2449   0.723   0.657   1.054  0.8921 -0.0723 -0.4516
    3MOL   C646 2450   0.638   0.555   1.116 -0.4125  0.6128  0.1952
    3MOL   O647 2451   0.736   0.846   0.907 -0.3245 -0.1712 -0.9084
    3MOL   C648 2452   0.804   0.814   0.798 -0.0866 -0.4011  0.2503
    3MOL   C649 2453   0.733   0.765   0.684  0.4151  0.1719 -0.1101
    3MOL   C650 2454   0.806   0.734   0.566  0.1660 -0.0537  0.0543
    3MOL   C651 2455   0.944   0.737   0.569 -0.5544  0.5762 -0.3825
    3MOL   C652 2456   1.011   0.785   0.684  0.3260  0.1629 -0.0520
    3MOL   C653 2457   0.942   0.827   0.798 -0.2415  0.1124 -0.6702
    3MOL   C654 2458   1.017   0.698   0.447 -0.3283 -0.0443  0.3574
    3MOL   C655 2459   1.090   0.788   0.376 -0.4293  0.2583  0.1905
    3MOL   C656 2460   1.169   0.757   0.262 -0.2030  0.1044  0.0313
    3MOL   C657 2461   1.172   0.618   0.223 -0.1368  0.2094 -0.0197
    3MOL   C658 2462   1.098   0.522   0.302 -0.4692 -0.0082  0.7018
    3MOL   C659 2463   1.021   0.561   0.412 -0.8612  0.4360 -0.7092
    3MOL   O660 2464   1.256   0.567   0.124  0.0357  0.3309  0.0016
    3MOL   H661 2465   8.299   0.564   1.042 -0.1679 -0.7497 -1.0437
    3MOL   H662 2466   0.121   0.546   1.198  2.5572 -0.2699  1.3402
    3MOL   H663 2467   0.336   0.313   0.888  1.7188  1.8355  0.9825
    3MOL   H664 2468   0.139   0.358   0.732  1.2294 -1.8151  0.2052
    3MOL   H665 2469   0.337   0.660   0.997 -0.6272 -0.5650  2.0676
    3MOL   H666 2470   0.482   0.842   0.902 -0.7602 -0.5699  0.4132
    3MOL   H667 2471   0.830   0.658   1.070  0.9108 -0.1490 -0.5697
    3MOL   H668 2472   0.689   0.485   1.180 -1.0348  0.1487  0.1882
    3MOL   H669 2473   0.625   0.767   0.684  0.4128 -0.0332  0.6291
    3MOL   H670 2474   0.763   0.703   0.472  1.8768 -0.5565 -0.5808
    3MOL   H671 2475   1.118   0.774   0.679  0.1888 -2.3513  1.4390
    3MOL   H672 2476   0.988   0.855   0.892  0.8331 -2.0578 -0.5313
    3MOL   H673 2477   1.104   0.888   0.415  2.5572 -1.2353  3.2405
    3MOL   H674 2478   1.228   0.835   0.216 -0.2651  0.3298  0.3366
    3MOL   H675 2479   1.102   0.420   0.266  0.6457  1.3361 -3.2924
    3MOL   H676 2480   0.961   0.489   0.466  1.9378 -0.9435  0.6153
    3MOL   C677 2481   1.348   0.646   0.056  0.1392  0.0833  0.3968
    3MOL   C678 2482   1.304   0.726   8.312 -0.3194 -0.2355  0.4215
    3MOL   C679 2483   1.390   0.825   8.259 -0.7943 -0.0879  0.0062
    3MOL   C680 2484   1.527   0.824   8.299 -0.3332  0.6355  0.1205
    3MOL   C681 2485   1.561   0.757   0.055 -0.4561 -0.4069 -0.2849
    3MOL   C682 2486   1.474   0.662   0.110 -0.2560 -0.0213 -0.4795
    3MOL   S683 2487   1.651   0.927   8.213 -0.1643 -0.1009 -0.0462
    3MOL   O684 2488   1.583   1.040   8.138 -0.1121  0.2154 -0.5329
    3MOL   O685 2489   1.742   0.837   8.142 -0.3345  0.5337  0.1117
    3MOL   C686 2490   1.743   0.995   8.355  0.0782  0.1448 -0.3179
    3MOL   C687 2491   1.675   1.055   0.103  0.4783  0.1988  1.4367
    3MOL   C688 2492   1.739   1.103   0.216  0.1785  0.3661  0.3521
    3MOL   C689 2493   1.877   1.074   0.230  0.5109  0.1387  0.1488
    3MOL   C690 2494   1.941   1.015   0.120  0.2558 -0.1644  0.0475
    3MOL   C691 2495   1.878   0.976   8.365  0.8261  0.2596  0.4666
    3MOL   O692 2496   1.950   1.097   0.346  0.0885  0.1549 -0.0052
    3MOL   C693 2497   1.923   1.035   0.462 -0.1647  0.1401 -0.5726
    3MOL   C694 2498   1.962   1.107   0.580  0.2714 -0.1847  0.6729
    3MOL   C695 2499   1.934   1.044   0.707 -0.7889 -0.1919 -0.1180
    3MOL   C696 2500   1.887   0.912   0.710  0.6171  0.5177  0.2693
    3MOL   C697 2501   1.855   0.843   0.592 -0.3066  0.1099  1.1132
    3MOL   C698 2502   1.881   0.900   0.467 -0.0292 -0.4599 -0.1498
    3MOL   C699 2503   1.866   0.834   0.835  0.2802  0.7476 -0.4107
    3MOL   C700 2504   1.747   0.762   0.859 -0.2722  0.3448  0.0277
    3MOL   C701 2505   1.724   0.691   0.976 -0.4542 -0.1458  0.0588
    3MOL   C702 2506   1.833   0.665   1.064 -0.2546  0.2568  0.6461
    3MOL   C703 2507   1.956   0.723   1.035  0.7038 -0.1147  0.7146
    3MOL   C704 2508   1.969   0.821   0.934 -0.4627  0.3545 -0.4931
    3MOL   O705 2509   1.820   0.576   1.170  0.0779 -0.2030  0.1269
    3MOL   H706 2510   1.208   0.719   8.263  0.0823  1.1287 -0.5774
    3MOL   H707 2511   1.358   0.887   8.176 -0.5359  1.4876  1.0534
    3MOL   H708 2512   1.660   0.759   0.097 -0.0319  0.5006 -1.2891
    3MOL   H709 2513   1.515   0.600   0.188 -0.4815 -0.9647 -1.1058
    3MOL   H710 2514   1.571   1.078   0.083  0.4833 -1.1316 -0.2273
    3MOL   H711 2515   1.693   1.163   0.293  1.1817  1.3944  0.1613
    3MOL   H712 2516   2.045   0.988   0.127  0.3893 -0.7519 -3.2175
    3MOL   H713 2517   1.927   0.933   8.279 -1.8543 -2.1338  0.0517
    3MOL   H714 2518   2.000   1.208   0.577 -0.1419 -0.0026  1.5250
    3MOL   H715 2519   1.960   1.100   0.796 -0.3899 -1.4071  0.5473
    3MOL   H716 2520   1.823   0.740   0.595  2.2396 -0.6728  2.5677
    3MOL   H717 2521   1.854   0.838   0.383  1.5106 -1.8868  0.4045
    3MOL   H718 2522   1.662   0.777   0.794 -1.1641 -2.1432  0.5944
    3MOL   H719 2523   1.630   0.638   0.987 -0.0468 -1.0629 -0.7076
    3MOL   H720 2524   2.033   0.711   1.109  2.1367 -0.6098 -0.8127
    3MOL   H721 2525   2.061   0.877   0.936 -0.1726 -0.1395  2.1428
    3MOL   C722 2526   1.785   0.446   1.145  0.4019 -0.2555  0.6304
    3MOL   C723 2527   1.880   0.353   1.107 -0.1475  0.8631 -0.2294
    3MOL   C724 2528   1.842   0.217   1.087 -0.4198 -0.5387 -0.3094
    3MOL   C725 2529   1.707   0.180   1.110  0.2301 -0.2344  0.3372
    3MOL   C726 2530   1.615   0.272   1.161  0.3318 -0.3472  0.2775
    3MOL   C727 2531   1.652   0.406   1.172  0.1279 -0.1186  0.0504
    3MOL   S728 2532   1.649   0.003   1.111 -0.1229  0.0581  0.1627
    3MOL   O729 2533   1.757   8.278   1.149 -0.5054 -0.4149  0.3460
    3MOL   O730 2534   1.576   8.352   0.980 -0.0032  0.4825  0.3753
    3MOL   C731 2535   1.525   8.363   1.245  0.0008  1.1162 -0.3179
    3MOL   C732 2536   1.567   0.007   1.375  0.3779  0.3551  0.3139
    3MOL   C733 2537   1.474   8.361   1.481 -0.0658  0.1437  0.4464
    3MOL   C734 2538   1.335   8.338   1.440  0.3755 -0.4768  0.0818
    3MOL   C735 2539   1.299   8.324   1.312  1.2717 -0.4945  0.7375
    3MOL   C736 2540   1.395   8.333   1.207  0.6103  0.9841  1.0823
    3MOL   O737 2541   1.240   8.336   1.541  0.0411  0.4064  0.4580
    3MOL   C738 2542   1.148   0.068   1.536  0.7609  0.1179 -0.0327
    3MOL   C739 2543   1.011   0.038   1.545  0.1441  0.7920  0.3581
    3MOL   C740 2544   0.921   0.144   1.548 -0.0090 -0.1614 -0.2125
    3MOL   C741 2545   0.960   0.277   1.530  0.5826  0.2706  0.4578
    3MOL   C742 2546   1.093   0.309   1.519  0.3231  0.1960  1.0500
    3MOL   C743 2547   1.191   0.205   1.524 -0.2435 -0.5840  0.0126
    3MOL   C744 2548   0.856   0.387   1.530 -0.2900 -0.3008 -0.7682
    3MOL   C745 2549   0.888   0.519   1.567  0.0355 -0.4049  0.3936
    3MOL   C746 2550   0.792   0.616   1.578 -0.1644 -0.6846 -0.6796
    3MOL   C747 2551   0.660   0.590   1.558  0.1935  0.0966  0.3394
    3MOL   C748 2552   0.624   0.466   1.507 -0.0629 -0.0796 -0.3477
    3MOL   C749 2553   0.721   0.367   1.488  0.0891 -0.1842  0.0447
    3MOL   O750 2554   0.559   0.680   1.583 -0.6728 -0.2738  0.1601
    3MOL   H751 2555   1.977   0.392   1.081 -0.6828  2.5449  0.2275
    3MOL   H752 2556   1.904   0.133   1.061 -0.9537 -0.7620 -0.8773
    3MOL   H753 2557   1.511   0.251   1.179  0.4773 -1.1444  0.1986
    3MOL   H754 2558   1.584   0.476   1.220 -0.7778 -1.0360  0.1169
    3MOL   H755 2559   1.673   0.013   1.395  0.7520 -0.3000 -1.3833
    3MOL   H756 2560   1.497   0.017   1.584 -0.2568  3.2430 -0.1043
    3MOL   H757 2561   1.196   8.314   1.283  0.8381  2.4693  1.0600
    3MOL   H758 2562   1.366   8.331   1.103 -1.7781 -0.5980  1.7327
    3MOL   H759 2563   0.968   8.305   1.551 -0.7466  1.0821 -0.9234
    3MOL   H760 2564   0.818   0.115   1.562 -0.3379  0.5939 -1.0030
    3MOL   H761 2565   1.135   0.407   1.503  2.1866 -0.9149 -0.9719
    3MOL   H762 2566   1.291   0.234   1.498 -1.0210  1.1876 -1.0526
    3MOL   H763 2567   0.987   0.536   1.605 -0.6257  1.5055  1.3364
    3MOL   H764 2568   0.822   0.708   1.626 -1.0717 -1.3341  1.1805
    3MOL   H765 2569   0.523   0.431   1.490  0.1578 -0.6145 -0.5617
    3MOL   H766 2570   0.696   0.267   1.455  0.5270 -0.4173  0.4180
    3MOL   C767 2571   0.492   0.738   1.479 -0.7102  0.7657 -0.1214
    3MOL   C768 2572   0.559   0.796   1.370  0.1949 -0.7333 -0.3040
    3MOL   C769 2573   0.479   0.849   1.267  0.6439  0.4109 -0.1657
    3MOL   C770 2574   0.340   0.847   1.268  0.2638  1.0714 -0.0151
    3MOL   C771 2575   0.274   0.786   1.375 -0.1814 -0.4392  0.1089
    3MOL   C772 2576   0.353   0.738   1.482 -0.1503 -0.3631 -0.0668
    3MOL   S773 2577   0.254   0.926   1.137  0.0069 -0.0246  0.5339
    3MOL   O774 2578   0.184   0.821   1.065  0.6149 -0.0063 -0.2070
    3MOL   O775 2579   0.359   0.992   1.059 -0.0477  0.2403  0.5409
    3MOL   C776 2580   0.151   1.066   1.197 -0.5358 -0.1677  0.2527
    3MOL   C777 2581   0.154   1.114   1.332 -0.7367 -0.4703  0.2513
    3MOL   C778 2582   0.057   1.211   1.376 -0.0937 -0.2625  0.0034
    3MOL   C779 2583   8.320   1.252   1.286 -0.2093 -0.1708  0.0911
    3MOL   C780 2584   8.323   1.204   1.152 -0.1074  0.2703 -1.1575
    3MOL   C781 2585   0.048   1.110   1.110  0.1853  0.0917 -0.1962
    3MOL   O782 2586   8.236   1.349   1.342 -0.2479  0.2123  0.2251
    3MOL   C783 2587   8.218   1.466   1.275 -0.2199 -0.7106  0.7421
    3MOL   C784 2588   8.134   1.473   1.162  0.4312  0.3241  0.2859
    3MOL   C785 2589   8.116   1.592   1.088  0.0961  0.5849 -0.1114
    3MOL   C786 2590   8.189   1.705   1.120  0.5811 -0.3299  0.5224
    3MOL   C787 2591   8.286   1.699   1.227  0.1187 -0.4252 -0.1309
    3MOL   C788 2592   8.298   1.582   1.304  0.1162 -0.4078  0.3174
    3MOL   C789 2593   8.185   1.822   1.032 -0.0338 -0.0299  0.1513
    3MOL   C790 2594   8.156   1.811   0.895  0.2174  0.2514 -0.1631
    3MOL   C791 2595   8.149   1.931   0.814  0.2299 -0.1226  0.2322
    3MOL   C792 2596   8.176   2.058   0.873  0.7457 -0.2054 -0.2538
    3MOL   C793 2597   8.201   2.066   1.010 -0.2601  0.4401 -0.4211
    3MOL   C794 2598   8.203   1.945   1.089  0.5834  1.0088  0.8504
    3MOL   O795 2599   8.181   2.176   0.797  0.2697 -0.6064 -0.1792
    3MOL   H796 2600   0.666   0.805   1.376  0.2175 -1.1705 -0.0393
    3MOL   H797 2601   0.530   0.900   1.186  0.0503  2.1385  0.5060
    3MOL   H798 2602   0.167   0.771   1.364  0.1824 -1.5388 -2.2217
    3MOL   H799 2603   0.300   0.684   1.559 -1.7871 -0.0692 -0.9796
    3MOL   H800 2604   0.228   1.066   1.395  0.5639 -1.3685 -1.9205
    3MOL   H801 2605   0.077   1.261   1.469  0.0598 -0.3398  0.0124
    3MOL   H802 2606   8.262   1.249   1.075 -1.7399  0.8230  0.4316
    3MOL   H803 2607   0.041   1.066   1.012  1.8035  0.4670 -0.5009
    3MOL   H804 2608   8.079   1.389   1.123 -0.9545  0.9762  0.8064
    3MOL   H805 2609   8.063   1.588   0.995 -0.1323 -0.9326  0.0710
    3MOL   H806 2610   8.343   1.788   1.247 -3.2197  1.8716 -0.4429
    3MOL   H807 2611   0.007   1.572   1.382 -1.2848 -0.2231  1.7090
    3MOL   H808 2612   8.142   1.715   0.847  1.2041 -0.1497  0.3358
    3MOL   H809 2613   8.134   1.916   0.708  2.4231 -0.2612 -0.0894
    3MOL   H810 2614   8.218   2.165   1.048  1.8208  0.9204 -2.4726
    3MOL   H811 2615   8.221   1.950   1.195 -1.8682 -0.8647  1.4012
    3MOL   C812 2616   8.232   2.167   0.672  0.0516  0.0475  0.1119
    3MOL   C813 2617   8.146   2.200   0.568 -0.7079  0.0539 -0.8098
    3MOL   C814 2618   8.197   2.190   0.435  0.0550  0.2102 -0.1899
    3MOL   C815 2619   8.334   2.155   0.411 -0.3580 -0.4975 -0.7983
    3MOL   C816 2620   0.052   2.118   0.521 -0.3001  0.0972 -0.2093
    3MOL   C817 2621   8.364   2.124   0.651  0.4108  0.1712  0.0567
    3MOL   S818 2622   0.026   2.113   0.246 -0.0393  0.1273 -0.0354
    3MOL   O819 2623   8.277   2.096   0.158 -0.1651 -0.7368  0.0782
    3MOL   O820 2624   0.120   2.001   0.265  0.2317  0.2700 -0.0368
    3MOL   C821 2625   0.121   2.251   0.179  0.4908  0.6146  0.1832
    3MOL   C822 2626   0.132   2.269   0.042  0.8120 -0.3518  0.5044
    3MOL   C823 2627   0.211   2.372   8.353  0.6012  0.2796 -0.5123
    3MOL   C824 2628   0.279   2.456   0.073 -0.1484 -0.1120 -0.0119
    3MOL   C825 2629   0.266   2.443   0.210  0.0903 -0.4222 -1.0933
    3MOL   C826 2630   0.190   2.339   0.265  0.1755 -0.4568  0.2753
    3MOL   O827 2631   0.363   2.550   0.019  0.0285 -0.4152  0.0184
    3MOL   C828 2632   0.382   2.675   0.070  0.1373 -0.6259 -0.0862
    3MOL   C829 2633   0.473   2.701   0.173  0.0449  0.2885 -0.2263
    3MOL   C830 2634   0.495   2.834   0.212 -0.1850  0.6411  0.0295
    3MOL   C831 2635   0.420   2.941   0.162  0.3155  0.6636  0.1181
    3MOL   C832 2636   0.329   2.912   0.058  1.0025 -0.1081 -0.5232
    3MOL   C833 2637   0.311   2.782   0.010 -0.6965 -0.1984  0.2575
    3MOL   C834 2638   0.436   3.076   0.219  0.1989 -0.5003 -0.1460
    3MOL   C835 2639   0.540   3.102   0.316  0.0250  0.0809  0.5752
    3MOL   C836 2640   0.544   3.227   0.380 -0.3176  0.7304  0.5479
    3MOL   C837 2641   0.440   3.322   0.365 -0.6560 -0.6466 -0.3084
    3MOL   C838 2642   0.329   3.292   0.281 -0.4391  0.6091 -0.0861
    3MOL   C839 2643   0.333   3.172   0.204 -0.1180 -0.0594  1.3334
    3MOL   O840 2644   0.431   3.432   0.453  0.1172 -0.1204  0.3969
    3MOL   H841 2645   8.046   2.234   0.588 -0.3336  1.3491 -1.1036
    3MOL   H842 2646   8.136   2.225   0.353 -0.4695  1.4464  0.7092
    3MOL   H843 2647   0.147   2.074   0.495  0.1060  0.4920  0.5990
    3MOL   H844 2648   0.046   2.090   0.742 -1.7592  1.4127  1.7095
    3MOL   H845 2649   0.070   2.205   8.347  3.0342 -0.7213 -1.4623
    3MOL   H846 2650   0.221   2.382   8.246 -0.5465 -1.8947 -0.8642
    3MOL   H847 2651   0.328   2.505   0.273  0.6002 -0.2421 -1.7815
    3MOL   H848 2652   0.199   2.319   0.370 -0.6249 -1.0123  0.2388
    3MOL   H849 2653   0.518   2.621   0.230  1.0041  0.7159 -0.3655
    3MOL   H850 2654   0.562   2.840   0.298 -0.0841 -1.5464  0.1310
    3MOL   H851 2655   0.271   2.992   0.015 -2.1070 -1.6485  0.6069
    3MOL   H852 2656   0.253   2.764   8.287 -0.0700 -0.7278 -0.0547
    3MOL   H853 2657   0.618   3.030   0.336  1.4700  0.8901 -1.9288
    3MOL   H854 2658   0.629   3.251   0.442 -0.7647  2.8225  0.3972
    3MOL   H855 2659   0.242   3.356   0.275 -1.9973 -1.2219  2.1266
    3MOL   H856 2660   0.236   3.151   0.162  0.8914 -0.2677 -0.9366
    3MOL   C857 2661   0.464   3.556   0.415 -0.6307  0.0038 -0.3094
    3MOL   C858 2662   0.587   3.582   0.359 -0.3805 -0.0117 -0.7034
    3MOL   C859 2663   0.618   3.702   0.291 -0.4675  0.5172 -0.0482
    3MOL   C860 2664   0.516   3.798   0.287  0.7105 -0.1781 -0.8138
    3MOL   C861 2665   0.391   3.778   0.352 -0.7487 -0.0774 -0.0212
    3MOL   C862 2666   0.365   3.654   0.416 -0.3660  0.0484  0.3400
    3MOL   S863 2667   0.548   3.952   0.197 -0.6898 -0.0355 -0.0591
    3MOL   O864 2668   0.665   4.009   0.261  0.5076  0.8318  0.3108
    3MOL   O865 2669   0.426   4.030   0.190  0.6576 -0.1656 -0.0744
    3MOL   C866 2670   0.590   3.899   0.030  0.1755 -0.3386  0.4331
    3MOL   C867 2671   0.523   3.790   8.334  0.2083 -0.5300  0.0851
    3MOL   C868 2672   0.562   3.753   8.206  0.3420  0.9973  0.6503
    3MOL   C869 2673   0.666   3.815   8.133 -0.4957 -0.7627  0.0711
    3MOL   C870 2674   0.725   3.934   8.195 -0.4609 -0.4622 -0.5410
    3MOL   C871 2675   0.691   3.969   8.329  0.1770 -0.1986 -0.7609
    3MOL   O872 2676   0.709   3.786   8.003 -0.2716 -0.4216  0.0365
    3MOL   C873 2677   0.646   3.695   7.928 -0.7898 -0.6408 -0.2670
    3MOL   C874 2678   0.529   3.737   7.860 -0.4898  0.3878  0.1945
    3MOL   C875 2679   0.468   3.658   7.765  0.1783  0.5905  0.5629
    3MOL   C876 2680   0.513   3.527   7.752 -0.3322 -0.5311  0.2550
    3MOL   C877 2681   0.617   3.476   7.833  0.2134 -0.3946 -0.1511
    3MOL   C878 2682   0.689   3.563   7.916  0.0854 -0.5365  0.1346
    3MOL   C879 2683   0.436   3.436   7.665  0.8606  0.7022  0.3887
    3MOL   C880 2684   0.409   3.466   7.524 -0.5346 -0.3980 -0.1908
    3MOL   C881 2685   0.338   3.374   7.445 -0.5156  0.0760 -0.1911
    3MOL   C882 2686   0.281   3.252   7.493  0.0121 -1.0141 -0.5274
    3MOL   C883 2687   0.317   3.217   7.623  0.3780  0.0906  0.4220
    3MOL   C884 2688   0.387   3.306   7.710  0.8704  0.3664  0.4753
    3MOL   O885 2689   0.223   3.167   7.416 -0.1020 -0.9130  0.0298
    3MOL   H886 2690   0.657   3.500   0.361  1.3556  1.4453 -0.0396
    3MOL   H887 2691   0.709   3.706   0.234  0.8463 -1.4353  1.8291
    3MOL   H888 2692   0.315   3.855   0.354 -0.6179  0.0605 -0.3449
    3MOL   H889 2693   0.266   3.647   0.457  0.0516 -1.2668  1.1548
    3MOL   H890 2694   0.448   3.728   0.014  1.0812 -0.8952  1.0341
    3MOL   H891 2695   0.508   3.666   8.169  0.4455 -0.1620  3.1237
    3MOL   H892 2696   0.804   3.986   8.144  0.3781 -2.1111 -0.9637
    3MOL   H893 2697   0.747   4.043   0.018 -0.4580  0.8932 -1.5514
    3MOL   H894 2698   0.496   3.838   7.877 -1.6803  0.0082  0.1658
    3MOL   H895 2699   0.399   3.703   7.695 -0.2709 -0.3190  0.4203
    3MOL   H896 2700   0.653   3.375   7.817 -1.6834 -0.9159 -1.2006
    3MOL   H897 2701   0.786   3.542   7.957  0.4574  0.2523 -0.3221
    3MOL   H898 2702   0.439   3.560   7.481 -1.3698  0.5408  1.2397
    3MOL   H899 2703   0.328   3.400   7.340  0.7328 -0.3350 -0.4236
    3MOL   H900 2704   0.283   3.121   7.660  1.3570 -0.4269  0.0012
    3MOL   H901 2705   0.408   3.281   7.813 -1.0223  0.7556  0.9880
    3MOL   H902 2706   0.169   3.202   7.347  0.6706 -1.3291 -0.7874
    4MOL     C1 2707   6.619   1.682   8.093  0.1875 -0.2652 -0.1110
    4MOL     C2 2708   6.556   1.751   7.986  0.7275 -0.1376 -0.3100
    4MOL     C3 2709   6.612   1.863   7.927  0.3527  0.0973  0.4580
    4MOL     C4 2710   6.726   1.926   7.987 -0.3950  0.5181  0.5280
    4MOL     C5 2711   6.786   1.862   8.095 -0.1774 -0.1338  0.2311
    4MOL     C6 2712   6.737   1.736   8.145 -0.8145 -0.7625  0.1500
    4MOL     S7 2713   6.811   2.063   7.917 -0.3452 -0.4165  0.1163
    4MOL     O8 2714   6.849   2.156   8.024  0.5470  0.5043 -0.0063
    4MOL     O9 2715   6.718   2.115   7.807 -0.2570  0.4481  0.4433
    4MOL    C10 2716   6.951   1.998   7.837 -0.6248 -0.2070 -0.4158
    4MOL    C11 2717   6.964   1.860   7.816 -0.1139  1.1521  0.4876
    4MOL    C12 2718   7.072   1.809   7.745 -0.5170 -0.0706 -0.1335
    4MOL    C13 2719   7.170   1.908   7.692  0.3627  0.2372  0.2752
    4MOL    C14 2720   7.151   2.048   7.720  0.0981 -0.5080 -0.2755
    4MOL    C15 2721   7.045   2.091   7.792  0.5279  0.3940  0.2224
    4MOL    O16 2722   7.279   1.861   7.620  0.0895  0.3842  0.7202
    4MOL    C17 2723   7.384   1.809   7.696  0.0682  0.0005  0.0954
    4MOL    C18 2724   7.370   1.684   7.754  0.0279  0.3772 -0.4143
    4MOL    C19 2725   7.469   1.636   7.843  0.3429  0.0325 -0.2879
    4MOL    C20 2726   7.588   1.711   7.862 -0.1926 -0.1408 -0.1761
    4MOL    C21 2727   7.613   1.828   7.785  0.2076  0.5056 -0.3493
    4MOL    C22 2728   7.506   1.881   7.707  0.4706 -0.0269 -0.5284
    4MOL    C23 2729   7.690   1.665   7.958 -0.5489  0.0441 -0.4573
    4MOL    C24 2730   7.643   1.603   8.075 -0.2069 -0.9718  0.4778
    4MOL    C25 2731   7.732   1.536   8.158 -0.2110 -0.1581  0.0441
    4MOL    C26 2732   7.867   1.516   8.122  0.9456 -0.3281 -0.7246
    4MOL    C27 2733   7.918   1.572   8.000  0.3900  0.2199  0.3284
    4MOL    C28 2734   7.832   1.646   7.918 -0.4903  0.6083 -0.0863
    4MOL    O29 2735   7.954   1.459   8.210 -0.5917 -0.4648 -0.3797
    4MOL    H30 2736   6.463   1.712   7.949 -1.0286  1.4823  2.1833
    4MOL    H31 2737   6.567   1.914   7.843 -0.9239 -0.7778  0.5997
    4MOL    H32 2738   6.873   1.904   8.143 -0.4705 -0.2845  0.8925
    4MOL    H33 2739   6.782   1.684   8.228  1.0559  1.0298  0.3267
    4MOL    H34 2740   6.888   1.789   7.845  1.0176  0.0093  0.6934
    4MOL    H35 2741   7.091   1.704   7.729  1.1814  0.0752  0.7946
    4MOL    H36 2742   7.232   2.109   7.684 -0.1183  0.3849  0.7409
    4MOL    H37 2743   7.036   2.196   7.816 -0.3282  0.4920 -0.4964
    4MOL    H38 2744   7.285   1.619   7.736 -0.3339  0.9520 -0.7988
    4MOL    H39 2745   7.466   1.541   7.893  1.0570 -0.5789 -1.3719
    4MOL    H40 2746   7.701   1.890   7.790 -1.5843  3.1299 -0.2742
    4MOL    H41 2747   7.528   1.977   7.663  1.2222  0.5694  1.1275
    4MOL    H42 2748   7.538   1.603   8.101 -0.2381 -3.3217  0.4605
    4MOL    H43 2749   7.696   1.505   8.256  0.8646 -0.2670  0.4113
    4MOL    H44 2750   8.021   1.558   7.970 -0.0168  0.2778 -1.1320
    4MOL    H45 2751   7.858   1.672   7.816  0.5826  3.2177  0.8044
    4MOL    H46 2752   6.572   1.593   8.133 -1.4348  1.0792  1.0717
    4MOL    C47 2753   7.913   1.353   8.288  0.2809  0.3319 -0.6005
    4MOL    C48 2754   7.889   1.233   8.222  0.6849  0.0665  0.4932
    4MOL    C49 2755   7.847   1.118   8.297  0.3871 -0.0579 -0.1182
    4MOL    C50 2756   7.861   1.124   0.067 -0.7805 -0.2191 -0.5123
    4MOL    C51 2757   7.894   1.241   0.133 -0.4347 -0.6346  0.0526
    4MOL    C52 2758   7.920   1.356   0.062  0.2387 -1.0194 -0.7896
    4MOL    S53 2759   7.807   0.991   0.180 -0.4039 -0.3617  0.0891
    4MOL    O54 2760   7.717   0.899   0.104  0.2263 -0.2500  0.9566
    4MOL    O55 2761   7.752   1.051   0.302 -0.4203  0.2091 -0.2039
    4MOL    C56 2762   7.957   0.898   0.213 -0.3234  0.1080  0.4764
    4MOL    C57 2763   8.080   0.921   0.154  0.1331 -0.1580 -0.4863
    4MOL    C58 2764   8.190   0.848   0.205 -0.2082  0.3275  0.8762
    4MOL    C59 2765   8.176   0.743   0.295  0.6782  0.0321 -0.6017
    4MOL    C60 2766   8.053   0.730   0.366 -0.0866  0.4577  0.7867
    4MOL    C61 2767   7.945   0.810   0.319 -0.5261 -0.6585  0.3643
    4MOL    O62 2768   8.291   0.669   0.332 -0.2240  0.2052 -0.1307
    4MOL    C63 2769   8.278   0.533   0.351 -0.3966 -0.4438  0.3290
    4MOL    C64 2770   8.297   0.473   0.476 -0.1337  0.2444 -0.2576
    4MOL    C65 2771   8.265   0.337   0.500  0.0056  0.2410 -0.8391
    4MOL    C66 2772   8.211   0.258   0.396 -1.2217 -0.1621 -0.4772
    4MOL    C67 2773   8.210   0.321   0.266  0.1396  0.5852 -0.1918
    4MOL    C68 2774   8.227   0.458   0.246  0.5284  0.0746  0.1220
    4MOL    C69 2775   8.167   0.116   0.412  0.7055 -0.0254 -0.5551
    4MOL    C70 2776   8.104   0.077   0.534 -0.7260  1.0339  0.4119
    4MOL    C71 2777   8.050   8.314   0.548  0.4374  0.0386 -0.7233
    4MOL    C72 2778   8.059   8.223   0.442  0.5798  0.8124  0.9488
    4MOL    C73 2779   8.132   8.254   0.324 -0.1112 -0.3690  0.5571
    4MOL    C74 2780   8.186   0.015   0.312  0.5078 -0.1748 -0.1878
    4MOL    O75 2781   8.002   8.094   0.446 -0.0608  0.5397 -0.3593
    4MOL    H76 2782   7.894   1.232   8.114  0.8599  3.0615  0.4429
    4MOL    H77 2783   7.825   1.023   8.253 -1.4056 -0.0324  0.6646
    4MOL    H78 2784   7.893   1.246   0.241  1.9125  1.5051 -0.0001
    4MOL    H79 2785   7.944   1.454   0.101  1.8488 -1.8526  0.3839
    4MOL    H80 2786   8.089   1.000   0.081 -1.1831  2.7379  2.3386
    4MOL    H81 2787   8.285   0.870   0.158  0.6321 -1.3330  1.7558
    4MOL    H82 2788   8.033   0.656   0.442 -1.3111 -0.2244 -0.1703
    4MOL    H83 2789   7.851   0.795   0.370 -1.6329  0.7672 -1.2272
    4MOL    H84 2790   8.337   0.534   0.556 -0.2809  1.0549 -0.7988
    4MOL    H85 2791   8.272   0.301   0.602 -1.0420 -2.3904 -1.6559
    4MOL    H86 2792   8.172   0.266   0.181 -0.5492 -1.2904  1.2758
    4MOL    H87 2793   8.221   0.496   0.145  0.1379  0.1950  0.1893
    4MOL    H88 2794   8.088   0.148   0.614 -1.0364  0.8291  0.5292
    4MOL    H89 2795   8.002   8.290   0.642 -0.0289  1.6864 -0.5185
    4MOL    H90 2796   8.142   8.183   0.243 -0.5172 -2.9745  2.7150
    4MOL    H91 2797   8.242   0.037   0.222  0.1245 -3.2046 -1.2291
    4MOL    C92 2798   7.883   8.085   0.512 -0.1144 -0.0023 -0.0699
    4MOL    C93 2799   7.882   8.027   0.640  0.1081  0.2150 -0.2371
    4MOL    C94 2800   7.764   7.982   0.698 -0.0859  0.3218  0.4600
    4MOL    C95 2801   7.642   8.016   0.641 -0.5415  0.0992 -0.8929
    4MOL    C96 2802   7.641   8.086   0.519 -0.7726  0.2463  0.9090
    4MOL    C97 2803   7.762   8.116   0.452  0.6221  0.2617  0.3989
    4MOL    S98 2804   7.496   7.948   0.711 -0.2488  0.1889 -0.2058
    4MOL    O99 2805   7.462   8.030   0.828  0.3447 -0.2342  0.1791
    4MOL   O100 2806   7.509   7.803   0.723  0.6195  0.6736 -0.1052
    4MOL   C101 2807   7.355   7.977   0.599 -0.3368 -0.0934 -0.3288
    4MOL   C102 2808   7.235   8.042   0.643 -0.1771  0.5046  0.1186
    4MOL   C103 2809   7.129   8.060   0.550  0.3932  0.5468  0.6659
    4MOL   C104 2810   7.132   7.995   0.423 -0.0602 -0.3505  1.0270
    4MOL   C105 2811   7.254   7.950   0.372  0.5525  0.8494  0.5378
    4MOL   C106 2812   7.363   7.942   0.462 -0.2420  0.2678  0.3278
    4MOL   O107 2813   7.017   8.000   0.351 -0.0489 -0.4178  0.5895
    4MOL   C108 2814   6.967   7.896   0.272 -0.2134  0.4552 -0.6245
    4MOL   C109 2815   6.969   7.770   0.324 -0.6219  0.0579  0.7493
    4MOL   C110 2816   6.922   7.662   0.247  0.3759  0.2393 -0.3781
    4MOL   C111 2817   6.870   7.678   0.115 -0.2203  0.3994  0.0154
    4MOL   C112 2818   6.871   7.812   0.065 -0.2665  0.6135 -0.2037
    4MOL   C113 2819   6.917   7.917   0.145  0.7407 -0.1239  0.3908
    4MOL   C114 2820   6.818   7.563   0.038  0.1036  0.0298 -0.1749
    4MOL   C115 2821   6.814   7.568   8.261  0.3580 -0.1621  0.8244
    4MOL   C116 2822   6.756   7.463   8.187 -0.1174 -0.5667  0.7567
    4MOL   C117 2823   6.685   7.362   8.252  0.6602 -0.3483  0.1631
    4MOL   C118 2824   6.685   7.355   0.024 -0.1231 -0.3987 -0.6274
    4MOL   C119 2825   6.763   7.448   0.101 -0.7507 -0.3552 -1.2037
    4MOL   O120 2826   6.597   7.299   8.171 -0.3497 -0.1973 -0.1805
    4MOL   H121 2827   7.978   8.005   0.683  0.2118  0.8015 -0.1594
    4MOL   H122 2828   7.769   7.940   0.798  2.1925  1.2077  0.7361
    4MOL   H123 2829   7.555   8.122   0.465 -0.0871  1.8607  0.8790
    4MOL   H124 2830   7.758   8.171   0.359 -1.8427  0.2253  0.4609
    4MOL   H125 2831   7.220   8.070   0.746  1.3362 -1.5308  0.9370
    4MOL   H126 2832   7.035   8.107   0.576  1.1964  2.1116  0.8328
    4MOL   H127 2833   7.265   7.917   0.270  1.4362 -2.8597  1.7725
    4MOL   H128 2834   7.459   7.911   0.421 -0.6128 -1.4386  0.6944
    4MOL   H129 2835   6.995   7.746   0.426 -1.7280 -2.4651  0.4819
    4MOL   H130 2836   6.941   7.565   0.289 -0.7901  0.8802  1.7060
    4MOL   H131 2837   6.833   7.842   8.335 -2.6111  0.8905  0.7498
    4MOL   H132 2838   6.913   8.014   0.097 -2.2964 -1.2487 -1.7613
    4MOL   H133 2839   6.864   7.650   8.212 -1.9082  1.0337  0.4812
    4MOL   H134 2840   6.749   7.470   8.079  2.5850  2.3673  0.6868
    4MOL   H135 2841   6.629   7.278   0.075 -0.1767  0.8125  1.2140
    4MOL   H136 2842   6.759   7.440   0.209 -1.0567 -2.6049 -1.3619
    4MOL   C137 2843   6.633   7.174   8.124  0.3135 -0.5871  0.1236
    4MOL   C138 2844   6.654   7.061   8.201 -0.4858 -0.2628  0.9617
    4MOL   C139 2845   6.670   6.934   8.140 -0.3496 -0.1775  0.0189
    4MOL   C140 2846   6.653   6.925   8.005 -0.4687 -0.0309  0.2823
    4MOL   C141 2847   6.620   7.033   7.920 -0.1579  0.4974 -0.3116
    4MOL   C142 2848   6.622   7.157   7.985  0.8122 -0.5800 -1.2304
    4MOL   S143 2849   6.669   6.757   7.933  0.2261 -0.0505  0.2856
    4MOL   O144 2850   6.813   6.721   7.928  0.4033  0.3822  0.6250
    4MOL   O145 2851   6.595   6.763   7.809 -0.9396 -0.3914  0.5298
    4MOL   C146 2852   6.595   6.634   8.043 -0.1053 -0.3305  0.2382
    4MOL   C147 2853   6.491   6.665   8.133  0.0648  0.0541 -0.0355
    4MOL   C148 2854   6.453   6.562   8.231  0.4606 -0.6708 -0.2355
    4MOL   C149 2855   6.521   6.442   8.237 -0.4395  0.6162 -0.7420
    4MOL   C150 2856   6.603   6.410   8.129 -0.1083 -0.9075  0.4271
    4MOL   C151 2857   6.642   6.505   8.035  0.6767 -0.1932 -0.0650
    4MOL   O152 2858   6.494   6.343   8.327  0.6699 -0.9133  0.3393
    4MOL   C153 2859   6.506   6.372   0.094  0.5879  1.0529  0.0497
    4MOL   C154 2860   6.613   6.440   0.158 -0.0614  0.1883 -0.3399
    4MOL   C155 2861   6.627   6.447   0.299  1.2040  0.0596 -1.0327
    4MOL   C156 2862   6.533   6.375   0.384  0.1587  0.5138  0.1084
    4MOL   C157 2863   6.420   6.318   0.323  0.1318 -0.6688  0.6996
    4MOL   C158 2864   6.410   6.315   0.182  0.1379  0.1387 -0.4054
    4MOL   C159 2865   6.553   6.378   0.533 -0.1338 -0.3345  0.1271
    4MOL   C160 2866   6.683   6.356   0.584 -0.1122  0.1291  0.1022
    4MOL   C161 2867   6.703   6.350   0.729 -0.0850  0.5667  0.4378
    4MOL   C162 2868   6.594   6.374   0.812  0.2205  0.1493 -0.6381
    4MOL   C163 2869   6.469   6.394   0.759 -0.5342 -0.6734 -0.9835
    4MOL   C164 2870   6.442   6.402   0.620 -0.6555 -0.9934 -0.8329
    4MOL   O165 2871   6.613   6.365   0.951  0.2982 -0.4465  0.2197
    4MOL   H166 2872   6.660   7.059   8.309  0.4783 -1.4304  0.8984
    4MOL   H167 2873   6.704   6.846   8.193 -2.2920 -2.0909 -1.8289
    4MOL   H168 2874   6.596   7.017   7.816  1.3452  1.0241 -0.7447
    4MOL   H169 2875   6.606   7.247   7.928 -0.8729 -0.4715 -0.6066
    4MOL   H170 2876   6.453   6.766   8.135  1.0853  0.4297  3.6512
    4MOL   H171 2877   6.389   6.587   8.315 -1.0834 -0.0437 -1.5632
    4MOL   H172 2878   6.636   6.307   8.119  0.0546 -0.8205  0.0801
    4MOL   H173 2879   6.711   6.482   7.955 -0.1214 -0.0763 -0.8013
    4MOL   H174 2880   6.690   6.490   0.101  0.2679 -1.0133 -0.9639
    4MOL   H175 2881   6.703   6.506   0.347 -0.0625  0.9228 -0.0611
    4MOL   H176 2882   6.355   6.258   0.384  0.7585  0.1292  2.1611
    4MOL   H177 2883   6.330   6.250   0.149 -0.6973 -0.4424  2.5904
    4MOL   H178 2884   6.761   6.339   0.512  1.2807  2.7212  0.9262
    4MOL   H179 2885   6.800   6.321   0.767 -1.7247 -3.0283  2.0544
    4MOL   H180 2886   6.390   6.418   0.828  0.3199  2.2149 -0.9753
    4MOL   H181 2887   6.345   6.419   0.577 -0.5681 -0.5381 -0.8473
    4MOL   C182 2888   6.630   6.479   1.020 -0.6823 -0.5742 -0.5444
    4MOL   C183 2889   6.589   6.488   1.155  0.2541  0.6103 -0.5950
    4MOL   C184 2890   6.595   6.606   1.236 -0.4852  0.1445  0.7928
    4MOL   C185 2891   6.650   6.723   1.171  0.0420  0.7165 -0.1348
    4MOL   C186 2892   6.691   6.723   1.032 -0.0794  0.2405  0.6781
    4MOL   C187 2893   6.682   6.605   0.962 -0.0433  0.0515  0.4134
    4MOL   S188 2894   6.675   6.866   1.274  0.1888  0.1630 -0.0937
    4MOL   O189 2895   6.821   6.865   1.301 -0.7389 -0.2461 -0.0224
    4MOL   O190 2896   6.584   6.864   1.382 -0.0228 -0.0290 -0.1305
    4MOL   C191 2897   6.623   7.001   1.183 -0.3436 -0.1944 -0.3297
    4MOL   C192 2898   6.518   6.999   1.095  0.9983 -0.5421  0.8624
    4MOL   C193 2899   6.462   7.124   1.059  0.7363 -0.4111  0.0810
    4MOL   C194 2900   6.514   7.252   1.098 -0.0769  0.7223 -0.0936
    4MOL   C195 2901   6.637   7.256   1.170 -0.2939  0.0461 -0.9171
    4MOL   C196 2902   6.685   7.129   1.218  0.3352  0.2431 -0.3133
    4MOL   O197 2903   6.445   7.363   1.085 -0.1294 -0.3013  0.0346
    4MOL   C198 2904   6.443   7.421   0.960 -0.3568 -0.2439  0.2180
    4MOL   C199 2905   6.516   7.539   0.935 -0.1490 -0.4790 -0.5856
    4MOL   C200 2906   6.497   7.613   0.819  0.3429 -0.3198  0.5663
    4MOL   C201 2907   6.406   7.567   0.721  0.3711 -0.1164 -0.4937
    4MOL   C202 2908   6.332   7.447   0.750  0.3690 -0.2589 -0.4587
    4MOL   C203 2909   6.350   7.378   0.869 -0.7049 -0.0860 -0.4208
    4MOL   C204 2910   6.370   7.647   0.603  1.0977  0.1605  0.5607
    4MOL   C205 2911   6.272   7.743   0.606  0.2462 -0.9974  0.9444
    4MOL   C206 2912   6.233   7.819   0.493 -0.5051  0.2292  0.2262
    4MOL   C207 2913   6.293   7.803   0.373  0.0677  0.5056  0.2733
    4MOL   C208 2914   6.401   7.714   0.367  0.1727  0.1359  0.5810
    4MOL   C209 2915   6.437   7.642   0.480  0.5495  0.1167  0.8858
    4MOL   O210 2916   6.261   7.873   0.258  0.1440  0.0118  0.3380
    4MOL   H211 2917   6.555   6.397   1.201  0.3124  0.4803 -0.8106
    4MOL   H212 2918   6.564   6.614   1.339 -2.1533  1.1654  0.2417
    4MOL   H213 2919   6.717   6.813   0.977 -0.3277 -1.1643 -1.8311
    4MOL   H214 2920   6.707   6.608   0.857  0.9550 -0.9184  0.6080
    4MOL   H215 2921   6.475   6.903   1.075  1.6484 -1.3065  2.9933
    4MOL   H216 2922   6.367   7.116   1.009 -0.4341 -0.1915  2.2003
    4MOL   H217 2923   6.685   7.350   1.194  1.7243 -0.8733 -1.2470
    4MOL   H218 2924   6.764   7.131   1.292  1.0075 -2.5248 -0.9052
    4MOL   H219 2925   6.586   7.574   1.010 -0.9800 -1.0244  0.4592
    4MOL   H220 2926   6.555   7.704   0.814 -1.6052  1.0859  2.5970
    4MOL   H221 2927   6.268   7.390   0.684  0.7464  0.3231 -1.3373
    4MOL   H222 2928   6.301   7.283   0.884 -1.0060  0.2273  0.5966
    4MOL   H223 2929   6.213   7.754   0.696 -0.5851  2.6715  0.0477
    4MOL   H224 2930   6.153   7.889   0.510 -1.3390 -0.6939  0.1189
    4MOL   H225 2931   6.450   7.701   0.272 -0.8859  0.5811 -0.0255
    4MOL   H226 2932   6.509   7.561   0.480 -0.7543 -1.0413  1.0213
    4MOL   C227 2933   6.234   8.005   0.270 -0.7543 -0.5675 -0.1533
    4MOL   C228 2934   6.333   8.101   0.280  0.6394 -0.0658 -0.9602
    4MOL   C229 2935   6.301   8.235   0.283 -0.4895 -0.1103 -0.1148
    4MOL   C230 2936   6.169   8.279   0.267 -0.0073 -0.5392 -0.2079
    4MOL   C231 2937   6.070   8.182   0.258  0.1920 -0.1852 -0.0428
    4MOL   C232 2938   6.100   8.043   0.258 -0.1346 -0.1931 -0.0072
    4MOL   S233 2939   6.123   0.089   0.249  0.5176 -0.2463  0.2547
    4MOL   O234 2940   6.130   0.144   0.387 -0.1020  0.1853  0.2424
    4MOL   O235 2941   5.997   0.095   0.173  0.2093 -0.1581  0.3099
    4MOL   C236 2942   6.264   0.162   0.151  0.2563 -0.1386 -0.9910
    4MOL   C237 2943   6.305   0.097   0.035 -0.9165 -0.2885  0.0273
    4MOL   C238 2944   6.409   0.157   8.323 -0.6700 -0.1498  0.0289
    4MOL   C239 2945   6.464   0.283   8.359  0.9489 -0.5208 -0.3180
    4MOL   C240 2946   6.417   0.348   0.115 -0.2888  0.1199  0.3004
    4MOL   C241 2947   6.315   0.288   0.198  0.3294 -0.2240  0.5640
    4MOL   O242 2948   6.546   0.342   8.269 -0.7014  0.2486 -0.0881
    4MOL   C243 2949   6.660   0.403   8.316  0.2858  0.2672  0.3652
    4MOL   C244 2950   6.667   0.542   8.341  0.1371 -0.1208  0.0333
    4MOL   C245 2951   6.772   0.600   0.047  0.8589 -0.1019  0.2272
    4MOL   C246 2952   6.868   0.508   0.109  0.5786 -0.1839 -0.0138
    4MOL   C247 2953   6.862   0.373   0.074  0.3227  0.2474  0.3962
    4MOL   C248 2954   6.760   0.316   8.365 -0.6296  0.3807 -0.0506
    4MOL   C249 2955   6.961   0.565   0.204  0.5073  0.6284  0.3680
    4MOL   C250 2956   6.980   0.491   0.323 -0.1636  0.0908  0.0987
    4MOL   C251 2957   7.059   0.538   0.424 -0.5611 -0.4161  0.1854
    4MOL   C252 2958   7.124   0.665   0.413  0.1525  0.3690 -0.1174
    4MOL   C253 2959   7.100   0.740   0.291 -0.2825 -0.0721  0.3553
    4MOL   C254 2960   7.021   0.689   0.188  0.1041 -0.2362  0.2464
    4MOL   O255 2961   7.193   0.722   0.520 -0.1845 -0.1890  0.3579
    4MOL   H256 2962   6.435   8.065   0.280 -0.0319 -2.0539 -0.2489
    4MOL   H257 2963   6.377   8.306   0.312 -0.4415  0.1287 -0.8162
    4MOL   H258 2964   5.969   8.219   0.249  0.4868  0.1505 -2.1673
    4MOL   H259 2965   6.028   7.963   0.257  0.9964 -1.2125 -1.2160
    4MOL   H260 2966   6.262   0.005   8.364 -0.4278 -0.2929 -0.5478
    4MOL   H261 2967   6.428   0.114   8.226 -0.0311  0.5828 -0.1777
    4MOL   H262 2968   6.458   0.443   0.143  1.1944  0.3030 -2.3783
    4MOL   H263 2969   6.290   0.332   0.293  0.4508 -1.7097  1.3115
    4MOL   H264 2970   6.597   0.616   8.306  1.5004  0.8911 -0.5959
    4MOL   H265 2971   6.759   0.706   0.060 -0.5358 -0.2657  0.1648
    4MOL   H266 2972   6.932   0.303   0.117 -0.6371  0.7522  2.8993
    4MOL   H267 2973   6.753   0.209   8.352 -2.3726  0.2359  1.8419
    4MOL   H268 2974   6.934   0.395   0.341 -2.4811  1.3255  0.8922
    4MOL   H269 2975   7.073   0.469   0.505  0.7711  1.7572  1.8512
    4MOL   H270 2976   7.141   0.839   0.274  0.0864  0.0232  1.7527
    4MOL   H271 2977   7.021   0.744   0.095 -1.7830  0.5054  0.6777
    4MOL   C272 2978   7.248   0.637   0.614  0.5510  0.4112  0.8540
    4MOL   C273 2979   7.351   0.546   0.587  0.0363  0.2206 -0.6198
    4MOL   C274 2980   7.413   0.467   0.687 -0.2024  0.3259  0.3630
    4MOL   C275 2981   7.359   0.478   0.816 -0.4049 -0.2589 -0.1778
    4MOL   C276 2982   7.257   0.567   0.843  0.6997 -0.1614  0.1627
    4MOL   C277 2983   7.195   0.644   0.741  0.0076  0.0433 -0.0269
    4MOL   S278 2984   7.429   0.376   0.951 -0.2631 -0.3596 -0.0719
    4MOL   O279 2985   7.433   0.458   1.075 -0.0646  0.2423  0.4037
    4MOL   O280 2986   7.560   0.329   0.897 -0.0690  0.0024  0.3262
    4MOL   C281 2987   7.320   0.241   0.991  0.2096 -0.4720  0.5027
    4MOL   C282 2988   7.301   0.209   1.121 -0.1284  0.2452  0.1074
    4MOL   C283 2989   7.228   0.089   1.154  0.7153  0.4913 -0.5109
    4MOL   C284 2990   7.171   0.006   1.058 -0.5558  0.6534  0.0992
    4MOL   C285 2991   7.189   0.044   0.923 -0.1793 -0.0449 -0.8890
    4MOL   C286 2992   7.257   0.168   0.891 -0.5626 -0.1900  0.1896
    4MOL   O287 2993   7.097   8.265   1.096  0.5332 -0.3385 -0.2020
    4MOL   C288 2994   7.157   8.139   1.101 -0.0588  0.6413  0.3089
    4MOL   C289 2995   7.288   8.118   1.159 -0.3597  1.6954 -0.0571
    4MOL   C290 2996   7.347   7.991   1.155 -0.1392  0.6472  0.1825
    4MOL   C291 2997   7.277   7.880   1.098 -0.1929 -0.1846  0.1267
    4MOL   C292 2998   7.146   7.903   1.044  0.4689  0.1851 -0.2135
    4MOL   C293 2999   7.088   8.033   1.034 -0.2227 -0.1986 -0.1493
    4MOL   C294 3000   7.333   7.741   1.092  0.0323  0.3458  0.1417
    4MOL   C295 3001   7.467   7.733   1.042 -0.3938  1.1128  0.3487
    4MOL   C296 3002   7.519   7.604   1.028  0.8061 -0.4217  0.1124
    4MOL   C297 3003   7.440   7.489   1.051 -0.1709 -0.4898 -0.0492
    4MOL   C298 3004   7.303   7.497   1.099 -0.3935  0.2894  0.4968
    4MOL   C299 3005   7.250   7.626   1.124 -0.2383 -0.2093  0.0980
    4MOL   O300 3006   7.494   7.366   1.011  0.1175  0.0703  1.1594
    4MOL   H301 3007   7.389   0.537   0.486  0.0134 -0.8696 -0.5436
    4MOL   H302 3008   7.493   0.400   0.658 -0.9371 -0.4897  0.1994
    4MOL   H303 3009   7.221   0.573   0.945 -0.9301 -0.5758 -0.3689
    4MOL   H304 3010   7.116   0.710   0.773  0.3793  0.0135  0.9684
    4MOL   H305 3011   7.351   0.261   1.201 -0.6756 -0.5327  0.9651
    4MOL   H306 3012   7.224   0.058   1.258  0.1863  4.3335  0.7088
    4MOL   H307 3013   7.149   8.345   0.846 -3.0573  2.3594 -1.5019
    4MOL   H308 3014   7.283   0.206   0.793  0.9627 -2.1682 -0.2294
    4MOL   H309 3015   7.333   8.189   1.228  0.3798 -0.7808  2.0780
    4MOL   H310 3016   7.444   7.974   1.198  0.3131  0.6458 -0.8160
    4MOL   H311 3017   7.097   7.817   1.000 -2.8046  2.3110 -0.9343
    4MOL   H312 3018   6.990   8.063   1.000  0.5530  1.4148 -1.0173
    4MOL   H313 3019   7.526   7.819   1.016  1.0557  0.2190  0.6433
    4MOL   H314 3020   7.621   7.597   0.993 -0.0259 -0.0434 -2.5308
    4MOL   H315 3021   7.242   7.416   1.137  1.0091 -0.2336  1.7086
    4MOL   H316 3022   7.151   7.635   1.166 -0.9098  1.7290 -1.8142
    4MOL   C317 3023   7.411   7.288   0.935 -0.6141 -0.3176  0.2090
    4MOL   C318 3024   7.334   7.345   0.828 -0.5474  0.1331 -0.0567
    4MOL   C319 3025   7.252   7.254   0.759  0.8187  0.3175 -0.0695
    4MOL   C320 3026   7.247   7.117   0.792 -0.1497  0.8561  0.2750
    4MOL   C321 3027   7.328   7.066   0.890 -0.6793  0.2535  0.3403
    4MOL   C322 3028   7.408   7.149   0.967 -0.5707 -0.3156  0.1667
    4MOL   S323 3029   7.162   7.004   0.678 -0.4704  0.4079  0.0841
    4MOL   O324 3030   7.197   6.866   0.715  0.2022  0.0635  0.1373
    4MOL   O325 3031   7.185   7.052   0.539 -0.0818 -0.3124  0.2672
    4MOL   C326 3032   6.983   7.013   0.706  0.1658 -0.0373  0.4377
    4MOL   C327 3033   6.896   6.967   0.601  0.0484 -0.1184  0.4740
    4MOL   C328 3034   6.757   6.974   0.623  0.5126 -0.4109  0.0323
    4MOL   C329 3035   6.710   7.040   0.736  0.0655  0.9652 -0.3236
    4MOL   C330 3036   6.799   7.080   0.843  0.6729  0.3100 -0.2502
    4MOL   C331 3037   6.932   7.066   0.825  0.2711  0.1307  0.1439
    4MOL   O332 3038   6.579   7.065   0.759  1.1319  0.7991 -0.4973
    4MOL   C333 3039   6.483   6.976   0.730  0.0066  0.2627  1.0486
    4MOL   C334 3040   6.495   6.840   0.764 -0.0486 -0.2738 -0.7520
    4MOL   C335 3041   6.394   6.752   0.740 -0.1085 -0.6444 -0.0732
    4MOL   C336 3042   6.273   6.791   0.682 -0.5062  0.2161 -0.5325
    4MOL   C337 3043   6.266   6.929   0.644 -0.1847  0.4867 -0.3851
    4MOL   C338 3044   6.370   7.018   0.660 -0.0876  0.2533 -0.7250
    4MOL   C339 3045   6.157   6.703   0.677 -0.1067 -0.4043 -0.7158
    4MOL   C340 3046   6.137   6.612   0.786 -0.7660  0.0991  0.4704
    4MOL   C341 3047   6.029   6.517   0.781  0.2380 -0.2608  0.0144
    4MOL   C342 3048   5.935   6.520   0.679  0.7821  0.6739 -0.4879
    4MOL   C343 3049   5.951   6.617   0.572  0.7206  0.4275 -0.1138
    4MOL   C344 3050   6.056   6.709   0.575 -0.2042 -0.8489  0.1556
    4MOL   O345 3051   5.831   6.432   0.679 -0.3320  0.1201 -0.3152
    4MOL   H346 3052   7.322   7.451   0.810 -1.0251  0.0696 -0.1068
    4MOL   H347 3053   7.190   7.292   0.680  0.3025 -0.3261  0.0234
    4MOL   H348 3054   7.349   6.963   0.914  1.2756  0.6141  0.2564
    4MOL   H349 3055   7.460   7.104   1.051  0.9261 -0.0168 -0.5813
    4MOL   H350 3056   6.940   6.929   0.511  0.4081 -0.7009  0.8929
    4MOL   H351 3057   6.693   6.955   0.538 -0.4842  0.7557  0.5054
    4MOL   H352 3058   6.749   7.122   0.929 -1.0608  0.6986 -1.4102
    4MOL   H353 3059   7.005   7.102   0.895  0.6940  0.7759 -0.6159
    4MOL   H354 3060   6.588   6.806   0.807 -0.9946 -2.5401 -0.4588
    4MOL   H355 3061   6.416   6.651   0.769 -3.8582 -1.7409 -0.7629
    4MOL   H356 3062   6.171   6.960   0.603 -1.1898 -1.8657  0.0642
    4MOL   H357 3063   6.364   7.121   0.628 -0.8513  0.4891  0.1507
    4MOL   H358 3064   6.210   6.612   0.865 -1.3560 -0.2357  1.0268
    4MOL   H359 3065   6.009   6.442   0.855  0.3895  0.5311  0.8703
    4MOL   H360 3066   5.879   6.628   0.492  0.2903 -0.6778  0.1000
    4MOL   H361 3067   6.075   6.779   0.496  0.3785  1.0520  1.9272
    4MOL   C362 3068   5.792   6.376   0.564 -0.1421  0.0814  0.0332
    4MOL   C363 3069   5.658   6.378   0.520  1.0837 -0.1281 -0.2337
    4MOL   C364 3070   5.622   6.320   0.393 -0.7133  0.0508 -0.5984
    4MOL   C365 3071   5.724   6.267   0.304 -0.6941  0.0758 -0.0119
    4MOL   C366 3072   5.854   6.261   0.358 -0.0176  0.6545  0.9117
    4MOL   C367 3073   5.885   6.300   0.488  0.4555  0.0582  0.4983
    4MOL   S368 3074   5.687   6.199   0.140  0.0068 -0.0981 -0.0515
    4MOL   O369 3075   5.802   6.113   0.111 -0.0067  0.5333  0.4772
    4MOL   O370 3076   5.656   6.319   0.056  0.1921  0.5335  0.3545
    4MOL   C371 3077   5.546   6.092   0.142  0.2265 -0.4732  0.0543
    4MOL   C372 3078   5.533   6.003   0.250  0.0663 -0.3770  0.7590
    4MOL   C373 3079   5.428   5.907   0.253 -0.0543  0.6497  0.2330
    4MOL   C374 3080   5.319   5.920   0.162 -0.2781  0.3036  0.5127
    4MOL   C375 3081   5.332   6.018   0.060 -0.2042 -0.4735 -0.4802
    4MOL   C376 3082   5.447   6.097   0.045 -0.7910 -0.9369 -0.1305
    4MOL   O377 3083   5.213   5.834   0.163 -0.2517  0.2153  0.0754
    4MOL   C378 3084   5.187   5.758   0.050  0.6049 -0.0856 -0.3378
    4MOL   C379 3085   5.293   5.684   8.359  0.0652  0.8134  0.9053
    4MOL   C380 3086   5.270   5.596   8.260  0.0745  0.4253 -0.4320
    4MOL   C381 3087   5.144   5.585   8.197 -0.2246  1.0005 -0.4766
    4MOL   C382 3088   5.043   5.676   8.240 -0.5778 -0.3677 -0.8706
    4MOL   C383 3089   5.066   5.761   8.347 -0.1689  0.1100  0.2532
    4MOL   C384 3090   5.117   5.491   8.085  0.8402 -0.2778  0.0295
    4MOL   C385 3091   4.989   5.431   8.075  0.2234 -0.0837  0.0194
    4MOL   C386 3092   4.959   5.342   7.972  0.2900  0.7945 -0.5074
    4MOL   C387 3093   5.050   5.327   7.866  0.6659  0.2576 -0.4545
    4MOL   C388 3094   5.176   5.381   7.876  0.0054  0.8953 -0.5724
    4MOL   C389 3095   5.210   5.459   7.987 -0.0900 -0.5795 -0.1903
    4MOL   O390 3096   5.009   5.266   7.750  0.2792  0.5947  0.2129
    4MOL   H391 3097   5.580   6.417   0.584 -1.0670 -1.8358 -1.7013
    4MOL   H392 3098   5.522   6.326   0.354 -0.5311  1.6931 -0.8111
    4MOL   H393 3099   5.928   6.212   0.297 -1.8758 -2.4556  1.0643
    4MOL   H394 3100   5.985   6.294   0.527 -0.2347  0.2110  2.3540
    4MOL   H395 3101   5.610   5.996   0.325 -1.0508  2.2358  2.2424
    4MOL   H396 3102   5.414   5.831   0.328  3.0137  0.1894  0.4006
    4MOL   H397 3103   5.251   6.018   8.354  0.8413 -1.6838 -1.6918
    4MOL   H398 3104   5.457   6.169   8.331 -0.1339 -0.2675  0.5473
    4MOL   H399 3105   5.387   5.675   0.046  0.8500 -0.6041 -0.6660
    4MOL   H400 3106   5.349   5.525   8.239  0.6952  0.6767  1.0086
    4MOL   H401 3107   4.946   5.682   8.192 -1.5698 -0.8496  1.0170
    4MOL   H402 3108   4.987   5.822   0.022 -0.7935  0.2684 -1.1831
    4MOL   H403 3109   4.922   5.461   8.155  1.4653 -1.1791  1.5109
    4MOL   H404 3110   4.859   5.302   7.969  0.0592  1.0335  2.5968
    4MOL   H405 3111   5.250   5.348   7.805  1.4229 -0.0449  1.3007
    4MOL   H406 3112   5.308   5.502   7.998 -0.1581 -0.5362  0.2759
    4MOL   C407 3113   4.950   5.339   7.653  1.1073  0.1595 -0.0586
    4MOL   C408 3114   4.812   5.366   7.659  0.3574 -0.1123 -0.0791
    4MOL   C409 3115   4.748   5.463   7.578 -0.3229  0.1828 -0.3534
    4MOL   C410 3116   4.818   5.499   7.462  0.5915 -0.0015  0.4471
    4MOL   C411 3117   4.957   5.472   7.449 -0.3470  0.4117  0.7641
    4MOL   C412 3118   5.022   5.400   7.547 -0.4765  0.1089 -0.8102
    4MOL   S413 3119   4.738   5.605   7.342  0.3136 -0.6886 -0.0274
    4MOL   O414 3120   4.847   5.698   7.298 -0.3992  0.5093  0.2831
    4MOL   O415 3121   4.618   5.665   7.396 -0.0970  0.4799  0.0384
    4MOL   C416 3122   4.701   5.489   7.204 -0.1958  0.4326 -0.7883
    4MOL   C417 3123   4.802   5.451   7.119 -0.3092 -0.3290 -0.4379
    4MOL   C418 3124   4.777   5.351   7.021 -0.0635  0.1009 -0.5261
    4MOL   C419 3125   4.650   5.291   7.012  0.0363 -0.4193  0.5128
    4MOL   C420 3126   4.550   5.336   7.098 -0.2199 -0.3717  0.8424
    4MOL   C421 3127   4.572   5.439   7.195 -0.4558  0.0292 -0.6157
    4MOL   O422 3128   4.625   5.191   6.912  0.5059 -0.3674 -0.1992
    4MOL   C423 3129   4.727   5.095   6.902 -0.6552 -0.6930  0.2039
    4MOL   C424 3130   4.834   5.101   6.809 -0.2570  0.2474 -0.8070
    4MOL   C425 3131   4.939   5.010   6.831  0.3147  0.1013 -0.8745
    4MOL   C426 3132   4.944   4.909   6.928 -0.4128 -0.1927 -0.6441
    4MOL   C427 3133   4.837   4.897   7.015  0.8281 -0.0728  0.3514
    4MOL   C428 3134   4.729   4.991   7.001  0.2525  0.7494  0.5664
    4MOL   C429 3135   5.049   4.803   6.920  0.3942  0.0162  0.6359
    4MOL   C430 3136   5.185   4.827   6.903  0.1855  0.1603  0.0004
    4MOL   C431 3137   5.277   4.726   6.892  0.4149 -0.6301  0.1347
    4MOL   C432 3138   5.229   4.592   6.897  0.5656 -0.7654 -0.4029
    4MOL   C433 3139   5.092   4.565   6.911  0.4284  0.9305  0.2226
    4MOL   C434 3140   5.001   4.667   6.924 -0.1295 -0.6057  0.7271
    4MOL   O435 3141   5.321   4.494   6.893 -0.5577  0.5408  0.4995
    4MOL   H436 3142   4.755   5.306   7.728 -1.1900  1.8145  0.3623
    4MOL   H437 3143   4.642   5.484   7.572  0.0455  2.1189 -0.5913
    4MOL   H438 3144   5.015   5.513   7.368  0.5316  0.7459  1.5538
    4MOL   H439 3145   5.127   5.380   7.528 -1.2203 -3.4781 -1.4965
    4MOL   H440 3146   4.893   5.508   7.136 -0.8481  0.2848  0.4177
    4MOL   H441 3147   4.856   5.322   6.953  1.0345 -0.7098  1.0490
    4MOL   H442 3148   4.445   5.314   7.086  0.2334 -2.9378  1.3672
    4MOL   H443 3149   4.495   5.477   7.261  3.0495  1.6482  2.7891
    4MOL   H444 3150   4.842   5.170   6.727  0.2968  0.2197 -0.7810
    4MOL   H445 3151   5.025   5.007   6.765  1.2623 -0.0850  0.3491
    4MOL   H446 3152   4.817   4.815   7.083 -1.3078  1.2210  1.3440
    4MOL   H447 3153   4.657   4.989   7.082 -0.8870 -0.3367 -0.4471
    4MOL   H448 3154   5.222   4.928   6.914 -0.2871  0.5641 -2.0171
    4MOL   H449 3155   5.382   4.750   6.889  0.7118 -1.9459 -0.5293
    4MOL   H450 3156   5.059   4.462   6.913 -0.3483  1.1017 -2.4391
    4MOL   H451 3157   4.895   4.648   6.919 -0.6916  2.4705 -0.3869
    4MOL   C452 3158   5.400   4.481   6.781 -0.0209  0.2239  0.0670
    4MOL   C453 3159   5.335   4.446   6.654  0.1352 -0.3275 -0.1395
    4MOL   C454 3160   5.419   4.421   6.544 -0.4466  0.8922  0.2227
    4MOL   C455 3161   5.555   4.404   6.561 -0.0937 -0.7469 -0.3189
    4MOL   C456 3162   5.621   4.437   6.684 -0.0382  0.1584 -0.4471
    4MOL   C457 3163   5.540   4.484   6.795  0.0710 -0.0206  0.2106
    4MOL   S458 3164   5.662   4.333   6.433 -0.3437 -0.3014 -0.3548
    4MOL   O459 3165   5.790   4.408   6.436 -0.2377  0.3029  0.0151
    4MOL   O460 3166   5.580   4.319   6.311  0.4503  0.3450  0.2264
    4MOL   C461 3167   5.718   4.174   6.485 -0.0922  0.2427 -0.0573
    4MOL   C462 3168   5.649   4.103   6.583  0.5567  0.2468 -0.0632
    4MOL   C463 3169   5.697   3.983   6.628 -0.1478  0.1255 -0.1302
    4MOL   C464 3170   5.809   3.917   6.569 -0.1477  0.1219 -0.3817
    4MOL   C465 3171   5.865   3.981   6.460  0.7614  0.5494  0.4685
    4MOL   C466 3172   5.829   4.110   6.421  0.2537 -0.0563  0.8402
    4MOL   O467 3173   5.859   3.795   6.615 -0.2041  0.5052 -0.0032
    4MOL   C468 3174   5.844   3.758   6.750 -0.1554  0.0994 -0.2773
    4MOL   C469 3175   5.904   3.833   6.845 -0.3012 -0.2143 -1.1156
    4MOL   C470 3176   5.894   3.805   6.983  0.2944 -0.3632 -0.1029
    4MOL   C471 3177   5.807   3.702   7.030  0.0947  0.0563 -0.9702
    4MOL   C472 3178   5.747   3.625   6.931  0.0592  0.0183  0.0546
    4MOL   C473 3179   5.769   3.644   6.791  1.0456 -0.1275  0.4748
    4MOL   C474 3180   5.794   3.694   7.176 -0.0114  0.0441  0.8690
    4MOL   C475 3181   5.808   3.572   7.249 -1.1713 -0.0835 -0.4375
    4MOL   C476 3182   5.794   3.564   7.393  0.9145  0.2094  0.3874
    4MOL   C477 3183   5.754   3.687   7.456 -0.1113 -0.1791  0.0110
    4MOL   C478 3184   5.738   3.807   7.380 -0.2436  0.3193  0.1966
    4MOL   C479 3185   5.766   3.811   7.246  0.1805  0.8171  0.6247
    4MOL   O480 3186   5.718   3.695   7.590 -0.2695  0.2796  0.0348
    4MOL   H481 3187   5.228   4.443   6.640  0.2053  3.5483 -2.4332
    4MOL   H482 3188   5.376   4.392   6.449 -1.6866  0.8903  0.7743
    4MOL   H483 3189   5.727   4.429   6.697 -0.2555  1.3297  2.3410
    4MOL   H484 3190   5.592   4.517   6.884  0.1173  0.3231  0.0574
    4MOL   H485 3191   5.567   4.150   6.636 -0.4127 -2.9390  1.4413
    4MOL   H486 3192   5.645   3.940   6.712  0.1633 -0.1007 -0.0528
    4MOL   H487 3193   5.942   3.920   6.414  0.7874  1.9476 -1.4085
    4MOL   H488 3194   5.891   4.167   6.354  0.5488 -0.7487  0.5101
    4MOL   H489 3195   5.969   3.908   6.803 -1.0538 -0.0236 -1.9347
    4MOL   H490 3196   5.947   3.862   7.057  1.0336 -2.1411  0.7721
    4MOL   H491 3197   5.693   3.535   6.956  0.8315 -0.4223  0.1467
    4MOL   H492 3198   5.710   3.594   6.716 -2.6414 -0.6802  3.6288
    4MOL   H493 3199   5.819   3.481   7.191  2.0407 -0.0086 -0.0625
    4MOL   H494 3200   5.794   3.474   7.453 -2.0286  1.7270  2.7661
    4MOL   H495 3201   5.716   3.904   7.422  0.9276  0.9076 -0.5118
    4MOL   H496 3202   5.760   3.903   7.190  0.3298  1.6907  2.0180
    4MOL   C497 3203   5.771   3.789   7.671 -0.1820 -0.6565  0.0600
    4MOL   C498 3204   5.902   3.848   7.649  0.4972 -0.2675 -0.2016
    4MOL   C499 3205   5.941   3.960   7.719 -0.4290 -0.3806 -0.0940
    4MOL   C500 3206   5.869   4.002   7.831  0.6823  0.0001 -0.2045
    4MOL   C501 3207   5.749   3.935   7.867 -0.5210 -0.0583  0.3248
    4MOL   C502 3208   5.702   3.828   7.781  0.0746 -0.1335  0.3189
    4MOL   S503 3209   5.928   4.147   7.920  0.0423  0.0974 -0.2939
    4MOL   O504 3210   6.026   4.219   7.836 -0.1053  0.5220  0.0881
    4MOL   O505 3211   5.982   4.093   8.045  0.6698 -0.7126  0.7429
    4MOL   C506 3212   5.800   4.262   7.956 -0.4774 -0.4137  0.2080
    4MOL   C507 3213   5.685   4.276   7.877  0.4467  1.0854 -0.0661
    4MOL   C508 3214   5.606   4.390   7.897 -0.3601 -0.1322  0.9090
    4MOL   C509 3215   5.637   4.491   7.991  0.0840  0.5407  0.4005
    4MOL   C510 3216   5.746   4.471   8.075  0.4274  0.5254 -0.1689
    4MOL   C511 3217   5.832   4.367   8.051 -0.2928  0.4677  0.3288
    4MOL   O512 3218   5.551   4.592   8.014 -0.0707 -0.1519  0.5555
    4MOL   C513 3219   5.582   4.714   7.964  0.3659 -0.0543 -0.1449
    4MOL   C514 3220   5.495   4.779   7.870 -0.6579 -0.0721 -0.2736
    4MOL   C515 3221   5.504   4.914   7.849 -0.2882  0.4802  0.2008
    4MOL   C516 3222   5.606   4.997   7.897  0.2778 -0.0713  0.3293
    4MOL   C517 3223   5.706   4.927   7.974  0.4496 -0.1832 -0.5939
    4MOL   C518 3224   5.694   4.789   8.009  0.2404  0.0511  0.4361
    4MOL   C519 3225   5.609   5.140   7.872  0.6387 -0.0283  0.0675
    4MOL   C520 3226   5.658   5.230   7.966  0.1562  0.3526 -0.5187
    4MOL   C521 3227   5.663   5.367   7.933  0.0271  0.3353  0.4550
    4MOL   C522 3228   5.629   5.415   7.803 -0.4777  0.5625 -0.0451
    4MOL   C523 3229   5.567   5.325   7.715  0.3490  0.0264 -0.2716
    4MOL   C524 3230   5.564   5.188   7.747  0.1120 -0.1022 -0.2266
    4MOL   O525 3231   5.636   5.549   7.759  0.0880 -0.1758 -0.4216
    4MOL   H526 3232   5.967   3.825   7.566  1.4360 -0.3243  0.5313
    4MOL   H527 3233   6.038   4.001   7.693  0.9735 -2.0168  2.3083
    4MOL   H528 3234   5.690   3.977   7.947 -1.9349 -0.4216 -0.5114
    4MOL   H529 3235   5.606   3.784   7.804  0.9195 -1.8028  0.7400
    4MOL   H530 3236   5.657   4.197   7.810  2.4410  1.1847 -1.0604
    4MOL   H531 3237   5.521   4.393   7.831  1.4069 -0.4208 -1.4273
    4MOL   H532 3238   5.786   4.539   8.148  0.6331  1.1734 -0.8743
    4MOL   H533 3239   5.927   4.366   8.103  0.0221  1.7198 -0.1965
    4MOL   H534 3240   5.411   4.732   7.822  0.1356 -1.3237 -0.4742
    4MOL   H535 3241   5.421   4.959   7.797  1.6950  0.2031 -3.3463
    4MOL   H536 3242   5.787   4.982   8.019  0.1143 -1.2000  1.3036
    4MOL   H537 3243   5.763   4.749   8.081  0.4033 -0.7609 -0.1524
    4MOL   H538 3244   5.700   5.193   8.058  1.9622  1.0923 -1.0161
    4MOL   H539 3245   5.693   5.446   7.999 -2.5667 -0.2054  2.3473
    4MOL   H540 3246   5.538   5.356   7.615 -0.7982 -0.9325 -0.2574
    4MOL   H541 3247   5.522   5.119   7.676 -0.8245 -0.5687  0.7579
    4MOL   C542 3248   5.759   5.616   7.773  0.3858  0.2391  0.3091
    4MOL   C543 3249   5.762   5.730   7.858  0.1066  0.3000  0.1012
    4MOL   C544 3250   5.885   5.800   7.879  0.1664 -0.4832 -0.4988
    4MOL   C545 3251   6.003   5.752   7.817 -0.3751 -0.6519  0.5034
    4MOL   C546 3252   5.996   5.640   7.731 -0.2079 -0.2247  0.4502
    4MOL   C547 3253   5.874   5.573   7.713 -0.4437 -0.4283  0.6905
    4MOL   S548 3254   6.156   5.826   7.862 -0.1634  0.0636 -0.3303
    4MOL   O549 3255   6.264   5.724   7.844  0.1910  0.1296  0.6474
    4MOL   O550 3256   6.147   5.890   7.988  0.4439  0.1277 -0.6353
    4MOL   C551 3257   6.190   5.962   7.748  0.5437 -0.7732 -0.6636
    4MOL   C552 3258   6.246   5.925   7.623  0.1040  0.0700  0.8369
    4MOL   C553 3259   6.256   6.025   7.520  0.3834  0.3378  0.0164
    4MOL   C554 3260   6.227   6.157   7.552  0.9285  0.0358 -0.0023
    4MOL   C555 3261   6.182   6.197   7.678  0.6590 -0.2512  0.6928
    4MOL   C556 3262   6.162   6.096   7.777  0.0579 -0.0721  0.4288
    4MOL   O557 3263   6.241   6.253   7.456  0.1274 -0.1381 -0.1815
    4MOL   C558 3264   6.123   6.308   7.405 -0.1921 -0.4447 -0.1730
    4MOL   C559 3265   6.040   6.390   7.479 -0.5522 -0.4119  0.3758
    4MOL   C560 3266   5.907   6.422   7.439  0.0886  0.3950  0.2944
    4MOL   C561 3267   5.862   6.379   7.309 -0.0636 -0.0207  0.3622
    4MOL   C562 3268   5.957   6.315   7.229  0.1404  0.3045 -0.4543
    4MOL   C563 3269   6.080   6.268   7.280  0.7619 -0.2065  0.7268
    4MOL   C564 3270   5.725   6.401   7.262 -0.2006 -1.4258  0.1369
    4MOL   C565 3271   5.669   6.532   7.264  0.7191 -0.8088 -0.1503
    4MOL   C566 3272   5.536   6.547   7.231  0.1205 -0.7421  0.2330
    4MOL   C567 3273   5.455   6.434   7.203  0.0222  0.0632 -0.1097
    4MOL   C568 3274   5.518   6.307   7.193 -0.0688 -0.3251  0.1907
    4MOL   C569 3275   5.652   6.285   7.231  1.0401  0.4480 -0.2535
    4MOL   O570 3276   5.323   6.434   7.170  0.1593  0.6053  0.0517
    4MOL   H571 3277   5.669   5.764   7.901  0.4859  1.2869  0.1509
    4MOL   H572 3278   5.874   5.892   7.934  0.2587 -1.7901  1.7404
    4MOL   H573 3279   6.090   5.605   7.691 -0.8085 -1.7306  0.3304
    4MOL   H574 3280   5.876   5.487   7.648 -0.2593  0.2826 -0.2761
    4MOL   H575 3281   6.273   5.822   7.610  0.3979  0.4981 -2.2866
    4MOL   H576 3282   6.276   6.005   7.416  2.3851  1.9429  0.0717
    4MOL   H577 3283   6.154   6.298   7.703 -0.8640 -1.0942  2.5172
    4MOL   H578 3284   6.124   6.125   7.873 -0.7597 -1.0150  0.3894
    4MOL   H579 3285   6.075   6.420   7.577 -0.1611  1.3349 -0.2784
    4MOL   H580 3286   5.840   6.473   7.507  0.2217  1.5323 -0.4088
    4MOL   H581 3287   5.917   6.270   7.140 -0.2254 -0.1866 -0.0488
    4MOL   H582 3288   6.143   6.195   7.233  1.6297  1.6452 -1.0362
    4MOL   H583 3289   5.729   6.617   7.290 -0.3713 -0.6924  2.1011
    4MOL   H584 3290   5.487   6.643   7.226  0.6515 -0.5192 -0.8004
    4MOL   H585 3291   5.468   6.219   7.156 -1.1159  1.9619 -4.0608
    4MOL   H586 3292   5.695   6.187   7.219 -1.1280 -0.8137  1.9479
    4MOL   C587 3293   5.229   6.470   7.266 -0.3510  0.5128  0.1161
    4MOL   C588 3294   5.125   6.547   7.217 -0.1551  0.2271  0.0728
    4MOL   C589 3295   5.008   6.573   7.292 -0.4605 -0.1102 -0.5060
    4MOL   C590 3296   5.006   6.526   7.425 -1.1105  0.0864 -0.0172
    4MOL   C591 3297   5.115   6.457   7.477 -0.2580 -0.0218  0.1051
    4MOL   C592 3298   5.238   6.430   7.399  0.0818  0.0395  0.3529
    4MOL   S593 3299   4.865   6.541   7.521 -0.1021 -0.5790  0.3507
    4MOL   O594 3300   4.907   6.512   7.657  0.2077 -0.0220 -0.4711
    4MOL   O595 3301   4.754   6.470   7.452  0.5364 -0.0727  0.2584
    4MOL   C596 3302   4.824   6.717   7.501  0.0550 -0.2256 -0.1924
    4MOL   C597 3303   4.887   6.806   7.591  0.3662  0.2262  0.2356
    4MOL   C598 3304   4.859   6.939   7.586 -0.2698 -0.1452  0.0854
    4MOL   C599 3305   4.765   6.988   7.495 -0.0590 -0.2296  0.3249
    4MOL   C600 3306   4.700   6.898   7.404  0.4095 -0.2721  0.5691
    4MOL   C601 3307   4.730   6.761   7.409  0.2460 -0.0345  0.5386
    4MOL   O602 3308   4.736   7.123   7.494  0.1164  0.1665  0.4551
    4MOL   C603 3309   4.616   7.164   7.559 -0.6939 -0.6111  0.2507
    4MOL   C604 3310   4.622   7.191   7.692 -0.3510 -0.1809  0.5659
    4MOL   C605 3311   4.516   7.252   7.759  0.0089 -0.0907  0.3545
    4MOL   C606 3312   4.405   7.282   7.686  0.5332 -0.2317  0.0972
    4MOL   C607 3313   4.397   7.250   7.548 -0.4096 -0.0680  0.3881
    4MOL   C608 3314   4.504   7.195   7.477  0.4301 -0.7956  0.0940
    4MOL   C609 3315   4.299   7.356   7.750  0.2917  0.7074 -0.3764
    4MOL   C610 3316   4.247   7.299   7.864  0.2082 -0.5374 -0.3177
    4MOL   C611 3317   4.165   7.377   7.955 -0.3271 -0.0399  0.8297
    4MOL   C612 3318   4.152   7.515   7.937  0.2174  0.4408  0.4086
    4MOL   C613 3319   4.203   7.571   7.818 -0.0232  0.0481 -0.2468
    4MOL   C614 3320   4.275   7.495   7.724  0.2919 -0.2263  0.0345
    4MOL   O615 3321   4.072   7.586   8.021 -0.4472 -0.4254  0.3808
    4MOL   H616 3322   5.117   6.584   7.116 -1.0252  0.4031  0.2069
    4MOL   H617 3323   4.922   6.622   7.250  0.6625  1.1683 -1.3398
    4MOL   H618 3324   5.114   6.422   7.579 -1.2630 -1.1767 -0.3008
    4MOL   H619 3325   5.323   6.374   7.434 -0.1057 -0.7969 -0.5267
    4MOL   H620 3326   4.956   6.770   7.666 -0.5739 -2.7200 -0.2441
    4MOL   H621 3327   4.908   7.004   7.657 -0.5974 -0.6840  0.7971
    4MOL   H622 3328   4.623   6.943   7.343  0.9032 -0.0322  0.1147
    4MOL   H623 3329   4.677   6.684   7.355  0.2210 -1.0940  2.0181
    4MOL   H624 3330   4.709   7.161   7.748 -0.7643 -0.2777  1.1650
    4MOL   H625 3331   4.521   7.283   7.862  2.3342  3.4282 -0.6919
    4MOL   H626 3332   4.307   7.280   7.496 -0.2754  1.6231  1.1013
    4MOL   H627 3333   4.502   7.185   7.370  2.1169 -0.8531  0.0577
    4MOL   H628 3334   4.266   7.196   7.891 -0.0873 -0.2982  0.8453
    4MOL   H629 3335   4.117   7.326   8.037 -1.5227  0.2482  0.3320
    4MOL   H630 3336   4.179   7.675   7.803 -0.1888  0.0743  0.2180
    4MOL   H631 3337   4.320   7.546   7.640  0.1818  1.9730  1.2837
    4MOL   C632 3338   4.112   7.715   8.051 -0.0430 -0.0709  0.0987
    4MOL   C633 3339   4.239   7.747   8.105  0.2092 -0.1418  0.4438
    4MOL   C634 3340   4.267   7.880   8.149 -0.1007  0.2224  0.6757
    4MOL   C635 3341   4.176   7.982   8.124 -0.3590  0.1840 -0.2686
    4MOL   C636 3342   4.051   7.955   8.070  0.1910 -0.1354  0.5876
    4MOL   C637 3343   4.014   7.819   8.036 -0.5984 -0.4751  0.6323
    4MOL   S638 3344   4.222   8.154   8.173  0.0398 -0.0905  0.3465
    4MOL   O639 3345   4.368   8.161   8.163  0.1293 -0.0481 -0.0530
    4MOL   O640 3346   4.166   8.176   8.306 -0.1219  0.7071 -0.1075
    4MOL   C641 3347   4.154   8.272   8.062 -0.2273 -0.0708 -0.3877
    4MOL   C642 3348   4.049   8.358   8.102  0.2517 -0.2891  0.4154
    4MOL   C643 3349   3.992   0.091   8.014 -0.2982 -0.0918  0.4483
    4MOL   C644 3350   4.053   0.108   7.888 -0.5665  0.1445 -0.4909
    4MOL   C645 3351   4.153   0.020   7.846 -0.1612  0.5432  0.1442
    4MOL   C646 3352   4.199   8.280   7.928  0.0283  0.0217  0.5676
    4MOL   O647 3353   4.027   0.211   7.802  0.2774  0.3149 -0.4640
    4MOL   C648 3354   3.895   0.233   7.767  0.1954 -0.3540  0.4587
    4MOL   C649 3355   3.816   0.327   7.836  0.0787  0.7795 -0.2302
    4MOL   C650 3356   3.694   0.372   7.786 -0.5807  0.5229  0.5110
    4MOL   C651 3357   3.654   0.322   7.658  0.3345 -0.6790  0.0711
    4MOL   C652 3358   3.728   0.225   7.592  0.0262  0.5419  0.5071
    4MOL   C653 3359   3.849   0.177   7.648  0.6341  0.7405 -0.5550
    4MOL   C654 3360   3.535   0.377   7.593 -0.7119  0.2015  0.5204
    4MOL   C655 3361   3.410   0.375   7.646 -0.3875 -0.1385 -0.5408
    4MOL   C656 3362   3.310   0.455   7.599  0.4182 -0.4494  0.4039
    4MOL   C657 3363   3.330   0.536   7.479  0.4691 -0.4268 -0.1293
    4MOL   C658 3364   3.455   0.533   7.424  0.3451  0.0207 -0.2375
    4MOL   C659 3365   3.561   0.456   7.480 -0.1063 -0.0060 -0.0826
    4MOL   O660 3366   3.223   0.608   7.426  0.6348 -0.0138  0.0116
    4MOL   H661 3367   4.314   7.669   8.109 -0.1699 -0.5478 -0.1832
    4MOL   H662 3368   4.366   7.904   8.183  0.6172 -3.2896  1.2367
    4MOL   H663 3369   3.979   8.035   8.056  1.1471  0.8804  1.3804
    4MOL   H664 3370   3.912   7.806   8.002 -0.2193 -0.5738 -0.4969
    4MOL   H665 3371   4.002   8.348   8.199 -1.2931 -0.8101 -0.3589
    4MOL   H666 3372   3.899   0.145   8.031 -0.3476 -0.1651  0.4118
    4MOL   H667 3373   4.191   0.036   7.746  0.3782 -0.5692  0.1670
    4MOL   H668 3374   4.277   8.216   7.890  0.0841  0.8430 -0.7370
    4MOL   H669 3375   3.858   0.357   7.931  1.5814  0.2377 -0.7101
    4MOL   H670 3376   3.649   0.453   7.844  0.7181  0.3760  1.7547
    4MOL   H671 3377   3.705   0.194   7.491  0.7618 -0.1680  0.5585
    4MOL   H672 3378   3.908   0.104   7.594 -0.7510 -0.1345 -0.8963
    4MOL   H673 3379   3.381   0.319   7.734  1.1152 -0.6933 -0.3845
    4MOL   H674 3380   3.214   0.449   7.648 -1.5594  1.0104 -3.0851
    4MOL   H675 3381   3.476   0.593   7.336  1.4860  0.7548  0.5153
    4MOL   H676 3382   3.660   0.450   7.439 -0.7784  0.6574 -1.8470
    4MOL   C677 3383   3.186   0.586   7.298  0.0177  0.0432  0.4859
    4MOL   C678 3384   3.170   0.455   7.245  0.3149  0.7575  0.2659
    4MOL   C679 3385   3.122   0.432   7.117 -0.5065  0.2557 -0.2119
    4MOL   C680 3386   3.083   0.540   7.039 -0.5840  0.3723  1.0337
    4MOL   C681 3387   3.091   0.671   7.088  0.3927  0.2688 -0.4834
    4MOL   C682 3388   3.149   0.696   7.219  0.0875  0.4753  0.0395
    4MOL   S683 3389   3.015   0.513   6.871 -0.4018 -0.2484  0.1241
    4MOL   O684 3390   2.887   0.584   6.857 -0.5498 -0.3982  0.5627
    4MOL   O685 3391   3.014   0.370   6.850  0.0966  0.3686  0.5364
    4MOL   C686 3392   3.131   0.571   6.742  0.5182 -0.1048 -0.4226
    4MOL   C687 3393   3.251   0.623   6.784 -0.6855  0.0359 -0.5750
    4MOL   C688 3394   3.342   0.668   6.690  0.3154  0.1721  0.0823
    4MOL   C689 3395   3.316   0.654   6.553 -0.2965 -0.0662 -0.0118
    4MOL   C690 3396   3.195   0.597   6.511 -0.6738 -0.2647  0.4140
    4MOL   C691 3397   3.105   0.548   6.605 -0.4515 -0.0511 -0.2459
    4MOL   O692 3398   3.406   0.692   6.464  0.2674  0.2808 -0.1183
    4MOL   C693 3399   3.364   0.804   6.397 -0.3109  0.8979 -0.6120
    4MOL   C694 3400   3.382   0.930   6.463  0.2996  0.0215  0.6646
    4MOL   C695 3401   3.340   1.047   6.391 -0.2310  0.5303 -0.1573
    4MOL   C696 3402   3.296   1.042   6.261 -0.0574 -0.7715 -0.0071
    4MOL   C697 3403   3.282   0.921   6.203 -0.0117 -0.5253  0.6668
    4MOL   C698 3404   3.316   0.801   6.262 -0.4895  0.4759  0.3634
    4MOL   C699 3405   3.272   1.165   6.189 -0.6864 -0.2205 -0.2218
    4MOL   C700 3406   3.175   1.177   6.085  0.3249 -0.2469  0.3423
    4MOL   C701 3407   3.172   1.294   6.006  0.5991  0.4288 -0.2684
    4MOL   C702 3408   3.248   1.408   6.040  0.0652  0.0978  0.7204
    4MOL   C703 3409   3.345   1.398   6.142  0.2299  0.2202 -0.2310
    4MOL   C704 3410   3.360   1.276   6.208 -0.3647  0.1638 -0.2566
    4MOL   O705 3411   3.232   1.523   5.964  0.3517 -0.5813 -0.0522
    4MOL   H706 3412   3.201   0.374   7.309 -0.6063 -0.1726 -0.4572
    4MOL   H707 3413   3.125   0.336   7.067 -2.1223  0.9836 -1.7809
    4MOL   H708 3414   3.065   0.757   7.027  0.4316  1.0821  0.6250
    4MOL   H709 3415   3.165   0.798   7.250  2.4790 -0.2170  1.1786
    4MOL   H710 3416   3.287   0.631   6.886  1.5333  1.3923 -1.4416
    4MOL   H711 3417   3.437   0.706   6.726  1.0347 -1.4214 -0.0565
    4MOL   H712 3418   3.174   0.578   6.407  1.0966  1.6067 -0.3216
    4MOL   H713 3419   3.022   0.487   6.575 -1.1293  0.7361  0.0236
    4MOL   H714 3420   3.424   0.927   6.563  0.9503  1.7584  0.4577
    4MOL   H715 3421   3.349   1.146   6.433  1.3799  0.8020 -1.0927
    4MOL   H716 3422   3.254   0.917   6.098 -0.9482 -0.4069  0.9022
    4MOL   H717 3423   3.318   0.707   6.209 -2.3956 -0.8049  2.4975
    4MOL   H718 3424   3.102   1.104   6.052 -1.1343  1.7965 -1.1126
    4MOL   H719 3425   3.100   1.293   5.926 -2.1695  0.8265  2.1227
    4MOL   H720 3426   3.410   1.480   6.168  1.4677 -0.7180 -0.2783
    4MOL   H721 3427   3.437   1.283   6.284 -2.8426  1.2185  2.2598
    4MOL   C722 3428   3.310   1.543   5.850  0.2756  0.1382  0.3739
    4MOL   C723 3429   3.250   1.578   5.721 -0.1404 -0.4974  0.1458
    4MOL   C724 3430   3.332   1.596   5.612 -0.8321 -0.7667  0.4200
    4MOL   C725 3431   3.469   1.593   5.629  0.2501  1.3856 -0.6797
    4MOL   C726 3432   3.526   1.557   5.753 -0.9160 -0.1035 -0.1530
    4MOL   C727 3433   3.449   1.533   5.861 -0.3302 -0.5266  0.2955
    4MOL   S728 3434   3.583   1.619   5.494 -0.0547  0.0874 -0.1291
    4MOL   O729 3435   3.711   1.668   5.543 -0.5489  0.0833  0.1257
    4MOL   O730 3436   3.514   1.688   5.384 -0.3375 -0.4761 -0.5304
    4MOL   C731 3437   3.623   1.451   5.449 -0.6407 -0.4724 -0.5798
    4MOL   C732 3438   3.533   1.391   5.363 -0.5554 -0.3212  0.5939
    4MOL   C733 3439   3.551   1.262   5.320 -0.0480  0.0463 -0.2778
    4MOL   C734 3440   3.668   1.186   5.362 -0.2768 -0.8369 -0.6609
    4MOL   C735 3441   3.756   1.250   5.458 -0.4179 -0.7402 -0.0382
    4MOL   C736 3442   3.735   1.385   5.502  0.0969  0.1609 -0.7557
    4MOL   O737 3443   3.709   1.061   5.320  0.6493 -0.6094 -0.7186
    4MOL   C738 3444   3.653   1.018   5.209 -0.1749 -0.2638 -0.6998
    4MOL   C739 3445   3.537   0.933   5.216 -0.5749  0.5748  0.4620
    4MOL   C740 3446   3.495   0.869   5.092  0.4995  0.5157  0.6786
    4MOL   C741 3447   3.545   0.906   4.965  1.2481 -0.4016 -0.0798
    4MOL   C742 3448   3.647   1.007   4.966 -0.0202  0.3439 -0.4480
    4MOL   C743 3449   3.697   1.062   5.083 -0.1417  0.2508  0.1760
    4MOL   C744 3450   3.497   0.852   4.837 -0.0460  0.0319  0.4162
    4MOL   C745 3451   3.514   0.916   4.713 -0.1131  0.0844  0.4871
    4MOL   C746 3452   3.469   0.871   4.587 -0.2022  0.5224 -0.0738
    4MOL   C747 3453   3.415   0.739   4.585  0.0596  0.3928  0.4857
    4MOL   C748 3454   3.401   0.664   4.703  0.3078 -0.2385 -0.0600
    4MOL   C749 3455   3.430   0.728   4.825 -0.2738  0.3766 -0.0515
    4MOL   O750 3456   3.405   0.677   4.461  0.2606  0.8541  0.5953
    4MOL   H751 3457   3.144   1.595   5.708 -0.2860 -2.7625 -1.9420
    4MOL   H752 3458   3.292   1.613   5.513 -0.4186 -0.1228  0.3596
    4MOL   H753 3459   3.634   1.557   5.760 -0.9097 -2.4919  0.2683
    4MOL   H754 3460   3.501   1.517   5.955 -0.8528  1.6169  0.9668
    4MOL   H755 3461   3.455   1.453   5.322 -0.5353  0.3896  1.6070
    4MOL   H756 3462   3.499   1.213   5.239  0.5750 -3.0718  1.1229
    4MOL   H757 3463   3.846   1.196   5.487 -0.4033  0.2970  1.9453
    4MOL   H758 3464   3.812   1.430   5.563  1.1932 -0.3559 -1.7519
    4MOL   H759 3465   3.492   0.906   5.310  0.9779  2.6347  1.8216
    4MOL   H760 3466   3.408   0.804   5.091  0.9224 -0.0406 -0.0005
    4MOL   H761 3467   3.696   1.036   4.875  1.5475  1.2304  0.6458
    4MOL   H762 3468   3.788   1.120   5.083  0.6474 -0.9307  3.2255
    4MOL   H763 3469   3.552   1.017   4.710  0.2809 -0.0838 -0.2366
    4MOL   H764 3470   3.506   0.931   4.505  0.7522  0.3944  0.2608
    4MOL   H765 3471   3.356   0.566   4.703 -1.1583  0.4190 -1.8860
    4MOL   H766 3472   3.401   0.676   4.915  0.5269  0.7028  0.4019
    4MOL   C767 3473   3.511   0.606   4.411  0.2064 -0.4558  0.2551
    4MOL   C768 3474   3.585   0.670   4.303 -0.0663  0.6212  0.5765
    4MOL   C769 3475   3.698   0.599   4.257  0.2583 -0.4783 -0.3764
    4MOL   C770 3476   3.739   0.478   4.316 -0.1760 -0.3754  0.1113
    4MOL   C771 3477   3.660   0.415   4.411 -0.8887 -0.0834 -0.3797
    4MOL   C772 3478   3.551   0.483   4.467  0.3172  0.3986  0.0324
    4MOL   S773 3479   3.893   0.403   4.260 -0.0185  0.1881  0.0611
    4MOL   O774 3480   3.977   0.509   4.202  0.3001 -0.7165 -0.1395
    4MOL   O775 3481   3.856   0.283   4.184  0.1809 -0.1883  0.2026
    4MOL   C776 3482   3.973   0.348   4.411  0.1151 -0.2412  0.1135
    4MOL   C777 3483   4.024   0.450   4.499  0.0784 -0.0006 -0.4259
    4MOL   C778 3484   4.099   0.407   4.614 -0.3889 -0.2142  0.8512
    4MOL   C779 3485   4.109   0.270   4.639  0.0491  0.3385 -0.7058
    4MOL   C780 3486   4.073   0.172   4.540 -0.3333  0.6787 -0.4172
    4MOL   C781 3487   4.002   0.210   4.424 -0.9182  0.2003 -0.2857
    4MOL   O782 3488   4.192   0.223   4.734  0.2741  0.1640  0.1032
    4MOL   C783 3489   4.150   0.243   4.861 -0.0582  0.0534 -0.2209
    4MOL   C784 3490   4.053   0.159   4.920  0.9251  0.0557 -0.0538
    4MOL   C785 3491   3.995   0.181   5.045 -0.3658 -0.4978  0.1134
    4MOL   C786 3492   4.033   0.297   5.120 -0.9189  0.3351 -0.6389
    4MOL   C787 3493   4.136   0.378   5.065 -0.0161 -0.9576  0.2167
    4MOL   C788 3494   4.183   0.359   4.933 -0.3204  0.9781 -0.3778
    4MOL   C789 3495   3.963   0.339   5.250  0.4155  0.6514  0.3118
    4MOL   C790 3496   3.887   0.241   5.330 -0.5821 -0.6933  0.0233
    4MOL   C791 3497   3.820   0.270   5.443  0.6027 -0.9390 -0.3751
    4MOL   C792 3498   3.827   0.406   5.492 -0.1341  0.2292  0.2817
    4MOL   C793 3499   3.901   0.506   5.425  0.6573 -1.0726  0.8766
    4MOL   C794 3500   3.967   0.472   5.303 -0.6302 -0.1988  0.1164
    4MOL   O795 3501   3.769   0.434   5.617  0.8689 -0.1376  1.2170
    4MOL   H796 3502   3.558   0.764   4.259 -1.2836  1.1440  2.3702
    4MOL   H797 3503   3.754   0.642   4.176 -1.0573  1.0738 -0.4784
    4MOL   H798 3504   3.708   0.327   4.450 -1.1509 -0.3367 -0.6204
    4MOL   H799 3505   3.490   0.428   4.537  1.7685 -1.3388 -0.0422
    4MOL   H800 3506   4.008   0.556   4.485 -1.2350 -0.0766  0.4211
    4MOL   H801 3507   4.130   0.480   4.687 -0.4953  2.1189 -1.3731
    4MOL   H802 3508   4.092   0.067   4.554  2.3883  1.1076 -0.6095
    4MOL   H803 3509   3.970   0.141   4.349  1.6431  1.1354 -2.3220
    4MOL   H804 3510   4.005   0.076   4.870 -0.0898 -0.7653  2.2231
    4MOL   H805 3511   3.920   0.113   5.082 -0.1719  0.1332  1.7162
    4MOL   H806 3512   4.164   0.464   5.124  0.7052 -0.1679 -1.2356
    4MOL   H807 3513   4.251   0.434   4.894 -1.4692  0.4972 -3.4068
    4MOL   H808 3514   3.891   0.139   5.294  0.3054 -0.2205 -1.2765
    4MOL   H809 3515   3.764   0.189   5.488  3.2079 -1.9684  1.1599
    4MOL   H810 3516   3.898   0.607   5.465  1.8748 -1.9438  3.3173
    4MOL   H811 3517   4.025   0.547   5.251 -0.0925 -1.2246 -0.7735
    4MOL   C812 3518   3.697   0.550   5.629  0.0494  0.0724  0.5808
    4MOL   C813 3519   3.609   0.597   5.523 -0.1653 -0.1217 -0.1100
    4MOL   C814 3520   3.525   0.711   5.543 -0.0163  0.0863  0.0462
    4MOL   C815 3521   3.535   0.776   5.670  0.4718  0.2134 -0.2045
    4MOL   C816 3522   3.618   0.727   5.779  0.0533 -0.0981 -0.2318
    4MOL   C817 3523   3.700   0.619   5.748 -0.4725 -0.0490 -0.6787
    4MOL   S818 3524   3.443   0.930   5.701 -0.1487 -0.3967 -0.2032
    4MOL   O819 3525   3.406   0.989   5.567  0.7309 -0.3457 -0.6419
    4MOL   O820 3526   3.528   1.009   5.794 -0.0922  0.4488  0.1932
    4MOL   C821 3527   3.287   0.883   5.781 -0.2665 -0.5001 -0.1894
    4MOL   C822 3528   3.279   0.764   5.858 -0.0257  0.2678  0.1472
    4MOL   C823 3529   3.166   0.733   5.922  0.9433 -0.0864 -0.7609
    4MOL   C824 3530   3.049   0.815   5.913 -0.7539 -0.6198 -0.1342
    4MOL   C825 3531   3.056   0.936   5.836  0.3209 -0.1535 -0.4158
    4MOL   C826 3532   3.172   0.964   5.760 -0.4184  0.4113  0.8124
    4MOL   O827 3533   2.932   0.795   5.976  0.5456  0.5607  0.2703
    4MOL   C828 3534   2.855   0.688   5.933  0.0426  0.4179 -0.0544
    4MOL   C829 3535   2.886   0.556   5.963 -0.7586 -0.2158 -0.5193
    4MOL   C830 3536   2.806   0.457   5.909 -0.2174 -0.4567 -0.7379
    4MOL   C831 3537   2.689   0.491   5.833  0.5636  0.3457 -0.2606
    4MOL   C832 3538   2.660   0.624   5.802 -0.5422  0.0611  0.8797
    4MOL   C833 3539   2.747   0.717   5.855 -0.3627  0.0329  0.3033
    4MOL   C834 3540   2.593   0.385   5.798 -0.8280  0.1200 -0.0575
    4MOL   C835 3541   2.570   0.267   5.873  1.0888  0.2630 -0.1154
    4MOL   C836 3542   2.492   0.161   5.820  0.0361  0.4602  0.4532
    4MOL   C837 3543   2.436   0.170   5.695  0.7801  0.4122  0.2956
    4MOL   C838 3544   2.455   0.288   5.624 -0.1314 -0.0370  0.2551
    4MOL   C839 3545   2.534   0.396   5.674 -0.6226  0.7955  1.0933
    4MOL   O840 3546   2.364   0.067   5.641 -0.0898  0.1327  0.6875
    4MOL   H841 3547   3.600   0.541   5.431  0.9464 -0.4613 -0.0155
    4MOL   H842 3548   3.460   0.753   5.467 -1.1048 -2.6953 -0.6030
    4MOL   H843 3549   3.625   0.780   5.873 -0.0619  2.0652 -1.4227
    4MOL   H844 3550   3.763   0.575   5.824 -2.9137 -1.4362  0.6115
    4MOL   H845 3551   3.359   0.692   5.852  0.3389  0.8259 -2.7754
    4MOL   H846 3552   3.166   0.634   5.965  0.4221 -0.8237 -2.3764
    4MOL   H847 3553   2.968   0.997   5.824  1.8011  2.1283  0.0241
    4MOL   H848 3554   3.172   1.051   5.696  0.4164  1.7625  2.6132
    4MOL   H849 3555   2.974   0.518   6.011 -1.3812 -0.5132  0.4003
    4MOL   H850 3556   2.823   0.352   5.931  1.4191 -0.0645  0.0060
    4MOL   H851 3557   2.569   0.652   5.752  1.1112 -0.2701 -2.4339
    4MOL   H852 3558   2.722   0.821   5.839 -2.3013 -0.3988  0.3456
    4MOL   H853 3559   2.620   0.258   5.968  0.3936 -3.4107 -0.0466
    4MOL   H854 3560   2.484   0.070   5.877 -1.9259 -0.7952 -1.7266
    4MOL   H855 3561   2.420   0.301   5.523 -0.1096  0.4966  0.3111
    4MOL   H856 3562   2.537   0.483   5.611 -2.5631  0.8701  1.0893
    4MOL   C857 3563   2.428   8.339   5.563 -1.0368  0.8418 -0.4739
    4MOL   C858 3564   2.421   8.344   5.422  0.0668 -0.1854 -0.3870
    4MOL   C859 3565   2.481   8.240   5.348 -0.3209  0.3170 -0.7346
    4MOL   C860 3566   2.550   8.138   5.415 -0.4058  0.2846 -0.3681
    4MOL   C861 3567   2.538   8.121   5.557 -0.0409 -0.0294  0.7018
    4MOL   C862 3568   2.478   8.224   5.631  0.9595  1.0154 -0.5523
    4MOL   S863 3569   2.635   8.014   5.319 -0.1283  0.0164  0.1653
    4MOL   O864 3570   2.767   7.996   5.373 -0.2543 -0.0858  0.8498
    4MOL   O865 3571   2.628   8.044   5.177  0.5074  0.6539  0.0222
    4MOL   C866 3572   2.544   7.863   5.354 -0.7333  0.4117  0.6539
    4MOL   C867 3573   2.424   7.832   5.282 -0.4185 -0.7263 -0.1534
    4MOL   C868 3574   2.351   7.712   5.302 -1.3666  0.0149  0.1401
    4MOL   C869 3575   2.393   7.629   5.406  0.7541  0.0644 -0.3612
    4MOL   C870 3576   2.522   7.647   5.465 -0.1405 -0.0094 -0.3800
    4MOL   C871 3577   2.599   7.766   5.444  0.0055 -0.1596  0.5044
    4MOL   O872 3578   2.333   7.500   5.407  1.0390 -0.8806  0.3128
    4MOL   C873 3579   2.223   7.477   5.487 -0.3249 -0.1892 -0.1161
    4MOL   C874 3580   2.134   7.372   5.447  0.1126  0.4126  0.3239
    4MOL   C875 3581   2.019   7.335   5.526 -0.5870  0.3685 -0.1405
    4MOL   C876 3582   1.980   7.421   5.633  0.3761 -0.6063 -0.5212
    4MOL   C877 3583   2.071   7.520   5.676 -0.0896  0.3223 -0.1065
    4MOL   C878 3584   2.189   7.555   5.596  0.0132  0.1775  0.3425
    4MOL   C879 3585   1.850   7.387   5.699 -0.2869 -0.6503  0.4419
    4MOL   C880 3586   1.819   7.250   5.726  1.2283 -0.0233 -0.2435
    4MOL   C881 3587   1.696   7.212   5.791 -0.3739 -0.8069 -0.3146
    4MOL   C882 3588   1.608   7.311   5.833  0.6629 -0.2533 -1.3899
    4MOL   C883 3589   1.641   7.452   5.807  0.5551 -0.0853 -0.7091
    4MOL   C884 3590   1.763   7.485   5.743 -0.1993  0.3128  0.7073
    4MOL   O885 3591   1.494   7.291   5.910  0.3587  0.5417 -0.1557
    4MOL   H886 3592   2.375   0.066   5.381 -1.2646  0.2449  1.9217
    4MOL   H887 3593   2.483   8.245   5.240 -2.5315  0.7043 -0.7888
    4MOL   H888 3594   2.568   8.031   5.609 -0.5372 -1.7044 -1.8613
    4MOL   H889 3595   2.471   8.214   5.738  0.2050  0.5160 -0.6398
    4MOL   H890 3596   2.400   7.910   5.212 -1.5654  2.9931  4.2106
    4MOL   H891 3597   2.267   7.687   5.239 -0.8428  0.2490 -0.6601
    4MOL   H892 3598   2.561   7.557   5.511  0.7430  0.2018 -0.6956
    4MOL   H893 3599   2.700   7.773   5.483 -0.9198  1.9723  2.6861
    4MOL   H894 3600   2.156   7.314   5.359 -0.0563 -1.9287  1.7720
    4MOL   H895 3601   1.952   7.255   5.499  0.1265 -0.2334 -0.1322
    4MOL   H896 3602   2.050   7.576   5.766  1.5187  1.3557 -0.3462
    4MOL   H897 3603   2.262   7.626   5.633 -0.2978  2.0765 -2.5579
    4MOL   H898 3604   1.895   7.175   5.711  1.2932 -0.1217  0.5538
    4MOL   H899 3605   1.670   7.109   5.812  0.7869 -0.5391  2.7257
    4MOL   H900 3606   1.576   7.535   5.830  1.8804  0.4006  1.3676
    4MOL   H901 3607   1.793   7.587   5.723 -1.8530  0.6971  0.1203
    4MOL   H902 3608   1.494   7.196   5.913  2.5149  0.4703 -1.4339
    5MOL     C1 3609   8.349   1.170   5.977 -0.4444  0.4812 -0.0462
    5MOL     C2 3610   0.051   1.233   5.870  0.2017 -0.6944 -0.7736
    5MOL     C3 3611   8.348   1.274   5.759 -0.3050 -0.0897  0.3356
    5MOL     C4 3612   8.210   1.242   5.744  0.1451 -0.0894 -0.0025
    5MOL     C5 3613   8.141   1.190   5.851 -0.0174 -0.4456 -0.1189
    5MOL     C6 3614   8.206   1.152   5.972  0.4212 -0.0891  0.3337
    5MOL     S7 3615   8.125   1.293   5.593  0.0315  0.4329  0.3447
    5MOL     O8 3616   8.220   1.370   5.507 -0.3850  0.6884 -0.0631
    5MOL     O9 3617   7.998   1.356   5.634 -0.4025  0.0891 -0.0171
    5MOL    C10 3618   8.089   1.142   5.520 -0.4325  0.3213  0.4273
    5MOL    C11 3619   8.180   1.083   5.431  0.1742 -0.0105 -0.1648
    5MOL    C12 3620   8.163   0.952   5.383  0.2405 -0.2326 -0.8271
    5MOL    C13 3621   8.040   0.888   5.417 -0.2517 -0.5579  0.4304
    5MOL    C14 3622   7.941   0.952   5.494 -0.4835 -0.7009  0.1849
    5MOL    C15 3623   7.966   1.080   5.541 -0.1355 -0.3662  0.5830
    5MOL    O16 3624   8.037   0.755   5.403 -0.1192 -0.4981 -0.0472
    5MOL    C17 3625   7.966   0.703   5.298  0.2026  0.4938 -0.0844
    5MOL    C18 3626   7.848   0.635   5.333  0.3035 -0.6297  0.7606
    5MOL    C19 3627   7.778   0.561   5.238 -0.7238  0.1299  0.0738
    5MOL    C20 3628   7.812   0.568   5.100  0.0037 -0.0886 -0.2767
    5MOL    C21 3629   7.923   0.648   5.067  0.1996  0.4059 -0.6562
    5MOL    C22 3630   8.004   0.705   5.165 -0.2163  0.2309  0.2582
    5MOL    C23 3631   7.740   0.490   4.996 -0.7509  0.0135  0.0684
    5MOL    C24 3632   7.804   0.471   4.867  0.2501  0.5612 -0.0190
    5MOL    C25 3633   7.741   0.404   4.763  0.7471  0.1389  0.2000
    5MOL    C26 3634   7.608   0.364   4.771 -0.5702  0.1294  0.9544
    5MOL    C27 3635   7.542   0.382   4.895  0.0176 -0.4302  0.1509
    5MOL    C28 3636   7.604   0.444   5.007 -0.8244 -0.2123  0.6203
    5MOL    O29 3637   7.540   0.295   4.667 -0.9271 -0.4788 -0.3382
    5MOL    H30 3638   0.158   1.242   5.882  0.3801 -2.2030 -1.1259
    5MOL    H31 3639   0.032   1.300   5.666  0.6775  0.0897  0.9085
    5MOL    H32 3640   8.033   1.178   5.845  0.2214 -1.5116 -2.8267
    5MOL    H33 3641   8.158   1.106   6.058  1.1192 -1.6595 -0.0970
    5MOL    H34 3642   8.271   1.136   5.410  0.1540 -0.0512 -0.3485
    5MOL    H35 3643   8.241   0.892   5.340 -0.3366 -1.7692  0.2239
    5MOL    H36 3644   7.848   0.904   5.520 -0.7240 -1.1953 -1.5863
    5MOL    H37 3645   7.889   1.126   5.600  1.4368  1.2876  1.4014
    5MOL    H38 3646   7.820   0.638   5.438 -2.5960 -0.5753  0.0122
    5MOL    H39 3647   7.694   0.504   5.276 -1.0648 -0.1668 -1.0868
    5MOL    H40 3648   7.952   0.670   4.966 -0.6339  0.5277 -0.8665
    5MOL    H41 3649   8.098   0.756   5.149 -0.1592 -0.0405 -0.2667
    5MOL    H42 3650   7.910   0.493   4.863  0.0963  1.4614  0.6233
    5MOL    H43 3651   7.803   0.381   4.677  0.5181  0.1967  0.0201
    5MOL    H44 3652   7.445   0.338   4.911  0.3542 -0.5132  2.1641
    5MOL    H45 3653   7.546   0.452   5.098  1.4317  0.9193  2.0046
    5MOL    H46 3654   0.037   1.138   6.065 -0.7312 -0.2422 -0.1280
    5MOL    C47 3655   7.591   0.278   4.542 -0.5233  0.1647 -0.8268
    5MOL    C48 3656   7.679   0.176   4.513 -0.3404  0.1441 -0.1693
    5MOL    C49 3657   7.716   0.147   4.382  0.0788 -0.2979 -0.4346
    5MOL    C50 3658   7.655   0.224   4.275 -0.5799 -0.5180  0.1238
    5MOL    C51 3659   7.576   0.338   4.304 -0.2554 -0.8631 -0.9157
    5MOL    C52 3660   7.543   0.358   4.439  0.3474  0.8891 -0.2565
    5MOL    S53 3661   7.681   0.183   4.106  0.1476 -0.2831 -0.0171
    5MOL    O54 3662   7.679   0.310   4.034  0.4041 -0.6533  0.3610
    5MOL    O55 3663   7.586   0.079   4.071 -0.6168 -0.5843  0.0192
    5MOL    C56 3664   7.851   0.118   4.096 -0.8137  0.3550 -0.4039
    5MOL    C57 3665   7.875   8.362   4.030 -0.2211  0.4111 -0.2378
    5MOL    C58 3666   8.002   8.302   4.037 -0.2075  0.7421  0.2038
    5MOL    C59 3667   8.109   0.012   4.093  0.2721 -0.2401 -0.2996
    5MOL    C60 3668   8.087   0.136   4.151  0.0288 -0.1349 -0.8369
    5MOL    C61 3669   7.961   0.191   4.159  1.0570 -0.0759 -0.3833
    5MOL    O62 3670   8.240   8.337   4.097 -0.7915  0.2132  0.1020
    5MOL    C63 3671   8.327   0.029   4.013  0.6510 -0.5605  0.4377
    5MOL    C64 3672   8.320   0.023   3.875  0.2887  0.3107  0.3499
    5MOL    C65 3673   0.051   0.079   3.794  0.6054  0.1339  0.4973
    5MOL    C66 3674   0.158   0.154   3.858 -0.5496 -0.1901  0.3950
    5MOL    C67 3675   0.164   0.164   3.995  0.0299  0.1651  0.1462
    5MOL    C68 3676   0.063   0.107   4.077  0.4024  0.7174  0.8789
    5MOL    C69 3677   0.252   0.229   3.766 -0.4312  0.0542  0.2016
    5MOL    C70 3678   0.323   0.160   3.666  0.2888  0.7527 -0.2956
    5MOL    C71 3679   0.407   0.231   3.585  0.7655  0.0758  0.6048
    5MOL    C72 3680   0.429   0.366   3.603  0.2703 -0.5128  0.0282
    5MOL    C73 3681   0.354   0.438   3.694  0.6254 -0.1322  0.4876
    5MOL    C74 3682   0.263   0.368   3.776 -0.4622 -0.6953  0.3370
    5MOL    O75 3683   0.514   0.427   3.521 -0.5497  0.4729 -0.2564
    5MOL    H76 3684   7.713   0.109   4.591 -1.5149 -1.1788 -0.7821
    5MOL    H77 3685   7.789   0.069   4.365  2.0983  1.5550 -0.4645
    5MOL    H78 3686   7.530   0.406   4.235 -0.5903 -0.3596 -0.2015
    5MOL    H79 3687   7.475   0.436   4.469  0.3208  0.7822 -0.0445
    5MOL    H80 3688   7.792   8.307   3.987  0.5231 -1.2830  0.4392
    5MOL    H81 3689   8.015   8.203   3.998  0.7937  1.1471 -0.5058
    5MOL    H82 3690   8.165   0.195   4.196  0.5769 -0.9137 -0.7561
    5MOL    H83 3691   7.945   0.294   4.187  0.6144 -0.2020 -0.1598
    5MOL    H84 3692   8.239   8.337   3.827  0.9871  0.1022 -0.6187
    5MOL    H85 3693   0.051   0.072   3.686 -0.6408  0.4142  0.4659
    5MOL    H86 3694   0.240   0.217   4.050 -0.0150  0.9404 -0.5269
    5MOL    H87 3695   0.060   0.121   4.184 -0.3215  0.2721  0.9229
    5MOL    H88 3696   0.327   0.052   3.657  1.9814  0.8437 -0.6250
    5MOL    H89 3697   0.473   0.175   3.521  0.4910  0.7058 -0.2356
    5MOL    H90 3698   0.377   0.542   3.711 -0.5221  0.4598 -1.4246
    5MOL    H91 3699   0.214   0.421   3.857 -1.1715  2.2633 -1.9520
    5MOL    C92 3700   0.610   0.506   3.584  0.3301  0.1126 -0.0941
    5MOL    C93 3701   0.738   0.460   3.628  0.2990 -0.2834 -0.5865
    5MOL    C94 3702   0.829   0.551   3.689 -0.1367  0.1947 -0.9426
    5MOL    C95 3703   0.794   0.684   3.699  0.2514  0.7601 -0.3069
    5MOL    C96 3704   0.673   0.736   3.662  0.2057  0.4610 -0.4307
    5MOL    C97 3705   0.582   0.642   3.607  0.1230  0.6286  0.0840
    5MOL    S98 3706   0.913   0.806   3.753 -0.0000  0.1001 -0.1449
    5MOL    O99 3707   0.877   0.927   3.681  1.0491 -0.1111  0.9416
    5MOL   O100 3708   1.046   0.751   3.721 -0.0475  0.2731 -0.2162
    5MOL   C101 3709   0.893   0.831   3.921  0.0287 -0.1946 -0.5462
    5MOL   C102 3710   0.964   0.755   4.015  0.1532  0.3452  0.2295
    5MOL   C103 3711   0.934   0.757   4.154 -0.0901  0.5848 -0.0604
    5MOL   C104 3712   0.825   0.827   4.200 -0.3490  0.0042 -0.3805
    5MOL   C105 3713   0.764   0.918   4.103 -0.0944  0.2794  0.5618
    5MOL   C106 3714   0.788   0.909   3.964  0.0532 -0.2464  0.4955
    5MOL   O107 3715   0.785   0.824   4.335  0.2789 -0.3305  0.3008
    5MOL   C108 3716   0.661   0.769   4.383 -0.2702 -0.2065  0.2217
    5MOL   C109 3717   0.537   0.820   4.343  0.3428  0.1924 -0.0978
    5MOL   C110 3718   0.423   0.769   4.391  0.1113  0.3434 -0.3101
    5MOL   C111 3719   0.418   0.653   4.479 -0.0856 -0.1064  0.6327
    5MOL   C112 3720   0.541   0.603   4.528 -0.0473  0.5629  0.1040
    5MOL   C113 3721   0.659   0.661   4.479 -0.2222  0.0552  0.1016
    5MOL   C114 3722   0.289   0.593   4.523  0.3696 -0.3194  0.6238
    5MOL   C115 3723   0.184   0.667   4.584 -0.2675  0.0635 -1.2158
    5MOL   C116 3724   0.060   0.611   4.596 -0.3900  0.5292 -0.0176
    5MOL   C117 3725   0.031   0.485   4.547 -0.1548 -0.2694 -0.3825
    5MOL   C118 3726   0.140   0.404   4.496  0.2012 -0.4330 -0.1405
    5MOL   C119 3727   0.270   0.458   4.490  0.1771  0.2816  0.0908
    5MOL   O120 3728   8.267   0.436   4.560  0.5412 -0.3810  0.7110
    5MOL   H121 3729   0.773   0.358   3.624  0.1416 -0.3542 -0.1697
    5MOL   H122 3730   0.926   0.513   3.717 -0.4491  1.6220  2.2549
    5MOL   H123 3731   0.652   0.842   3.658 -0.5194  0.4177  1.7187
    5MOL   H124 3732   0.486   0.679   3.576 -0.2767 -0.6342 -0.2017
    5MOL   H125 3733   1.037   0.686   3.975  0.2833  0.8293 -0.3713
    5MOL   H126 3734   0.990   0.689   4.216 -2.4049  0.5555  2.0710
    5MOL   H127 3735   0.679   0.979   4.133 -0.5002 -0.5270  1.0637
    5MOL   H128 3736   0.733   0.973   3.896 -0.7681 -1.3045  0.1470
    5MOL   H129 3737   0.533   0.895   4.265 -0.4561 -0.2851 -0.5202
    5MOL   H130 3738   0.327   0.814   4.368  0.4006  2.3349  2.1745
    5MOL   H131 3739   0.541   0.520   4.596 -1.7490  0.4805  0.0081
    5MOL   H132 3740   0.745   0.606   4.512  1.5732  1.8664 -1.4754
    5MOL   H133 3741   0.204   0.768   4.615  1.5781 -0.9374  1.0118
    5MOL   H134 3742   8.344   0.659   4.647  0.3304  3.2399 -1.3427
    5MOL   H135 3743   0.129   0.310   4.444 -1.0421  0.5676 -1.7268
    5MOL   H136 3744   0.349   0.404   4.441  1.3805  0.3702  1.8756
    5MOL   C137 3745   8.239   0.363   4.672  0.4300 -0.1838 -0.8157
    5MOL   C138 3746   8.203   0.425   4.799  0.2456  0.4985  0.4163
    5MOL   C139 3747   8.169   0.346   4.908  0.0540  0.3156  0.4185
    5MOL   C140 3748   8.188   0.207   4.903 -0.0355  0.3024  0.6194
    5MOL   C141 3749   8.223   0.148   4.783 -0.2318 -0.6521  0.1854
    5MOL   C142 3750   8.240   0.226   4.665 -0.5091  0.1811  0.3435
    5MOL   S143 3751   8.138   0.114   5.045 -0.0643 -0.0201  0.5450
    5MOL   O144 3752   8.168   0.194   5.168  0.5408 -0.0502  0.1490
    5MOL   O145 3753   8.190   8.343   5.034  0.3972  0.1279 -0.8329
    5MOL   C146 3754   7.961   0.111   5.031 -0.4899 -0.7482  0.2099
    5MOL   C147 3755   7.893   0.083   4.908  0.1263 -0.5807  0.9185
    5MOL   C148 3756   7.755   0.073   4.903 -0.2486  0.1125  0.3639
    5MOL   C149 3757   7.678   0.083   5.022 -0.4140  0.0863  0.0908
    5MOL   C150 3758   7.748   0.096   5.143  0.2350  0.4648 -0.0006
    5MOL   C151 3759   7.885   0.108   5.151 -0.6535  0.0015  0.0330
    5MOL   O152 3760   7.537   0.102   5.015 -0.8459  0.5384  0.3281
    5MOL   C153 3761   7.458   8.360   5.052  0.4570 -0.5882 -0.9736
    5MOL   C154 3762   7.483   8.225   5.019 -0.2597  0.5488  0.3922
    5MOL   C155 3763   7.379   8.133   5.030 -0.9490  0.5539 -0.0614
    5MOL   C156 3764   7.258   8.163   5.098  0.1230 -1.1657  0.9065
    5MOL   C157 3765   7.240   8.297   5.143  0.0807  0.5929 -0.3078
    5MOL   C158 3766   7.338   0.029   5.120 -0.1371 -0.6314 -0.3829
    5MOL   C159 3767   7.155   8.055   5.122 -0.8627 -0.3481 -0.2099
    5MOL   C160 3768   7.191   7.917   5.139  0.1981 -0.0764 -0.1500
    5MOL   C161 3769   7.100   7.813   5.173  0.2176 -0.1462 -0.2452
    5MOL   C162 3770   6.962   7.846   5.197  0.6075 -0.2670 -0.5571
    5MOL   C163 3771   6.923   7.976   5.172 -0.0040 -0.5914 -0.1642
    5MOL   C164 3772   7.018   8.084   5.141 -0.2966 -0.4352  0.4842
    5MOL   O165 3773   6.879   7.754   5.251  0.5962  0.1798  0.4615
    5MOL   H166 3774   8.207   0.532   4.806  2.1705  0.3455  2.1383
    5MOL   H167 3775   8.134   0.393   4.999 -0.8774  0.0590  0.1998
    5MOL   H168 3776   8.236   0.042   4.767 -0.7483 -1.0894  2.5462
    5MOL   H169 3777   8.272   0.185   4.570 -2.2490 -2.3077  0.7676
    5MOL   H170 3778   7.956   0.075   4.821  1.1083  0.6124  1.5024
    5MOL   H171 3779   7.702   0.064   4.809  1.4778  2.6652 -0.8909
    5MOL   H172 3780   7.687   0.123   5.228  0.6649  1.2739  0.0568
    5MOL   H173 3781   7.938   0.113   5.245  1.4981 -2.6437 -0.9584
    5MOL   H174 3782   7.576   8.205   4.968 -0.0884 -1.1437  1.3042
    5MOL   H175 3783   7.399   8.032   4.996  1.7158  0.8638  0.4380
    5MOL   H176 3784   7.148   8.334   5.187 -0.0077  0.2597 -0.2129
    5MOL   H177 3785   7.315   0.131   5.147  0.6272  0.3300 -3.2052
    5MOL   H178 3786   7.295   7.892   5.126  0.1981 -1.1687  1.7748
    5MOL   H179 3787   7.129   7.714   5.206 -1.5213 -1.3173 -2.0942
    5MOL   H180 3788   6.821   8.003   5.193 -0.1444  0.5862 -2.1461
    5MOL   H181 3789   6.985   8.186   5.130 -0.2535 -0.0368  3.4684
    5MOL   C182 3790   6.821   7.787   5.373  0.9675 -0.5941  0.4865
    5MOL   C183 3791   6.679   7.823   5.371  0.0104  0.3692  0.5467
    5MOL   C184 3792   6.628   7.862   5.496 -0.5188  0.1071  0.3901
    5MOL   C185 3793   6.701   7.843   5.613  0.1792  0.7609 -0.0148
    5MOL   C186 3794   6.836   7.802   5.609  0.0198  0.0690 -0.2041
    5MOL   C187 3795   6.898   7.780   5.489 -0.8475  0.0303  0.3746
    5MOL   S188 3796   6.622   7.855   5.770  0.2811  0.4933  0.2484
    5MOL   O189 3797   6.727   7.850   5.870  0.7588 -0.1969  0.2216
    5MOL   O190 3798   6.514   7.754   5.784  1.0277  0.8921 -0.0789
    5MOL   C191 3799   6.543   8.013   5.775  0.1194  0.0934 -0.4711
    5MOL   C192 3800   6.422   8.041   5.713  0.4719  0.1811  0.2859
    5MOL   C193 3801   6.365   8.167   5.712 -0.8230  0.0796 -1.0071
    5MOL   C194 3802   6.438   8.276   5.772  0.6677  0.2163 -0.3125
    5MOL   C195 3803   6.556   8.253   5.839  0.1853  0.4398 -0.4294
    5MOL   C196 3804   6.607   8.119   5.841 -0.0089 -0.5152  0.3524
    5MOL   O197 3805   6.378   0.033   5.767  0.1640 -0.7810 -0.1610
    5MOL   C198 3806   6.310   0.083   5.874 -0.2036 -0.4348  0.2192
    5MOL   C199 3807   6.183   0.047   5.910 -0.5732  0.6809 -0.0341
    5MOL   C200 3808   6.121   0.119   6.016  0.3027  0.1060 -0.5076
    5MOL   C201 3809   6.192   0.210   6.102  0.1264 -0.7632  0.1028
    5MOL   C202 3810   6.327   0.242   6.068  0.0615 -0.5489  0.2096
    5MOL   C203 3811   6.382   0.176   5.953  0.0726 -0.1539 -0.0411
    5MOL   C204 3812   6.122   0.280   6.218 -0.4354 -0.1561  0.0316
    5MOL   C205 3813   6.015   0.217   6.289 -0.1071 -0.4076  0.2957
    5MOL   C206 3814   5.943   0.283   6.390  0.9721 -0.5456 -0.2367
    5MOL   C207 3815   5.985   0.415   6.426  0.2023  0.1682 -0.6633
    5MOL   C208 3816   6.098   0.471   6.367  0.6845  0.0091  0.2124
    5MOL   C209 3817   6.157   0.414   6.254  0.3565  0.7082  0.4434
    5MOL   O210 3818   5.921   0.491   6.521  0.5123  0.5539 -1.1608
    5MOL   H211 3819   6.619   7.823   5.280  0.5249  1.0918  0.2087
    5MOL   H212 3820   6.525   7.895   5.503 -0.7996 -0.7655  0.4418
    5MOL   H213 3821   6.894   7.775   5.696  0.1776  0.8937 -0.0485
    5MOL   H214 3822   7.005   7.770   5.482 -0.9288  0.0049 -0.8717
    5MOL   H215 3823   6.384   7.962   5.651  1.4318 -1.1401  1.3508
    5MOL   H216 3824   6.276   8.185   5.653 -1.6105  2.0026  0.6920
    5MOL   H217 3825   6.602   8.337   5.890  1.0098 -1.2147  1.6495
    5MOL   H218 3826   6.706   8.108   5.882  1.1594  1.2776 -1.8288
    5MOL   H219 3827   6.123   8.344   5.852  0.5745 -1.4138  1.2125
    5MOL   H220 3828   6.018   0.096   6.039 -0.1561  1.4801 -1.1223
    5MOL   H221 3829   6.391   0.307   6.126 -0.0554 -0.5650  0.3563
    5MOL   H222 3830   6.481   0.207   5.922 -0.9306  1.7607 -1.4564
    5MOL   H223 3831   5.977   0.121   6.259 -0.0131 -0.4197  0.2155
    5MOL   H224 3832   5.851   0.238   6.426 -0.5930 -0.4805 -3.9430
    5MOL   H225 3833   6.142   0.563   6.401  1.3520 -0.6974  1.2945
    5MOL   H226 3834   6.238   0.458   6.196  0.6482 -1.0766 -0.5467
    5MOL   C227 3835   5.929   0.451   6.652 -0.2837 -0.2845 -0.6599
    5MOL   C228 3836   6.054   0.437   6.714  0.1907  0.0375  0.2461
    5MOL   C229 3837   6.065   0.407   6.856 -0.0404 -0.6010  0.3479
    5MOL   C230 3838   5.949   0.389   6.931  0.3647 -0.0161  0.7206
    5MOL   C231 3839   5.822   0.403   6.870 -0.5400  0.2303  0.0838
    5MOL   C232 3840   5.815   0.442   6.735  0.2217  0.1147 -0.3413
    5MOL   S233 3841   5.956   0.341   7.103  0.0203 -0.2463  0.2941
    5MOL   O234 3842   5.901   0.457   7.181 -0.8090  0.3109  0.6033
    5MOL   O235 3843   6.099   0.309   7.121  0.7499  0.0281 -0.3490
    5MOL   C236 3844   5.855   0.195   7.131  0.5391 -0.3336 -0.0647
    5MOL   C237 3845   5.722   0.206   7.170  0.7889 -0.2009  0.7413
    5MOL   C238 3846   5.646   0.100   7.229 -0.0976  0.0221 -0.4072
    5MOL   C239 3847   5.713   8.344   7.237  0.4845  0.1286 -0.7114
    5MOL   C240 3848   5.840   8.329   7.184 -0.3775  0.5643  0.0027
    5MOL   C241 3849   5.914   0.073   7.141 -0.3365 -0.0726  0.6040
    5MOL   O242 3850   5.660   8.246   7.314  0.0858  0.3471 -0.1005
    5MOL   C243 3851   5.549   8.186   7.263  0.2704  0.5317  0.7230
    5MOL   C244 3852   5.417   8.228   7.289 -0.1289  0.6903 -0.2679
    5MOL   C245 3853   5.306   8.157   7.236  0.1309  0.3342 -0.5018
    5MOL   C246 3854   5.323   8.055   7.143 -0.0172 -0.1690 -0.2714
    5MOL   C247 3855   5.453   8.016   7.116  0.4980  0.1907  0.5045
    5MOL   C248 3856   5.568   8.076   7.173  0.3674  0.4573 -0.8520
    5MOL   C249 3857   5.206   7.983   7.091  0.3704  0.1580 -0.2579
    5MOL   C250 3858   5.199   7.925   6.962 -0.2583 -0.2449  0.4045
    5MOL   C251 3859   5.080   7.852   6.918 -0.1520  0.7446 -0.3174
    5MOL   C252 3860   4.965   7.842   6.999 -0.7605 -0.0328 -0.1134
    5MOL   C253 3861   4.969   7.908   7.124 -0.4959  0.2806 -0.4432
    5MOL   C254 3862   5.083   7.975   7.170 -0.7338 -0.8939  0.2732
    5MOL   O255 3863   4.855   7.780   6.956  0.2685 -0.7268 -0.2619
    5MOL   H256 3864   6.142   0.448   6.653 -0.4933  1.8608 -0.4667
    5MOL   H257 3865   6.164   0.391   6.896 -0.5893 -2.2813  1.0794
    5MOL   H258 3866   5.737   0.404   6.937 -0.7965  1.3057 -0.2575
    5MOL   H259 3867   5.719   0.471   6.695  1.2150 -1.5251 -4.1044
    5MOL   H260 3868   5.684   0.307   7.173 -2.3392 -1.2833 -0.3222
    5MOL   H261 3869   5.554   0.122   7.283 -0.4688  0.7434 -1.3324
    5MOL   H262 3870   5.884   8.231   7.191 -0.1010  0.7779  1.4493
    5MOL   H263 3871   6.017   0.067   7.110 -0.9078 -0.2449 -1.3468
    5MOL   H264 3872   5.405   8.303   7.365 -0.9219 -0.9625  1.2660
    5MOL   H265 3873   5.210   8.190   7.273  0.1195 -0.3535  0.1017
    5MOL   H266 3874   5.479   7.935   7.049  0.9888  0.4013  0.4373
    5MOL   H267 3875   5.665   8.042   7.138  1.7663  3.1599  0.2351
    5MOL   H268 3876   5.291   7.928   6.906  0.4050 -1.9734  1.3676
    5MOL   H269 3877   5.089   7.793   6.829  0.9790 -2.3720  1.7746
    5MOL   H270 3878   4.879   7.905   7.184 -0.0285  0.1638  0.2550
    5MOL   H271 3879   5.079   8.038   7.258 -0.0245 -0.8197  0.2524
    5MOL   C272 3880   4.778   7.855   6.867  0.7763  0.4835 -0.0208
    5MOL   C273 3881   4.761   7.821   6.729 -0.4002 -0.2117  0.4607
    5MOL   C274 3882   4.672   7.893   6.647  0.3990  0.0919  0.9571
    5MOL   C275 3883   4.597   8.000   6.699  0.4770  0.5786 -0.5003
    5MOL   C276 3884   4.609   8.035   6.835  0.3965  0.4708  0.0160
    5MOL   C277 3885   4.695   7.962   6.919 -1.0463  0.0112 -0.4374
    5MOL   S278 3886   4.478   8.093   6.590 -0.1112  0.3141  0.5606
    5MOL   O279 3887   4.555   8.142   6.478 -0.2899  0.3162  0.5513
    5MOL   O280 3888   4.396   8.187   6.663 -0.2629  0.2440  0.1948
    5MOL   C281 3889   4.372   7.965   6.525  0.2454  0.0089 -0.4839
    5MOL   C282 3890   4.354   7.960   6.381 -0.5341 -0.3015 -0.1003
    5MOL   C283 3891   4.280   7.859   6.323 -0.5993 -0.4828 -0.3052
    5MOL   C284 3892   4.229   7.753   6.398  0.2957 -0.1929 -0.1538
    5MOL   C285 3893   4.255   7.754   6.536 -0.1799 -0.2469 -0.3697
    5MOL   C286 3894   4.311   7.864   6.603 -0.2912 -0.3229 -0.4609
    5MOL   O287 3895   4.180   7.637   6.335  0.6377 -0.2729  0.6489
    5MOL   C288 3896   4.077   7.656   6.250  0.1841  0.2451  0.0236
    5MOL   C289 3897   4.048   7.566   6.142  0.1412  0.1471 -0.4013
    5MOL   C290 3898   3.947   7.581   6.049  0.8910 -0.4977 -0.1017
    5MOL   C291 3899   3.866   7.695   6.053  0.3883 -0.2923  0.5647
    5MOL   C292 3900   3.891   7.790   6.153 -0.5297 -0.4504  0.1541
    5MOL   C293 3901   3.992   7.772   6.251 -0.0994  0.5326 -0.1378
    5MOL   C294 3902   3.760   7.730   5.955  0.0346 -0.1513 -0.2788
    5MOL   C295 3903   3.771   7.852   5.890  0.2728  0.2274  0.2678
    5MOL   C296 3904   3.664   7.904   5.821 -0.1408 -0.1847  0.4658
    5MOL   C297 3905   3.543   7.830   5.805 -0.2956 -0.7070  0.0986
    5MOL   C298 3906   3.539   7.700   5.861  0.2076 -0.3369  0.1934
    5MOL   C299 3907   3.652   7.647   5.935  0.6780 -0.3981 -0.1519
    5MOL   O300 3908   3.432   7.889   5.744 -0.3725 -0.2878 -0.2409
    5MOL   H301 3909   4.814   7.733   6.695 -2.3385 -1.3430  0.2910
    5MOL   H302 3910   4.669   7.864   6.543 -0.7082 -0.0150  1.0037
    5MOL   H303 3911   4.543   8.113   6.869 -1.4719 -0.9373 -0.3102
    5MOL   H304 3912   4.715   7.984   7.023  2.1151 -0.0513 -0.9785
    5MOL   H305 3913   4.393   8.039   6.319  1.3894 -2.3184 -1.5381
    5MOL   H306 3914   4.255   7.871   6.219 -0.8461  0.4487 -0.1401
    5MOL   H307 3915   4.215   7.669   6.588  0.4766  0.7485  1.8072
    5MOL   H308 3916   4.327   7.869   6.710 -1.9989 -2.1611 -0.0913
    5MOL   H309 3917   4.118   7.484   6.135 -0.4229 -0.3922  0.1611
    5MOL   H310 3918   3.937   7.512   5.966 -1.9111  0.8960 -1.0042
    5MOL   H311 3919   3.833   7.880   6.168  0.4935  0.0713  1.1039
    5MOL   H312 3920   4.001   7.843   6.332 -0.5773  0.5411 -0.0895
    5MOL   H313 3921   3.862   7.909   5.905 -0.1954  0.6918  1.3374
    5MOL   H314 3922   3.670   7.998   5.769  2.2227 -0.4816  0.1331
    5MOL   H315 3923   3.453   7.637   5.848  1.2271 -1.2918 -2.2207
    5MOL   H316 3924   3.651   7.555   5.993 -0.4032 -0.3455 -0.0591
    5MOL   C317 3925   3.347   7.949   5.832 -0.1798  0.5030 -0.0174
    5MOL   C318 3926   3.241   7.872   5.884 -1.1931  0.1985 -0.0521
    5MOL   C319 3927   3.161   7.932   5.982  0.2322  0.7135 -0.0582
    5MOL   C320 3928   3.196   8.058   6.039  0.2005 -0.2165 -0.0315
    5MOL   C321 3929   3.311   8.126   5.994  0.5082 -0.2583 -0.9410
    5MOL   C322 3930   3.379   8.073   5.886  0.3880 -0.3405  0.4060
    5MOL   S323 3931   3.092   8.129   6.163 -0.0647 -0.0685  0.0522
    5MOL   O324 3932   2.966   8.052   6.171  0.1664 -0.3527 -0.3209
    5MOL   O325 3933   3.096   8.274   6.141 -0.0236 -0.0293  0.1780
    5MOL   C326 3934   3.184   8.101   6.314 -0.0117 -0.7217  0.0670
    5MOL   C327 3935   3.117   8.126   6.430 -0.1221  0.7357 -0.0857
    5MOL   C328 3936   3.166   8.076   6.556 -0.8068  0.5533  1.3550
    5MOL   C329 3937   3.288   8.012   6.564  0.2193  0.3529  0.6391
    5MOL   C330 3938   3.360   8.001   6.443  0.6827 -0.8882 -0.4617
    5MOL   C331 3939   3.305   8.040   6.319  0.3645  0.3000 -0.2627
    5MOL   O332 3940   3.330   7.962   6.682  0.5349  0.1059  0.0263
    5MOL   C333 3941   3.459   7.970   6.713  0.0334 -0.6010 -0.1900
    5MOL   C334 3942   3.541   8.079   6.681 -0.0857 -0.0711 -0.6836
    5MOL   C335 3943   3.674   8.088   6.731 -0.0992  0.6285  0.8342
    5MOL   C336 3944   3.731   7.978   6.797  0.6654  0.6990  0.3913
    5MOL   C337 3945   3.650   7.869   6.824  0.7835  1.0931 -0.5255
    5MOL   C338 3946   3.517   7.857   6.782  0.0188 -0.9465 -0.9608
    5MOL   C339 3947   3.870   7.987   6.839  0.5500 -0.1602 -0.4727
    5MOL   C340 3948   3.902   7.952   6.967 -0.0066  0.5318  0.0809
    5MOL   C341 3949   4.034   7.969   7.020  0.7979 -0.5127  0.4465
    5MOL   C342 3950   4.132   8.010   6.926  0.0557 -0.0869  0.1223
    5MOL   C343 3951   4.104   8.041   6.789  0.6803  0.4497 -0.4986
    5MOL   C344 3952   3.968   8.043   6.752 -0.4069  0.7566 -0.3110
    5MOL   O345 3953   4.264   8.028   6.963  0.4417 -0.4449 -0.2940
    5MOL   H346 3954   3.223   7.771   5.851 -1.5432  0.6833 -1.3970
    5MOL   H347 3955   3.077   7.875   6.018  0.2656 -0.6818 -2.0947
    5MOL   H348 3956   3.342   8.222   6.032 -1.3501 -0.2098  0.5061
    5MOL   H349 3957   3.451   8.132   5.831  0.4663  1.6157  2.5591
    5MOL   H350 3958   3.014   8.157   6.421 -0.6795 -0.1094  2.8256
    5MOL   H351 3959   3.101   8.073   6.642 -3.0990  0.3717 -0.3237
    5MOL   H352 3960   3.450   7.941   6.433  0.8601 -0.4661 -1.5016
    5MOL   H353 3961   3.357   8.012   6.229 -0.8500  0.0771 -0.9080
    5MOL   H354 3962   3.506   8.171   6.637 -0.3760 -0.5708 -1.4893
    5MOL   H355 3963   3.732   8.178   6.716 -1.4920  1.2561 -1.1321
    5MOL   H356 3964   3.690   7.786   6.881  2.3364  1.5982 -0.8768
    5MOL   H357 3965   3.450   7.780   6.817  2.6890 -1.8216  2.5332
    5MOL   H358 3966   3.822   7.911   7.027 -0.0108  0.3306 -0.0611
    5MOL   H359 3967   4.070   7.944   7.119  1.4860 -1.3369 -0.0072
    5MOL   H360 3968   4.182   8.068   6.719  0.7340 -1.8169 -1.3616
    5MOL   H361 3969   3.948   8.053   6.646 -1.0885  3.3069  0.0419
    5MOL   C362 3970   4.297   8.140   7.040  0.0999  0.3074  0.2829
    5MOL   C363 3971   4.390   8.122   7.146  0.0198 -0.1184  0.0748
    5MOL   C364 3972   4.419   8.230   7.230 -0.3820 -0.5142 -0.3735
    5MOL   C365 3973   4.355   8.356   7.212 -0.1158 -1.2268 -0.1840
    5MOL   C366 3974   4.268   0.012   7.103  0.0329 -0.0502  0.5305
    5MOL   C367 3975   4.237   8.271   7.015  0.9341  0.0690  0.3896
    5MOL   S368 3976   4.399   0.122   7.322  0.0669 -0.3508 -0.4756
    5MOL   O369 3977   4.544   0.120   7.340 -0.1361  0.2314 -0.0955
    5MOL   O370 3978   4.320   0.115   7.445  0.2661 -0.4183 -0.1113
    5MOL   C371 3979   4.362   0.289   7.243 -0.0910  0.1113  0.8531
    5MOL   C372 3980   4.402   0.318   7.108  0.1362  0.1717  0.2643
    5MOL   C373 3981   4.398   0.448   7.055 -0.2344  0.2141  0.0299
    5MOL   C374 3982   4.354   0.555   7.136  0.2724 -0.0215  0.6506
    5MOL   C375 3983   4.311   0.527   7.266  0.0101  0.8926 -0.5090
    5MOL   C376 3984   4.326   0.397   7.330 -0.3820  0.7629  0.2071
    5MOL   O377 3985   4.340   0.685   7.083 -0.5719  0.5890 -0.2153
    5MOL   C378 3986   4.445   0.772   7.092 -0.3525  0.5290  0.0489
    5MOL   C379 3987   4.513   0.824   6.983  0.0295  0.2817  0.2126
    5MOL   C380 3988   4.621   0.914   7.002  0.4509  0.0981  0.9922
    5MOL   C381 3989   4.653   0.958   7.134 -0.4565 -0.1809 -0.2187
    5MOL   C382 3990   4.581   0.914   7.247  0.5356  0.3781 -0.5368
    5MOL   C383 3991   4.476   0.819   7.224  0.1530  0.0468  0.0837
    5MOL   C384 3992   4.744   1.073   7.152 -0.1638  0.0329 -0.5051
    5MOL   C385 3993   4.751   1.178   7.052 -0.0461  0.0827 -0.2197
    5MOL   C386 3994   4.846   1.278   7.070 -0.5138 -0.0476 -0.4287
    5MOL   C387 3995   4.927   1.283   7.185  0.2735  0.3466  0.6880
    5MOL   C388 3996   4.917   1.185   7.279  0.1354 -0.4369 -0.2441
    5MOL   C389 3997   4.831   1.077   7.254 -0.3307 -0.9169 -0.6439
    5MOL   O390 3998   5.017   1.381   7.198 -0.5001  0.1859 -0.5626
    5MOL   H391 3999   4.434   8.026   7.164 -2.1197 -1.8731 -3.4611
    5MOL   H392 4000   4.491   8.212   7.309 -1.2220  1.7897  0.9655
    5MOL   H393 4001   4.200   0.097   7.105  0.3060  0.1815  0.0628
    5MOL   H394 4002   4.163   8.285   6.938 -0.1611 -1.1335  1.2079
    5MOL   H395 4003   4.431   0.236   7.044  0.8012 -0.4489  1.3515
    5MOL   H396 4004   4.428   0.463   6.953 -0.5635  0.1759 -0.0743
    5MOL   H397 4005   4.268   0.611   7.320  1.1215  0.8801  0.4114
    5MOL   H398 4006   4.299   0.376   7.433  0.9104 -2.0827  0.0217
    5MOL   H399 4007   4.485   0.792   6.884  0.9351  1.1076 -0.3169
    5MOL   H400 4008   4.672   0.958   6.918 -0.3896  0.9530  0.9289
    5MOL   H401 4009   4.609   0.938   7.349 -1.2475  1.7997 -0.3566
    5MOL   H402 4010   4.431   0.786   7.317 -0.9925  1.4063  0.0192
    5MOL   H403 4011   4.690   1.187   6.964 -0.4538  0.7285  0.1285
    5MOL   H404 4012   4.869   1.352   6.994  1.7551  0.8130  1.0429
    5MOL   H405 4013   4.987   1.183   7.361 -1.1017 -0.2535  0.8259
    5MOL   H406 4014   4.842   0.997   7.325  2.0949  1.2537  1.5310
    5MOL   C407 4015   5.146   1.357   7.153 -0.2659  0.6890  0.3171
    5MOL   C408 4016   5.247   1.454   7.178 -0.0657  0.2853  0.4366
    5MOL   C409 4017   5.382   1.429   7.142  0.7933  0.1953 -0.3471
    5MOL   C410 4018   5.424   1.297   7.104  0.1071 -0.3591  0.2213
    5MOL   C411 4019   5.320   1.203   7.083  0.7611 -0.5445 -0.5225
    5MOL   C412 4020   5.184   1.231   7.100 -0.0641  0.1834  0.3818
    5MOL   S413 4021   5.594   1.255   7.057  0.0145  0.0680 -0.1456
    5MOL   O414 4022   5.582   1.178   6.935  0.4093 -0.0523  0.1057
    5MOL   O415 4023   5.664   1.205   7.177  0.1417 -0.3081 -0.5636
    5MOL   C416 4024   5.666   1.404   7.013  0.7665 -0.2071 -0.1172
    5MOL   C417 4025   5.724   1.493   7.110  0.2260  0.0789 -0.3173
    5MOL   C418 4026   5.797   1.608   7.062  0.1930 -0.4601 -0.0771
    5MOL   C419 4027   5.807   1.648   6.929  0.5931  0.0314 -0.4216
    5MOL   C420 4028   5.740   1.565   6.835 -0.1323  0.5133  0.3872
    5MOL   C421 4029   5.678   1.444   6.873 -0.7442  0.6408 -0.0423
    5MOL   O422 4030   5.873   1.770   6.891  0.5257  0.4640  0.2556
    5MOL   C423 4031   5.813   1.858   6.807 -0.3036 -0.0607  0.2805
    5MOL   C424 4032   5.899   1.951   6.746 -0.1521  0.6645  0.0360
    5MOL   C425 4033   5.847   2.043   6.658  0.8845 -0.3489  0.5043
    5MOL   C426 4034   5.710   2.063   6.644  0.2094 -0.5123 -0.2114
    5MOL   C427 4035   5.624   1.974   6.707 -0.0052  0.7885  0.1088
    5MOL   C428 4036   5.674   1.874   6.795  0.2878  0.4365  0.1908
    5MOL   C429 4037   5.650   2.182   6.580  0.3786 -0.2698 -0.4061
    5MOL   C430 4038   5.684   2.310   6.625 -0.6233 -0.4334  0.4293
    5MOL   C431 4039   5.630   2.427   6.569 -0.2154 -0.1308 -0.3137
    5MOL   C432 4040   5.541   2.415   6.459 -0.4814  0.4587 -0.0887
    5MOL   C433 4041   5.497   2.284   6.418 -0.1151 -0.2099  0.1587
    5MOL   C434 4042   5.560   2.167   6.472 -0.1396  0.0929  0.3428
    5MOL   O435 4043   5.489   2.525   6.392 -0.5508  0.0228 -0.6550
    5MOL   H436 4044   5.230   1.553   7.217 -1.0812  0.2656  0.0787
    5MOL   H437 4045   5.454   1.506   7.165  0.9191  0.2749 -1.0211
    5MOL   H438 4046   5.348   1.102   7.059 -1.9670 -1.0446 -1.8380
    5MOL   H439 4047   5.112   1.152   7.085 -0.2927  0.5501 -0.4881
    5MOL   H440 4048   5.718   1.472   7.215 -0.7225 -2.9793 -0.9214
    5MOL   H441 4049   5.826   1.682   7.136 -1.5280  2.1678 -1.9368
    5MOL   H442 4050   5.737   1.595   6.731 -0.7361 -1.1408 -0.0947
    5MOL   H443 4051   5.637   1.374   6.801  0.2062 -3.0166  2.7920
    5MOL   H444 4052   6.004   1.930   6.763 -0.2928 -0.8683 -0.9086
    5MOL   H445 4053   5.922   2.113   6.623  0.1150 -0.0633 -0.6246
    5MOL   H446 4054   5.518   1.996   6.703 -0.1859 -0.4249 -4.1435
    5MOL   H447 4055   5.610   1.804   6.846  0.1800  1.4812  1.5014
    5MOL   H448 4056   5.758   2.323   6.702 -0.0171 -0.1908 -0.1858
    5MOL   H449 4057   5.672   2.523   6.597  0.3364 -0.3917 -0.2505
    5MOL   H450 4058   5.433   2.283   6.331  2.4707  0.3530 -1.8143
    5MOL   H451 4059   5.535   2.066   6.440  0.2418  0.5345 -1.4502
    5MOL   C452 4060   5.560   2.564   6.284  0.1255 -0.2384  0.2561
    5MOL   C453 4061   5.511   2.551   6.154 -0.1029 -1.3600 -0.4236
    5MOL   C454 4062   5.577   2.591   6.037  0.1998  0.0498 -0.1342
    5MOL   C455 4063   5.703   2.651   6.056  0.1671 -0.1796  0.2185
    5MOL   C456 4064   5.757   2.664   6.184  0.1590 -0.6623 -0.2921
    5MOL   C457 4065   5.686   2.617   6.300  0.3093 -0.6650 -0.0765
    5MOL   S458 4066   5.783   2.730   5.914 -0.0080 -0.2309  0.9497
    5MOL   O459 4067   5.925   2.762   5.943 -0.6353  0.3101  0.3724
    5MOL   O460 4068   5.691   2.835   5.867 -0.2741  0.0646  0.1039
    5MOL   C461 4069   5.773   2.592   5.799 -0.3611 -0.5201 -0.5447
    5MOL   C462 4070   5.854   2.479   5.819 -0.4246 -0.9894  0.1466
    5MOL   C463 4071   5.842   2.362   5.743  0.0353  0.2189 -0.3561
    5MOL   C464 4072   5.748   2.364   5.642  0.0809  0.9099 -0.2548
    5MOL   C465 4073   5.665   2.478   5.621 -0.2866  0.0995 -0.0391
    5MOL   C466 4074   5.670   2.590   5.708 -0.2870  0.1857 -0.1524
    5MOL   O467 4075   5.726   2.256   5.561  0.3277 -0.2331 -0.1613
    5MOL   C468 4076   5.621   2.174   5.601 -0.7958  0.3734  0.2950
    5MOL   C469 4077   5.500   2.180   5.527 -0.5309 -0.1913  0.3254
    5MOL   C470 4078   5.401   2.079   5.533  0.3165  0.2423  0.6718
    5MOL   C471 4079   5.406   1.985   5.632  0.2208 -0.1079  0.2655
    5MOL   C472 4080   5.520   1.981   5.719  0.0613  0.4682 -0.0008
    5MOL   C473 4081   5.626   2.075   5.701  0.0045  0.4809  0.3632
    5MOL   C474 4082   5.289   1.888   5.653 -0.1474 -0.5178  0.4209
    5MOL   C475 4083   5.312   1.755   5.681 -0.5322  0.5850 -0.3365
    5MOL   C476 4084   5.205   1.664   5.701  0.1245 -0.0082 -0.0280
    5MOL   C477 4085   5.069   1.708   5.686 -0.7222  0.9699  0.1198
    5MOL   C478 4086   5.048   1.843   5.656 -0.6100 -0.1659 -0.2798
    5MOL   C479 4087   5.156   1.936   5.641 -0.2143 -0.3316  0.7018
    5MOL   O480 4088   4.965   1.623   5.682 -0.2914  0.4068  0.7350
    5MOL   H481 4089   5.417   2.498   6.148 -0.8872  0.1120 -1.1337
    5MOL   H482 4090   5.523   2.596   5.944  0.5934  0.1136 -0.3565
    5MOL   H483 4091   5.854   2.707   6.204  0.3481 -0.9222 -0.6439
    5MOL   H484 4092   5.731   2.631   6.397 -1.0797  0.9162  0.3730
    5MOL   H485 4093   5.931   2.483   5.894 -0.2180 -0.0040 -0.1029
    5MOL   H486 4094   5.901   2.273   5.758  1.7881  1.6802  1.5513
    5MOL   H487 4095   5.594   2.476   5.540 -1.3563  0.9444  0.8632
    5MOL   H488 4096   5.600   2.673   5.707  2.5387  2.7437  3.2329
    5MOL   H489 4097   5.490   2.257   5.451  0.3610 -0.1375  0.2508
    5MOL   H490 4098   5.313   2.094   5.472  0.6493  2.7743  0.7754
    5MOL   H491 4099   5.522   1.910   5.801  0.2985  1.0898  0.5379
    5MOL   H492 4100   5.717   2.050   5.754 -0.4804 -4.0902 -0.7619
    5MOL   H493 4101   5.410   1.709   5.676 -0.2205  1.3845 -2.0638
    5MOL   H494 4102   5.243   1.564   5.717  0.6700 -0.0740 -1.5908
    5MOL   H495 4103   4.953   1.889   5.634 -1.1676 -1.6246 -0.9578
    5MOL   H496 4104   5.132   2.039   5.620 -3.8362 -1.3260 -0.2821
    5MOL   C497 4105   4.979   1.499   5.635  0.5543  0.1163  0.7862
    5MOL   C498 4106   4.929   1.392   5.714  0.5661 -0.1647  0.2079
    5MOL   C499 4107   4.944   1.260   5.678 -0.3694 -0.4427 -0.4385
    5MOL   C500 4108   4.988   1.238   5.547 -0.4596  0.4214  0.1137
    5MOL   C501 4109   5.032   1.341   5.461  0.3497 -0.8884 -0.3224
    5MOL   C502 4110   5.034   1.472   5.510  0.0620  0.8443  0.3381
    5MOL   S503 4111   4.979   1.068   5.474 -0.1811 -0.5396  0.0128
    5MOL   O504 4112   5.064   1.057   5.354 -0.1639  0.4230 -0.0948
    5MOL   O505 4113   4.831   1.040   5.470 -0.6597 -0.1158 -0.0010
    5MOL   C506 4114   5.030   0.963   5.605  0.1256  0.0069 -0.1144
    5MOL   C507 4115   5.163   0.935   5.610 -0.0130  0.0251 -0.4091
    5MOL   C508 4116   5.209   0.847   5.711 -0.3589 -0.5803 -0.0894
    5MOL   C509 4117   5.124   0.791   5.806  0.2769 -0.6714  0.0166
    5MOL   C510 4118   4.989   0.824   5.806 -0.4614 -0.2242  0.3622
    5MOL   C511 4119   4.944   0.905   5.700 -0.3045 -0.7832 -0.4338
    5MOL   O512 4120   5.169   0.689   5.884  0.3609 -0.0676 -0.0071
    5MOL   C513 4121   5.113   0.567   5.863 -0.1094 -0.2663  0.1493
    5MOL   C514 4122   5.118   0.505   5.736  0.4954  0.2067  0.1502
    5MOL   C515 4123   5.036   0.390   5.714 -0.1387  0.2723  0.3676
    5MOL   C516 4124   4.957   0.334   5.816  0.6323 -0.1808 -0.0666
    5MOL   C517 4125   4.965   0.394   5.944 -0.3846  0.1563 -0.4715
    5MOL   C518 4126   5.026   0.514   5.962  0.1080  0.0668 -0.2022
    5MOL   C519 4127   4.857   0.226   5.786 -0.3034 -0.4054  0.3644
    5MOL   C520 4128   4.800   0.145   5.887 -0.5221 -0.9570  0.0810
    5MOL   C521 4129   4.705   0.047   5.867  0.9010  0.1299  0.1444
    5MOL   C522 4130   4.672   0.019   5.727 -0.0900 -0.7577  0.8404
    5MOL   C523 4131   4.722   0.101   5.623 -0.2198  0.3639 -0.3397
    5MOL   C524 4132   4.819   0.204   5.651 -0.0766 -0.6862 -0.5436
    5MOL   O525 4133   4.587   8.284   5.695  0.4032  0.0946  0.5689
    5MOL   H526 4134   4.883   1.418   5.808  1.5185  2.1949  0.0526
    5MOL   H527 4135   4.899   1.188   5.745  1.4962 -0.7474  0.5011
    5MOL   H528 4136   5.076   1.319   5.364  0.8857  0.3050 -0.3578
    5MOL   H529 4137   5.077   1.546   5.444  2.5508 -0.0772  0.8591
    5MOL   H530 4138   5.236   0.961   5.536  1.6465 -2.4721  0.2851
    5MOL   H531 4139   5.313   0.820   5.718  0.3897  1.5488 -1.9909
    5MOL   H532 4140   4.925   0.774   5.877 -2.6699 -0.6795 -1.8679
    5MOL   H533 4141   4.838   0.921   5.688 -0.5541 -1.4770  0.8075
    5MOL   H534 4142   5.184   0.546   5.661 -1.1176 -0.0936 -1.4545
    5MOL   H535 4143   5.042   0.329   5.625 -2.2874  2.0341 -1.0498
    5MOL   H536 4144   4.895   0.355   6.016  0.0631 -0.6677 -0.4782
    5MOL   H537 4145   5.012   0.580   6.046  4.0160  0.7183  0.0361
    5MOL   H538 4146   4.821   0.161   5.991 -0.4884 -3.6920  0.5487
    5MOL   H539 4147   4.652   8.363   5.946 -0.8685  0.7601 -0.6179
    5MOL   H540 4148   4.704   0.074   5.520  0.7732  2.2739 -1.0384
    5MOL   H541 4149   4.868   0.255   5.569  0.6662  0.1521  0.4213
    5MOL   C542 4150   4.474   8.266   5.766 -1.0232 -0.1001  0.5071
    5MOL   C543 4151   4.355   8.344   5.746  0.0575  0.0590 -0.1239
    5MOL   C544 4152   4.236   8.310   5.817 -0.2553  0.7129 -0.4924
    5MOL   C545 4153   4.239   8.209   5.920  0.0129  0.5552  0.0770
    5MOL   C546 4154   4.363   8.152   5.958  0.2103 -0.7108 -0.5067
    5MOL   C547 4155   4.472   8.167   5.870 -0.0137 -0.4128  0.1222
    5MOL   S548 4156   4.095   8.169   6.017 -0.5617  0.4102  0.2265
    5MOL   O549 4157   4.082   8.021   6.009 -0.0136 -0.6897 -0.1777
    5MOL   O550 4158   3.979   8.245   5.969 -0.7125 -0.7902  0.0898
    5MOL   C551 4159   4.105   8.216   6.193  1.1928  0.2438 -0.2726
    5MOL   C552 4160   4.225   8.278   6.240  0.8459  0.4530  0.1597
    5MOL   C553 4161   4.239   8.315   6.372 -0.0217 -0.0389 -0.2366
    5MOL   C554 4162   4.130   8.296   6.460  0.4467 -0.5312  0.2726
    5MOL   C555 4163   4.008   8.237   6.413  0.5550 -0.5702  0.0264
    5MOL   C556 4164   3.999   8.186   6.281 -1.0012 -0.3083 -0.1815
    5MOL   O557 4165   4.136   8.336   6.592  0.0396  0.2708  0.6571
    5MOL   C558 4166   4.127   0.101   6.629  0.6352 -0.0741 -0.0604
    5MOL   C559 4167   4.013   0.177   6.597  0.2663  0.2527 -0.1843
    5MOL   C560 4168   4.001   0.312   6.634  0.1024  0.5444  0.3478
    5MOL   C561 4169   4.110   0.375   6.701 -0.2198 -0.7388 -0.1363
    5MOL   C562 4170   4.214   0.298   6.748 -0.3761  0.5101 -0.4088
    5MOL   C563 4171   4.231   0.160   6.714 -0.1843 -0.2812  0.1541
    5MOL   C564 4172   4.095   0.521   6.741  0.4694  0.3808 -0.2242
    5MOL   C565 4173   4.092   0.618   6.634  0.1598  0.0312 -0.4215
    5MOL   C566 4174   4.074   0.753   6.677  0.3010  0.6553  0.4247
    5MOL   C567 4175   4.041   0.788   6.812 -0.2656  0.1160 -0.2972
    5MOL   C568 4176   4.048   0.689   6.908  0.5000  0.1885  0.3497
    5MOL   C569 4177   4.085   0.560   6.876 -0.0065  0.6383 -0.3749
    5MOL   O570 4178   4.011   0.914   6.853  0.2964 -0.4605 -0.0195
    5MOL   H571 4179   4.342   0.059   5.675  1.8968  0.8034  0.3461
    5MOL   H572 4180   4.145   8.365   5.799  0.4477  1.7702 -0.8639
    5MOL   H573 4181   4.361   8.071   6.029 -0.4058 -1.2910 -1.1747
    5MOL   H574 4182   4.559   8.105   5.885 -0.6386 -1.1122  0.8643
    5MOL   H575 4183   4.304   8.299   6.170  1.7005 -1.5960  0.4703
    5MOL   H576 4184   4.330   8.359   6.410 -0.4702  0.0875  0.7041
    5MOL   H577 4185   3.920   8.233   6.475  0.9475 -0.0403  0.6265
    5MOL   H578 4186   3.910   8.136   6.247 -0.3586 -0.6336 -1.3984
    5MOL   H579 4187   3.929   0.139   6.540  1.1267  0.4499 -1.6102
    5MOL   H580 4188   3.910   0.370   6.625 -0.6068 -0.1169  2.9488
    5MOL   H581 4189   4.291   0.347   6.806  0.3639  0.0825 -1.0205
    5MOL   H582 4190   4.308   0.096   6.755  0.2951  1.7092  2.4973
    5MOL   H583 4191   4.104   0.583   6.533 -0.5920  0.7301 -0.7578
    5MOL   H584 4192   4.071   0.835   6.607  0.8190 -1.8513 -2.6829
    5MOL   H585 4193   4.042   0.721   7.011 -0.0079  2.5216 -0.3684
    5MOL   H586 4194   4.089   0.488   6.957  1.2095  2.5876  1.3678
    5MOL   C587 4195   4.113   0.999   6.883  1.6588  0.2937 -0.6922
    5MOL   C588 4196   4.146   1.103   6.783 -0.5158  0.3924 -0.0881
    5MOL   C589 4197   4.246   1.200   6.811  0.1466  0.6293  0.1202
    5MOL   C590 4198   4.301   1.204   6.938  0.1440 -0.7738  0.2558
    5MOL   C591 4199   4.265   1.111   7.033  0.2292 -0.1812  0.1350
    5MOL   C592 4200   4.177   1.002   7.008 -0.1553 -0.1071 -0.4638
    5MOL   S593 4201   4.398   1.336   6.987 -0.1341  0.2317 -0.6868
    5MOL   O594 4202   4.523   1.345   6.904  0.1739  0.2343 -0.7962
    5MOL   O595 4203   4.406   1.325   7.139  0.1134  0.0569  0.1045
    5MOL   C596 4204   4.300   1.488   6.969  0.7364  0.1854 -0.1210
    5MOL   C597 4205   4.235   1.537   7.086 -0.7122 -0.7393 -0.0345
    5MOL   C598 4206   4.154   1.649   7.075 -0.3608 -0.8329 -0.0468
    5MOL   C599 4207   4.146   1.721   6.953  0.0487  0.1422  0.3596
    5MOL   C600 4208   4.208   1.665   6.838  0.7368 -0.2656  0.2938
    5MOL   C601 4209   4.289   1.549   6.843  0.1974  0.4596 -0.7078
    5MOL   O602 4210   4.092   1.843   6.948  0.3852 -0.0355  0.5782
    5MOL   C603 4211   4.041   1.903   7.060  0.1212 -0.2758 -0.3187
    5MOL   C604 4212   3.903   1.889   7.094  0.1740  0.3592  0.0506
    5MOL   C605 4213   3.853   1.955   7.210 -0.0541 -0.5081  0.0036
    5MOL   C606 4214   3.946   2.031   7.292 -0.2768 -0.4246  1.0289
    5MOL   C607 4215   4.081   2.038   7.258 -0.5494  0.1386 -0.0220
    5MOL   C608 4216   4.128   1.970   7.144 -0.3640 -0.0467  0.5744
    5MOL   C609 4217   3.900   2.102   7.409  0.1483 -0.0212  0.7541
    5MOL   C610 4218   3.821   2.040   7.507  0.0804  0.3327  0.0688
    5MOL   C611 4219   3.792   2.111   7.622  0.4806 -0.3860 -1.0964
    5MOL   C612 4220   3.851   2.238   7.648  0.3460 -0.3438 -0.6117
    5MOL   C613 4221   3.929   2.303   7.552  0.7535 -0.9108  0.2533
    5MOL   C614 4222   3.951   2.235   7.430  0.0795 -0.1180 -0.3863
    5MOL   O615 4223   3.830   2.304   7.766 -0.1495  0.1332 -0.3854
    5MOL   H616 4224   4.091   1.111   6.690 -2.0799 -1.5887  0.6220
    5MOL   H617 4225   4.278   1.275   6.740  0.0528 -0.2083 -0.8000
    5MOL   H618 4226   4.302   1.112   7.134  2.0411 -1.2358 -0.4836
    5MOL   H619 4227   4.150   0.933   7.086  1.4513  1.6184  1.7115
    5MOL   H620 4228   4.243   1.488   7.182 -1.9143  0.1866  0.5585
    5MOL   H621 4229   4.121   1.689   7.170  1.9651  3.6767 -0.9739
    5MOL   H622 4230   4.188   1.726   6.750  0.2193  0.5419  0.9620
    5MOL   H623 4231   4.335   1.510   6.753  1.3693 -0.8847  0.4519
    5MOL   H624 4232   3.835   1.843   7.024 -1.1715 -0.3135  1.7788
    5MOL   H625 4233   3.750   1.954   7.242 -0.3514 -1.4094 -0.9567
    5MOL   H626 4234   4.160   2.084   7.315  0.9461 -1.5353 -0.7029
    5MOL   H627 4235   4.233   1.983   7.121 -0.9447 -0.4713 -2.6322
    5MOL   H628 4236   3.780   1.942   7.488 -1.5947  1.3447 -1.6932
    5MOL   H629 4237   3.737   2.067   7.704  0.4365  0.4766 -0.6542
    5MOL   H630 4238   3.990   2.390   7.569  0.0271 -0.2728 -0.3945
    5MOL   H631 4239   4.021   2.282   7.362  0.2657  0.7957  0.4226
    5MOL   C632 4240   3.878   2.433   7.773  0.1797  0.1425 -0.0006
    5MOL   C633 4241   4.006   2.452   7.826 -0.3740  1.1277  0.5416
    5MOL   C634 4242   4.053   2.582   7.828 -0.0150  0.2475  0.1972
    5MOL   C635 4243   3.980   2.691   7.778  0.1020  0.2735  0.1349
    5MOL   C636 4244   3.844   2.667   7.737  0.2807 -0.4795  0.5723
    5MOL   C637 4245   3.794   2.535   7.732  0.6779 -0.6953  0.5955
    5MOL   S638 4246   4.040   2.855   7.773  0.0425  0.1185  0.1028
    5MOL   O639 4247   3.921   2.942   7.785 -0.5393  0.3639  0.1683
    5MOL   O640 4248   4.123   2.875   7.652 -0.2530  0.1290  0.4264
    5MOL   C641 4249   4.137   2.870   7.922 -0.9723 -0.1453  0.0727
    5MOL   C642 4250   4.074   2.894   8.044  0.1109  0.2508 -1.3968
    5MOL   C643 4251   4.149   2.904   8.164  0.0487 -0.3978  0.5236
    5MOL   C644 4252   4.286   2.889   8.160  0.6474  0.3404 -0.0213
    5MOL   C645 4253   4.351   2.858   8.039 -0.1149 -0.1757  1.0567
    5MOL   C646 4254   4.277   2.853   7.917  0.5368  0.2328 -0.1490
    5MOL   O647 4255   4.365   2.905   8.275 -1.2786  0.7310 -0.0616
    5MOL   C648 4256   4.378   2.797   8.358  0.1753 -0.1793  1.0627
    5MOL   C649 4257   4.480   2.795   0.085  0.8806 -0.5959 -0.6540
    5MOL   C650 4258   4.499   2.683   0.170 -0.0804 -0.0040 -0.6680
    5MOL   C651 4259   4.418   2.569   0.170  0.1623  0.2196 -0.2318
    5MOL   C652 4260   4.312   2.567   0.068  0.4334 -0.1808  0.4336
    5MOL   C653 4261   4.290   2.682   8.357 -0.0203 -0.9009 -0.1647
    5MOL   C654 4262   4.429   2.463   0.269  0.5275  0.2385  0.0248
    5MOL   C655 4263   4.490   2.485   0.396  0.3825 -0.6524  0.1348
    5MOL   C656 4264   4.511   2.380   0.489  0.0619 -0.4698 -0.3460
    5MOL   C657 4265   4.441   2.260   0.471 -0.0186  0.1016 -0.0005
    5MOL   C658 4266   4.371   2.235   0.351 -0.3355  0.0891 -0.6438
    5MOL   C659 4267   4.366   2.335   0.254  0.4884  0.4776  0.0344
    5MOL   O660 4268   4.430   2.173   0.571  0.4730  0.4827  0.0341
    5MOL   H661 4269   4.067   2.376   7.872 -1.0987  0.0295 -0.2873
    5MOL   H662 4270   4.151   2.584   7.874  0.0625 -1.0885  0.1157
    5MOL   H663 4271   3.790   2.755   7.706 -0.0361 -1.0762 -0.5725
    5MOL   H664 4272   3.696   2.513   7.692  0.8701 -2.8397  1.2119
    5MOL   H665 4273   3.970   2.919   8.034  0.0510  0.3112 -0.6754
    5MOL   H666 4274   4.103   2.927   8.259  0.2745  0.2324  0.4857
    5MOL   H667 4275   4.457   2.849   8.055 -0.0166  0.5134  0.8338
    5MOL   H668 4276   4.319   2.839   7.819 -0.6038  1.3324 -0.8142
    5MOL   H669 4277   4.551   2.876   0.093 -0.3172  0.3359  0.6165
    5MOL   H670 4278   4.576   2.696   0.244 -1.0769  1.7044  0.1065
    5MOL   H671 4279   4.239   2.488   0.058  2.8651 -2.4097 -0.3867
    5MOL   H672 4280   4.202   2.681   8.295  0.8357 -0.9247 -1.4083
    5MOL   H673 4281   4.526   2.584   0.422  0.9637 -0.6326 -0.7194
    5MOL   H674 4282   4.552   2.413   0.583 -0.6762  0.4475 -0.3390
    5MOL   H675 4283   4.337   2.134   0.333 -0.9137  0.2186 -0.2754
    5MOL   H676 4284   4.308   2.306   0.167  0.4777  0.2146  0.1291
    5MOL   C677 4285   4.536   2.089   0.593 -0.1317  0.6385  0.2067
    5MOL   C678 4286   4.590   2.067   0.728 -0.0595  0.1850 -0.2139
    5MOL   C679 4287   4.697   1.980   0.745  0.3480 -0.6142 -0.5176
    5MOL   C680 4288   4.750   1.911   0.635 -0.1682  0.5535 -0.4547
    5MOL   C681 4289   4.695   1.922   0.508  0.2284  0.7399 -0.0213
    5MOL   C682 4290   4.587   2.011   0.489  0.0825 -0.8848 -0.0483
    5MOL   S683 4291   4.876   1.784   0.674  0.0232  0.0529 -0.4715
    5MOL   O684 4292   4.885   1.683   0.567  0.0534  0.9726  0.3986
    5MOL   O685 4293   4.851   1.738   0.809 -0.0584 -0.9973 -0.2494
    5MOL   C686 4294   5.034   1.869   0.677 -0.5161  0.0944  0.4691
    5MOL   C687 4295   5.117   1.886   0.564 -0.1898  0.2646 -0.1572
    5MOL   C688 4296   5.225   1.973   0.569  0.4142 -0.2141 -0.1478
    5MOL   C689 4297   5.258   2.046   0.686  0.0834  0.4942  0.0873
    5MOL   C690 4298   5.180   2.026   0.799  0.3205 -0.0592 -0.7735
    5MOL   C691 4299   5.056   1.952   0.791 -0.7094 -0.3090 -0.2450
    5MOL   O692 4300   5.365   2.127   0.693 -0.6772  0.3664  0.1208
    5MOL   C693 4301   5.466   2.129   0.602  0.0079 -0.6579 -0.1199
    5MOL   C694 4302   5.555   2.025   0.589 -0.5176 -0.4160  0.0933
    5MOL   C695 4303   5.650   2.033   0.484 -0.4536  0.4380  0.2704
    5MOL   C696 4304   5.666   2.144   0.400  0.0161 -0.0919  0.5479
    5MOL   C697 4305   5.573   2.245   0.416 -0.1885  0.3358  0.1945
    5MOL   C698 4306   5.476   2.246   0.519 -0.2520  0.0022  0.1030
    5MOL   C699 4307   5.757   2.144   0.283 -0.4108  0.9164 -0.5554
    5MOL   C700 4308   5.888   2.092   0.303 -0.4335  0.3542 -0.0328
    5MOL   C701 4309   5.972   2.079   0.190 -0.4566 -0.0190 -0.6955
    5MOL   C702 4310   5.924   2.113   0.063 -0.3563  0.8455 -0.7785
    5MOL   C703 4311   5.796   2.164   0.046  0.0653 -0.0718 -0.5249
    5MOL   C704 4312   5.716   2.178   0.156 -0.3339 -0.3409 -0.3974
    5MOL   O705 4313   6.014   2.104   8.331  0.5098 -1.0069 -0.1397
    5MOL   H706 4314   4.555   2.121   0.815 -0.1174 -2.1888  1.2890
    5MOL   H707 4315   4.734   1.969   0.846 -0.3490  1.1349 -0.0598
    5MOL   H708 4316   4.732   1.869   0.422  0.1992  0.8351 -0.0926
    5MOL   H709 4317   4.551   2.011   0.388  1.1395 -0.2158 -0.4304
    5MOL   H710 4318   5.098   1.829   0.474 -2.1947  1.4553 -0.5057
    5MOL   H711 4319   5.287   1.973   0.480 -0.0187 -1.8037 -0.4722
    5MOL   H712 4320   5.195   2.085   0.889  1.4467 -0.4189 -0.7193
    5MOL   H713 4321   4.999   1.945   0.883 -0.1533 -0.4021  0.0972
    5MOL   H714 4322   5.535   1.943   0.656 -2.8356 -1.0336 -1.3183
    5MOL   H715 4323   5.713   1.947   0.466 -0.2334  0.0215  2.8580
    5MOL   H716 4324   5.569   2.333   0.354  0.3874 -0.0698 -0.4205
    5MOL   H717 4325   5.409   2.330   0.532  1.5247  1.2258  1.5473
    5MOL   H718 4326   5.922   2.066   0.402  1.4524 -1.1586 -1.0467
    5MOL   H719 4327   6.071   2.038   0.199 -0.8848 -1.2627 -1.4902
    5MOL   H720 4328   5.772   2.179   8.308 -0.3714 -1.8666 -0.6995
    5MOL   H721 4329   5.619   2.220   0.134 -1.3830 -0.9311  2.8048
    5MOL   C722 4330   6.023   1.998   8.242  0.6955 -0.3307 -0.8740
    5MOL   C723 4331   5.979   2.007   8.109 -0.5327  0.0138  0.4144
    5MOL   C724 4332   5.990   1.898   8.018  0.2509  0.1224 -0.6558
    5MOL   C725 4333   6.034   1.776   8.069  0.1663  0.0914  0.0294
    5MOL   C726 4334   6.073   1.761   8.207 -0.0679 -0.5750 -0.0820
    5MOL   C727 4335   6.071   1.873   8.296  0.9097  0.2024 -0.7812
    5MOL   S728 4336   6.020   1.631   7.960  0.1744  0.0898  0.2861
    5MOL   O729 4337   6.113   1.648   7.844  0.1040 -0.0938  0.0896
    5MOL   O730 4338   5.876   1.604   7.940 -0.0567  0.4260 -0.1843
    5MOL   C731 4339   6.085   1.487   8.045  0.0117  0.0032  0.0891
    5MOL   C732 4340   6.227   1.479   8.046  0.0444  0.0018 -0.1028
    5MOL   C733 4341   6.287   1.368   8.106  0.4179  0.4477  0.0048
    5MOL   C734 4342   6.212   1.280   8.182 -0.6405 -0.1563  0.3899
    5MOL   C735 4343   6.070   1.292   8.183 -0.4596 -0.3703 -0.1682
    5MOL   C736 4344   6.001   1.391   8.105 -0.1800  0.4885  0.3181
    5MOL   O737 4345   6.273   1.171   8.236  0.2529  0.6279 -0.1153
    5MOL   C738 4346   6.266   1.152   0.007  0.1505 -0.2419  0.0526
    5MOL   C739 4347   6.338   1.233   0.094 -0.0208 -0.3216  0.1140
    5MOL   C740 4348   6.330   1.222   0.236 -0.7938 -0.2404  0.5016
    5MOL   C741 4349   6.236   1.131   0.282 -0.2154 -0.2045  0.1455
    5MOL   C742 4350   6.160   1.050   0.194  0.3758 -0.5836  0.1817
    5MOL   C743 4351   6.175   1.063   0.058  0.2020  0.0605 -0.4983
    5MOL   C744 4352   6.228   1.118   0.430  0.1146  0.8792 -0.4962
    5MOL   C745 4353   6.212   0.993   0.491 -0.4502  0.5196 -0.0783
    5MOL   C746 4354   6.186   0.978   0.628  0.3803 -0.2361 -0.3167
    5MOL   C747 4355   6.187   1.098   0.709 -0.0962  0.8382  0.4557
    5MOL   C748 4356   6.216   1.218   0.653  0.4320  0.0179  0.1267
    5MOL   C749 4357   6.219   1.227   0.513  0.2449  0.7803  0.0579
    5MOL   O750 4358   6.158   1.088   0.842  0.3155  0.1270 -0.0034
    5MOL   H751 4359   5.947   2.097   8.060 -0.4282  0.0500  0.4139
    5MOL   H752 4360   5.959   1.901   7.914 -0.7620 -1.5087 -0.4157
    5MOL   H753 4361   6.097   1.665   8.250  0.7102  0.1573  1.1313
    5MOL   H754 4362   6.101   1.870   0.034 -1.1629 -0.6757 -0.1918
    5MOL   H755 4363   6.288   1.550   7.992 -0.7686  0.6686 -0.1679
    5MOL   H756 4364   6.395   1.362   8.094  0.6100  2.2311  0.7699
    5MOL   H757 4365   6.011   1.218   8.236  2.6122 -1.6985  1.5171
    5MOL   H758 4366   5.893   1.395   8.094 -0.4150 -0.0111  2.2237
    5MOL   H759 4367   6.413   1.297   0.049  0.8398 -1.5523 -0.2271
    5MOL   H760 4368   6.382   1.286   0.306  0.0550  0.6045 -0.8780
    5MOL   H761 4369   6.092   0.980   0.240  2.1843 -1.1345  2.1313
    5MOL   H762 4370   6.127   0.989   8.362  0.6554 -0.0515 -0.7160
    5MOL   H763 4371   6.217   0.900   0.436 -1.1537  2.1598 -2.9828
    5MOL   H764 4372   6.168   0.877   0.660  1.1095 -0.3064 -0.1096
    5MOL   H765 4373   6.218   1.307   0.715  1.0111 -0.6308  1.0454
    5MOL   H766 4374   6.219   1.328   0.475 -1.7060  0.6088 -0.4490
    5MOL   C767 4375   6.040   1.027   0.878 -0.1103 -0.3984  0.1284
    5MOL   C768 4376   5.931   0.993   0.789  0.2528 -0.1972 -0.9501
    5MOL   C769 4377   5.808   0.947   0.844 -0.2098 -0.2095  0.0742
    5MOL   C770 4378   5.794   0.918   0.978 -0.0403 -0.6984 -0.6794
    5MOL   C771 4379   5.911   0.939   1.058  0.6677 -0.0925 -0.0822
    5MOL   C772 4380   6.027   1.005   1.015 -0.1197 -0.0815 -0.0363
    5MOL   S773 4381   5.645   0.830   1.036  0.3108 -0.6617 -0.0209
    5MOL   O774 4382   5.532   0.870   0.953  1.0754 -0.2295 -0.1813
    5MOL   O775 4383   5.646   0.850   1.183  0.0656 -0.3674  0.3717
    5MOL   C776 4384   5.676   0.653   1.006 -0.8027 -0.4932  0.1914
    5MOL   C777 4385   5.786   0.617   0.920 -0.1522  0.6714 -0.7010
    5MOL   C778 4386   5.818   0.485   0.912 -0.6226 -0.0012 -0.2503
    5MOL   C779 4387   5.739   0.384   0.970  0.1083 -0.5150 -0.9110
    5MOL   C780 4388   5.633   0.423   1.059  0.7311 -0.1383  0.0870
    5MOL   C781 4389   5.593   0.559   1.063  1.1074  0.7813  0.2317
    5MOL   O782 4390   5.767   0.253   0.954 -0.1352  0.4618  0.0971
    5MOL   C783 4391   5.864   0.198   1.041 -0.2433 -0.2003 -0.1263
    5MOL   C784 4392   5.918   0.257   1.161  0.1268 -0.1876 -0.4407
    5MOL   C785 4393   6.014   0.186   1.234  0.8356 -0.6696 -0.2153
    5MOL   C786 4394   6.059   0.059   1.200 -0.4347  0.3013  0.2922
    5MOL   C787 4395   5.991   8.365   1.091  0.5274  0.5005  0.2540
    5MOL   C788 4396   5.905   0.067   1.007  0.5643 -0.0304 -0.3317
    5MOL   C789 4397   6.179   8.364   1.270  0.3950  0.5484 -0.1085
    5MOL   C790 4398   6.185   8.231   1.302 -0.7862 -0.1817 -0.1402
    5MOL   C791 4399   6.302   8.175   1.364  0.4390  0.8122  0.3443
    5MOL   C792 4400   6.409   8.257   1.409  0.0858 -0.2686  0.7943
    5MOL   C793 4401   6.397   0.031   1.380 -0.0720  0.0425  0.4002
    5MOL   C794 4402   6.285   0.081   1.306  0.3969 -0.3613 -0.9203
    5MOL   O795 4403   6.520   8.211   1.475 -0.2844 -0.0110 -0.0234
    5MOL   H796 4404   5.935   1.007   0.682 -1.7141 -0.8896 -1.1403
    5MOL   H797 4405   5.734   0.915   0.773 -0.6577  0.6199  0.1609
    5MOL   H798 4406   5.889   0.923   1.163 -3.2338 -1.2842 -1.0120
    5MOL   H799 4407   6.106   1.023   1.086 -1.9667  2.4709  1.4498
    5MOL   H800 4408   5.853   0.686   0.871  1.2193 -0.5968 -0.6272
    5MOL   H801 4409   5.903   0.454   0.852  0.3457  1.4185  0.3352
    5MOL   H802 4410   5.575   0.353   1.119  0.5006 -0.5218 -0.5791
    5MOL   H803 4411   5.511   0.583   1.128  0.1035  3.3959 -1.8992
    5MOL   H804 4412   5.880   0.354   1.192 -1.2939 -0.8760  0.0199
    5MOL   H805 4413   6.056   0.236   1.321  0.9332  0.1126 -0.7041
    5MOL   H806 4414   6.023   8.265   1.068 -0.2183  0.1169  0.8528
    5MOL   H807 4415   5.854   0.015   0.927 -0.1778  0.9973 -0.5338
    5MOL   H808 4416   6.098   8.170   1.284 -1.4101  0.7319 -0.2426
    5MOL   H809 4417   6.315   8.070   1.390  0.6760  0.4502 -1.1895
    5MOL   H810 4418   6.473   0.103   1.403  0.5956 -1.1753  2.1509
    5MOL   H811 4419   6.282   0.186   1.284  0.7666 -0.7867 -3.1889
    5MOL   C812 4420   6.579   8.096   1.437 -0.4994  0.2224  0.2019
    5MOL   C813 4421   6.549   7.972   1.505 -0.2485 -0.4330 -0.4645
    5MOL   C814 4422   6.597   7.854   1.452 -0.1643  0.0794 -0.1214
    5MOL   C815 4423   6.687   7.853   1.346 -0.6075  0.4352 -0.1767
    5MOL   C816 4424   6.719   7.973   1.282  0.3721  0.4801  0.5174
    5MOL   C817 4425   6.665   8.094   1.324  0.2079  0.1139  1.0634
    5MOL   S818 4426   6.758   7.697   1.272 -0.2391  0.1061 -0.0285
    5MOL   O819 4427   6.792   7.724   1.129  0.2839 -0.0095  0.6132
    5MOL   O820 4428   6.672   7.584   1.303  0.0402  0.0935  0.5954
    5MOL   C821 4429   6.909   7.671   1.363 -0.3723  0.2847  0.6543
    5MOL   C822 4430   7.004   7.773   1.363  0.6458 -0.2563 -0.4159
    5MOL   C823 4431   7.127   7.750   1.429  0.0257 -0.4131  0.7189
    5MOL   C824 4432   7.144   7.629   1.492  0.4120  0.4633  0.4600
    5MOL   C825 4433   7.042   7.531   1.497 -0.0869 -0.0185  0.1309
    5MOL   C826 4434   6.919   7.554   1.436  0.2470 -0.1807 -0.1236
    5MOL   O827 4435   7.261   7.616   1.564  0.5317  0.6235 -0.1562
    5MOL   C828 4436   7.272   7.667   1.689 -0.2227  1.0593  0.2170
    5MOL   C829 4437   7.170   7.658   1.780 -0.7411  0.7957 -0.0586
    5MOL   C830 4438   7.176   7.734   1.898 -0.6003  0.1020 -0.0377
    5MOL   C831 4439   7.294   7.807   1.930  0.3350 -0.4111  0.0761
    5MOL   C832 4440   7.394   7.815   1.836  0.2422  0.5067  0.0491
    5MOL   C833 4441   7.384   7.744   1.717  0.4681  0.4620  0.1386
    5MOL   C834 4442   7.311   7.865   2.068 -0.1194 -1.1312 -0.5928
    5MOL   C835 4443   7.417   7.824   2.153 -0.3443 -0.1540  0.2438
    5MOL   C836 4444   7.420   7.864   2.289  0.3459 -0.0180 -0.1585
    5MOL   C837 4445   7.321   7.943   2.344  0.5933 -0.3812 -0.5246
    5MOL   C838 4446   7.214   7.985   2.262  0.0923 -0.6897  0.0024
    5MOL   C839 4447   7.214   7.947   2.128 -0.0184 -0.1434 -0.4814
    5MOL   O840 4448   7.325   7.977   2.474  0.4838 -0.0383  0.0396
    5MOL   H841 4449   6.496   7.972   1.599  2.1832  0.1102  0.9615
    5MOL   H842 4450   6.574   7.755   1.490  1.1788  0.0837  0.7228
    5MOL   H843 4451   6.785   7.958   1.197 -0.0629 -2.8505  0.6761
    5MOL   H844 4452   6.695   8.187   1.277  0.1641 -1.0758 -1.3801
    5MOL   H845 4453   6.987   7.863   1.306  1.5431  0.3620  0.2703
    5MOL   H846 4454   7.205   7.824   1.435  2.7596 -3.1835  0.8629
    5MOL   H847 4455   7.056   7.447   1.563 -1.3134 -3.0652 -3.3016
    5MOL   H848 4456   6.840   7.480   1.444 -0.4815  0.6422  0.3171
    5MOL   H849 4457   7.083   7.598   1.758 -0.0492 -0.7451  1.3497
    5MOL   H850 4458   7.086   7.731   1.958  0.1267 -0.8259  1.0090
    5MOL   H851 4459   7.476   7.881   1.861  0.3344 -0.1750  1.6096
    5MOL   H852 4460   7.459   7.755   1.640  1.5974 -0.1893  1.1311
    5MOL   H853 4461   7.492   7.756   2.116  0.7958  2.0445 -1.5939
    5MOL   H854 4462   7.500   7.816   2.343 -1.1443 -1.2587  0.9948
    5MOL   H855 4463   7.135   8.052   2.295  1.2191  0.1327  1.0858
    5MOL   H856 4464   7.137   7.986   2.063  1.1056  0.8634 -1.2173
    5MOL   C857 4465   7.440   8.024   2.532 -0.9922 -0.2645  0.5284
    5MOL   C858 4466   7.457   8.020   2.670 -0.4901 -0.4159 -0.0669
    5MOL   C859 4467   7.588   8.055   2.728  0.3647 -0.5244 -0.0135
    5MOL   C860 4468   7.692   8.112   2.652  0.0166  0.3999  0.5688
    5MOL   C861 4469   7.667   8.123   2.516 -0.7121  0.4491  0.1482
    5MOL   C862 4470   7.548   8.081   2.459  1.0239  0.2986 -0.7244
    5MOL   S863 4471   7.857   8.130   2.720  0.0910 -0.5790 -0.0205
    5MOL   O864 4472   7.889   8.271   2.719 -0.5834 -0.1671 -0.3006
    5MOL   O865 4473   7.951   8.042   2.641  0.5767 -0.2956 -0.2272
    5MOL   C866 4474   7.859   8.071   2.894  0.4626 -0.2830  0.3540
    5MOL   C867 4475   7.921   7.944   2.921  0.1969  0.1373 -0.0375
    5MOL   C868 4476   7.925   7.899   3.051 -0.2308 -0.5016  0.8169
    5MOL   C869 4477   7.869   7.978   3.152  0.5043 -0.4911 -0.2449
    5MOL   C870 4478   7.800   8.098   3.126  0.1041  0.4130 -0.2090
    5MOL   C871 4479   7.803   8.150   2.994 -0.5677 -0.0482  0.6323
    5MOL   O872 4480   7.858   7.926   3.287 -0.4472  0.4971  0.1409
    5MOL   C873 4481   7.959   7.961   3.372 -0.9000 -0.2504  0.1432
    5MOL   C874 4482   7.930   8.040   3.483  0.5539 -0.4789 -0.4806
    5MOL   C875 4483   8.019   8.078   3.579 -0.1335  0.5305  0.1830
    5MOL   C876 4484   8.159   8.041   3.569 -0.1785  0.0549  0.0767
    5MOL   C877 4485   8.190   7.954   3.455  0.1496 -0.4163 -0.4555
    5MOL   C878 4486   8.092   7.922   3.351 -0.3097 -0.0693  0.2117
    5MOL   C879 4487   8.255   8.058   3.682  0.6896  0.5773 -0.0160
    5MOL   C880 4488   0.026   8.071   3.658 -0.4033 -0.3399 -0.3848
    5MOL   C881 4489   0.119   8.083   3.769  0.0227  0.0779 -0.1801
    5MOL   C882 4490   0.073   8.086   3.901  0.0932 -0.0588  0.2206
    5MOL   C883 4491   8.303   8.056   3.927 -0.2135 -0.8393  0.3086
    5MOL   C884 4492   8.211   8.047   3.820  0.2526 -0.0987  0.2247
    5MOL   O885 4493   0.162   8.121   3.998  0.4441  0.1157 -0.5986
    5MOL   H886 4494   7.373   7.978   2.723  0.0686 -2.0901 -0.4596
    5MOL   H887 4495   7.602   8.040   2.834  0.3024 -1.5527 -0.1483
    5MOL   H888 4496   7.749   8.148   2.450 -0.6126 -3.1006 -1.1724
    5MOL   H889 4497   7.543   8.082   2.352  0.9083  3.9894 -0.7519
    5MOL   H890 4498   7.955   7.878   2.843 -2.1724  0.3510 -1.3175
    5MOL   H891 4499   7.970   7.802   3.069  0.8716 -0.8494 -3.3156
    5MOL   H892 4500   7.754   8.149   3.209  0.7023 -1.3451  1.2185
    5MOL   H893 4501   7.767   8.248   2.968 -1.1587  0.2750  2.5988
    5MOL   H894 4502   7.833   8.077   3.510  0.3180 -1.8497  0.6250
    5MOL   H895 4503   7.981   8.132   3.664  1.3965  0.0420  1.2000
    5MOL   H896 4504   8.287   7.909   3.441  1.0324  1.0753  0.6863
    5MOL   H897 4505   8.103   7.857   3.266  0.7566  0.2815  0.0659
    5MOL   H898 4506   0.059   8.068   3.555 -1.4995 -0.8709 -0.7221
    5MOL   H899 4507   0.222   8.110   3.755  0.2772 -2.1039 -2.8385
    5MOL   H900 4508   8.271   8.037   4.029 -1.7570  1.6665  0.3289
    5MOL   H901 4509   8.106   8.026   3.829  0.4993 -1.9203 -0.7831
    5MOL   H902 4510   0.203   8.202   3.974 -0.3691  0.3970 -1.0462
    6MOL     C1 4511   7.423   7.501   0.526  0.3379 -0.1167 -0.2818
    6MOL     C2 4512   7.525   7.424   0.584  0.0910  0.3099 -0.0832
    6MOL     C3 4513   7.596   7.333   0.507 -0.4394 -0.7765  0.3151
    6MOL     C4 4514   7.563   7.314   0.375 -0.6963 -0.2825 -0.9909
    6MOL     C5 4515   7.465   7.392   0.315 -0.2796  0.5411 -0.2098
    6MOL     C6 4516   7.388   7.477   0.394  0.8256  0.2561  0.3960
    6MOL     S7 4517   7.633   7.183   0.279 -0.1357  0.1339 -0.2659
    6MOL     O8 4518   7.572   7.183   0.145  0.3810 -0.2623 -0.5769
    6MOL     O9 4519   7.626   7.055   0.352  0.0256 -0.2927  0.2930
    6MOL    C10 4520   7.806   7.230   0.267 -0.0648  0.3993 -0.0189
    6MOL    C11 4521   7.913   7.140   0.296  0.0923 -0.4738 -0.0347
    6MOL    C12 4522   8.048   7.187   0.293 -0.4936 -0.3454 -0.6156
    6MOL    C13 4523   8.074   7.323   0.246  0.0603  0.1797 -0.0658
    6MOL    C14 4524   7.961   7.407   0.209 -1.1134 -0.7937  0.1629
    6MOL    C15 4525   7.832   7.359   0.213 -0.2686 -0.6167 -0.5157
    6MOL    O16 4526   8.199   7.375   0.269 -0.5149 -0.6132  0.5256
    6MOL    C17 4527   8.251   7.469   0.182 -0.2447 -0.3006  0.3856
    6MOL    C18 4528   8.249   7.448   0.042 -0.1487  0.0624 -1.0852
    6MOL    C19 4529   8.310   7.547   8.325 -0.4993  0.1199  0.2664
    6MOL    C20 4530   0.003   7.669   0.013 -0.0865  1.1293  0.2852
    6MOL    C21 4531   8.361   7.685   0.151 -0.0476  0.4813  0.1733
    6MOL    C22 4532   8.306   7.585   0.236 -0.4704 -0.4943  0.5158
    6MOL    C23 4533   0.067   7.765   8.282  0.5049  0.5488  0.2710
    6MOL    C24 4534   0.013   7.768   8.151  0.1783 -0.1841  0.2416
    6MOL    C25 4535   0.070   7.855   8.058  0.3535  0.0283  0.2692
    6MOL    C26 4536   0.180   7.939   8.094  0.4586 -0.6182  0.1355
    6MOL    C27 4537   0.228   7.935   8.226  0.4110  0.1998 -1.1433
    6MOL    C28 4538   0.174   7.849   8.319  0.4369  0.8750  0.0427
    6MOL    O29 4539   0.228   8.018   7.993  0.1005  0.6604  0.3126
    6MOL    H30 4540   7.559   7.432   0.687  1.3994  0.6706 -0.5258
    6MOL    H31 4541   7.674   7.270   0.546 -0.8104 -1.7415 -0.4897
    6MOL    H32 4542   7.454   7.375   0.209 -0.3623 -1.7183  0.1410
    6MOL    H33 4543   7.310   7.542   0.358 -0.0410 -1.1109 -0.2357
    6MOL    H34 4544   7.883   7.045   0.338  1.2922 -0.3000  1.2446
    6MOL    H35 4545   8.122   7.117   0.330 -2.5051 -1.3335  1.6583
    6MOL    H36 4546   7.975   7.512   0.190 -1.2766 -0.8218 -0.1226
    6MOL    H37 4547   7.755   7.420   0.169 -1.3374 -2.0861 -0.7158
    6MOL    H38 4548   8.200   7.362   8.364 -2.3096  0.5773  0.1947
    6MOL    H39 4549   8.319   7.525   8.220 -0.7973 -2.7099  0.7977
    6MOL    H40 4550   0.048   7.774   0.185 -0.4016  0.0513  1.9184
    6MOL    H41 4551   8.320   7.596   0.343 -0.0567  0.5398  0.3607
    6MOL    H42 4552   8.305   7.703   8.106 -1.8919  0.0735  3.1452
    6MOL    H43 4553   0.017   7.861   7.965  2.1152  1.7526 -0.6541
    6MOL    H44 4554   0.313   7.997   8.250  0.6573 -0.1293 -1.1591
    6MOL    H45 4555   0.217   7.838   0.051  0.2736 -1.4931 -0.1298
    6MOL    H46 4556   7.368   7.581   0.573  0.4812 -0.1860  0.0024
    6MOL    C47 4557   0.363   8.034   7.994  0.4247 -0.3137  0.9941
    6MOL    C48 4558   0.426   8.144   8.062 -0.1870 -0.0500 -0.0254
    6MOL    C49 4559   0.563   8.162   8.058  0.3974  0.5980  0.2560
    6MOL    C50 4560   0.642   8.068   7.989  0.2941  0.4263  0.3000
    6MOL    C51 4561   0.582   7.956   7.924  0.5558 -0.1657  0.0641
    6MOL    C52 4562   0.443   7.942   7.924 -0.9763 -0.3227 -0.6435
    6MOL    S53 4563   0.820   8.091   7.977  0.2998 -0.1419 -0.1401
    6MOL    O54 4564   0.848   8.231   7.947 -0.0064  0.0412  0.4453
    6MOL    O55 4565   0.874   7.984   7.891 -0.2932  0.6753 -0.3440
    6MOL    C56 4566   0.871   8.068   8.145 -0.4826 -0.0606  0.2445
    6MOL    C57 4567   0.921   8.179   8.214 -0.2800  0.1994 -0.8610
    6MOL    C58 4568   0.949   8.171   8.353 -0.4832  0.6767 -0.3315
    6MOL    C59 4569   0.941   8.046   0.055 -0.1566 -0.0762 -0.2963
    6MOL    C60 4570   0.901   7.933   8.344 -0.2885  0.4833 -0.3406
    6MOL    C61 4571   0.862   7.945   8.207 -0.3406 -0.2889 -0.3665
    6MOL    O62 4572   0.965   8.030   0.187  0.2087 -0.0322  0.5789
    6MOL    C63 4573   0.858   8.075   0.275 -1.1518 -0.1096  0.0303
    6MOL    C64 4574   0.840   8.212   0.300 -0.4223 -0.0120 -0.8476
    6MOL    C65 4575   0.743   8.258   0.390 -0.1108  0.1345 -0.2030
    6MOL    C66 4576   0.657   8.165   0.454  0.3964 -0.3570  0.0125
    6MOL    C67 4577   0.678   8.029   0.417  0.4212  0.0889  0.2082
    6MOL    C68 4578   0.785   7.984   0.340 -0.1142  0.3326 -0.3204
    6MOL    C69 4579   0.560   8.203   0.553  0.0707 -0.4263  0.1582
    6MOL    C70 4580   0.510   8.109   0.649 -0.7391 -0.8253  0.2898
    6MOL    C71 4581   0.423   8.158   0.746 -0.4036  0.1232  0.5477
    6MOL    C72 4582   0.381   8.292   0.746 -1.1135  0.1542 -0.1462
    6MOL    C73 4583   0.427   0.010   0.654 -0.3756  0.0552  0.3458
    6MOL    C74 4584   0.510   8.337   0.550 -0.7108  0.3118 -0.3754
    6MOL    O75 4585   0.302   8.343   0.840  0.2890  0.3294  0.2815
    6MOL    H76 4586   0.374   8.218   8.122 -1.6791 -1.4776  0.4949
    6MOL    H77 4587   0.605   8.252   8.101 -1.0846  1.4610 -0.1006
    6MOL    H78 4588   0.648   7.896   7.864  0.8412  1.3308 -1.1458
    6MOL    H79 4589   0.403   7.864   7.860 -1.5122  1.0382 -2.0075
    6MOL    H80 4590   0.926   8.275   8.164  0.7355  0.5106 -0.1712
    6MOL    H81 4591   0.995   8.253   0.040  1.2653 -1.8925  2.3045
    6MOL    H82 4592   0.887   7.841   0.033  1.4923 -1.9676 -3.8130
    6MOL    H83 4593   0.824   7.866   8.144  0.8506 -0.8513 -0.3910
    6MOL    H84 4594   0.903   8.287   0.254 -0.4020 -0.4033 -1.4614
    6MOL    H85 4595   0.740   8.366   0.401 -0.9021  0.2469 -1.4009
    6MOL    H86 4596   0.618   7.952   0.463 -1.2343  1.7782  0.9580
    6MOL    H87 4597   0.794   7.878   0.325 -0.6351 -0.1023  2.2061
    6MOL    H88 4598   0.547   8.009   0.633  0.2164 -0.6000  1.0801
    6MOL    H89 4599   0.389   8.083   0.816 -1.5426 -0.9043 -1.0759
    6MOL    H90 4600   0.390   0.111   0.646  0.6824  0.4785  0.6848
    6MOL    H91 4601   0.545   0.053   0.488 -0.2581  0.4600  0.0787
    6MOL    C92 4602   0.348   8.320   0.971 -0.1403 -0.2171 -0.6191
    6MOL    C93 4603   0.277   8.234   1.052  0.7699 -1.0441 -0.6501
    6MOL    C94 4604   0.314   8.209   1.183  0.1275 -0.7668 -0.2843
    6MOL    C95 4605   0.427   8.270   1.235 -0.7745 -0.4327 -0.0045
    6MOL    C96 4606   0.509   8.350   1.149 -0.0689 -0.3606 -0.4344
    6MOL    C97 4607   0.471   0.014   1.014  0.0192 -0.1331 -0.1652
    6MOL    S98 4608   0.470   8.229   1.402  0.0180 -0.0867 -0.2516
    6MOL    O99 4609   0.620   8.230   1.401  0.0737  0.8791  0.4408
    6MOL   O100 4610   0.404   8.104   1.438 -0.4037  0.5271 -0.3611
    6MOL   C101 4611   0.400   8.359   1.509 -0.1907  0.3722 -0.5403
    6MOL   C102 4612   0.337   8.323   1.630  0.4597  0.3841  0.0084
    6MOL   C103 4613   0.273   0.060   1.711 -0.0638 -0.3290  0.0468
    6MOL   C104 4614   0.272   0.190   1.660  0.2405  0.2492  0.0315
    6MOL   C105 4615   0.340   0.226   1.537 -0.1645  0.1396  0.5534
    6MOL   C106 4616   0.405   0.126   1.466 -0.0812 -0.3777  0.2240
    6MOL   O107 4617   0.203   0.289   1.730  0.4622  0.2142  0.2922
    6MOL   C108 4618   0.065   0.292   1.727 -1.2772  0.1298 -0.5813
    6MOL   C109 4619   8.357   0.199   1.796  0.2853 -0.0030 -0.2271
    6MOL   C110 4620   8.219   0.219   1.814  0.5707  0.2370 -0.0688
    6MOL   C111 4621   8.155   0.328   1.750  0.8599  0.3484 -0.2454
    6MOL   C112 4622   8.227   0.419   1.669  0.1437  0.0126  0.2808
    6MOL   C113 4623   8.364   0.395   1.657  0.4419 -1.0836  0.4617
    6MOL   C114 4624   8.008   0.345   1.771 -0.6577 -0.1265  0.4776
    6MOL   C115 4625   7.949   0.338   1.897  0.3343  0.0562 -0.5283
    6MOL   C116 4626   7.811   0.353   1.910  0.3317  0.2207  0.4109
    6MOL   C117 4627   7.726   0.384   1.805  0.1855  0.9388 -0.0187
    6MOL   C118 4628   7.782   0.392   1.678 -0.2680 -0.5153  0.4851
    6MOL   C119 4629   7.922   0.384   1.664  0.0834 -0.2332 -0.2661
    6MOL   O120 4630   7.596   0.409   1.820  0.4512 -0.1239 -0.3847
    6MOL   H121 4631   0.196   8.176   1.009  1.2958 -2.1577 -0.1566
    6MOL   H122 4632   0.254   8.143   1.244  1.1643 -0.4121  1.1387
    6MOL   H123 4633   0.597   0.033   1.189 -0.0698 -0.0197 -0.8470
    6MOL   H124 4634   0.524   0.080   0.947  2.5983 -0.6205  1.3097
    6MOL   H125 4635   0.341   8.221   1.664 -0.6588  0.7663  1.3228
    6MOL   H126 4636   0.227   0.037   1.806 -1.3447  1.0731 -0.2071
    6MOL   H127 4637   0.341   0.329   1.504  0.5722  0.4331  1.4688
    6MOL   H128 4638   0.467   0.165   1.387  1.7125 -2.5779  0.5147
    6MOL   H129 4639   0.024   0.111   1.850 -0.4395 -0.3856 -0.3981
    6MOL   H130 4640   8.168   0.145   1.875  3.3165 -0.8457  1.0019
    6MOL   H131 4641   8.183   0.505   1.620 -0.6084 -0.8572 -0.5831
    6MOL   H132 4642   0.059   0.459   1.596 -1.2668 -0.3130 -0.4607
    6MOL   H133 4643   8.010   0.316   1.983  0.2878 -0.6000 -0.6578
    6MOL   H134 4644   7.773   0.340   2.010 -0.0810 -0.3509  0.1817
    6MOL   H135 4645   7.713   0.408   1.597 -0.1183  4.7162  1.2008
    6MOL   H136 4646   7.953   0.395   1.561  1.2999  3.2414  0.4088
    6MOL   C137 4647   7.513   0.311   1.859 -0.2192 -0.2436 -0.5566
    6MOL   C138 4648   7.444   0.319   1.979 -0.7977  0.2915 -0.9899
    6MOL   C139 4649   7.358   0.216   2.028 -0.8516  0.0519  0.2487
    6MOL   C140 4650   7.345   0.098   1.955 -0.0675  0.6774 -0.5603
    6MOL   C141 4651   7.431   0.075   1.846 -0.3611 -0.6256 -0.2430
    6MOL   C142 4652   7.504   0.184   1.795  0.5323  0.0153 -0.1535
    6MOL   S143 4653   7.230   8.332   1.999  0.3386 -0.0612  0.3542
    6MOL   O144 4654   7.278   8.204   1.948 -0.2104  0.1287  0.6099
    6MOL   O145 4655   7.098   0.012   1.961  0.0981 -0.2921  0.1925
    6MOL   C146 4656   7.215   8.327   2.179 -0.9381  0.4819  0.6180
    6MOL   C147 4657   7.328   8.304   2.262 -0.0730 -0.0971  0.6846
    6MOL   C148 4658   7.323   8.309   2.400 -0.7237  0.5876  1.0116
    6MOL   C149 4659   7.201   8.339   2.458  0.4819  0.3288 -0.1407
    6MOL   C150 4660   7.086   8.358   2.380  0.4542  0.7559 -0.8084
    6MOL   C151 4661   7.089   8.349   2.240 -0.1012  1.0607 -0.2825
    6MOL   O152 4662   7.186   8.312   2.592  0.7783 -0.4087  0.1801
    6MOL   C153 4663   7.269   0.002   2.687 -0.1282 -0.2257  0.6020
    6MOL   C154 4664   7.347   0.122   2.670  0.9193 -0.2018  0.3823
    6MOL   C155 4665   7.438   0.169   2.773  0.2238 -0.8491  0.9557
    6MOL   C156 4666   7.456   0.097   2.892 -0.9590 -0.4451  0.5377
    6MOL   C157 4667   7.372   8.352   2.907 -0.0545  0.4247 -0.4353
    6MOL   C158 4668   7.278   8.305   2.813 -0.6113 -0.6310  0.6283
    6MOL   C159 4669   7.566   0.130   2.981  0.4929 -0.3801  0.3357
    6MOL   C160 4670   7.681   0.196   2.927  0.0019  0.3436 -0.8212
    6MOL   C161 4671   7.780   0.233   3.010 -0.8729  0.1597 -0.4001
    6MOL   C162 4672   7.781   0.212   3.151  0.3435  0.4642  0.4414
    6MOL   C163 4673   7.676   0.131   3.200 -0.3012 -0.2318  0.2334
    6MOL   C164 4674   7.569   0.089   3.115  0.1617  0.3131 -0.1003
    6MOL   O165 4675   7.877   0.254   3.234 -0.1431  0.1578 -0.1799
    6MOL   H166 4676   7.443   0.407   2.042  1.0981  0.1492 -0.7465
    6MOL   H167 4677   7.314   0.240   2.124 -4.4204 -1.3605 -0.9757
    6MOL   H168 4678   7.443   8.339   1.812  0.3245 -0.0843 -1.6267
    6MOL   H169 4679   7.578   0.165   1.718 -0.0095  0.5218 -0.8002
    6MOL   H170 4680   7.410   8.264   2.203 -1.0033 -0.2671 -0.5191
    6MOL   H171 4681   7.416   8.316   2.454 -0.1323  0.0480  0.0843
    6MOL   H172 4682   6.994   0.011   2.435  1.9864 -0.2843  2.2016
    6MOL   H173 4683   7.005   0.014   2.179 -0.7714  1.3167  0.7695
    6MOL   H174 4684   7.346   0.181   2.580  3.3002  1.6773  1.5104
    6MOL   H175 4685   7.491   0.261   2.751 -2.9131  0.9384  0.6032
    6MOL   H176 4686   7.382   8.280   2.987 -0.1599 -1.2086 -1.8708
    6MOL   H177 4687   7.217   8.219   2.836 -1.8005  0.3195  1.0632
    6MOL   H178 4688   7.687   0.223   2.822  1.4463  2.7809 -0.1573
    6MOL   H179 4689   7.860   0.293   2.970 -0.3054 -0.2027  0.1812
    6MOL   H180 4690   7.674   0.095   3.302  2.0156  1.6273  0.9606
    6MOL   H181 4691   7.500   0.019   3.159 -0.3996  0.6875 -0.3836
    6MOL   C182 4692   7.879   0.373   3.291  0.8234 -0.3979 -0.7495
    6MOL   C183 4693   7.993   0.420   3.355 -0.7376 -0.2452  0.0564
    6MOL   C184 4694   7.995   0.552   3.410  0.3162 -0.4919  0.1045
    6MOL   C185 4695   7.882   0.635   3.413 -0.3446  0.7868 -0.7406
    6MOL   C186 4696   7.762   0.591   3.353  0.5221  0.7153 -0.2516
    6MOL   C187 4697   7.763   0.465   3.292 -0.1869 -0.1099  0.7107
    6MOL   S188 4698   7.884   0.801   3.484  0.3383 -0.2398  0.3873
    6MOL   O189 4699   7.948   0.792   3.614 -0.1624  0.1820  0.5774
    6MOL   O190 4700   7.747   0.853   3.484 -0.1098  0.3864  0.1475
    6MOL   C191 4701   7.997   0.887   3.376  0.4755  0.0398  0.5613
    6MOL   C192 4702   7.977   0.890   3.238 -0.4347  0.2366  0.5326
    6MOL   C193 4703   8.074   0.944   3.154 -0.7067 -0.2335 -0.6482
    6MOL   C194 4704   8.182   1.012   3.212 -0.2836  0.6191 -0.4546
    6MOL   C195 4705   8.202   1.015   3.352 -0.6305  0.0067  0.0784
    6MOL   C196 4706   8.114   0.945   3.435 -0.1242  0.1292  0.2991
    6MOL   O197 4707   8.283   1.060   3.132  0.2573  0.4718  0.0897
    6MOL   C198 4708   0.007   0.972   3.087  0.5870 -0.4843 -0.3780
    6MOL   C199 4709   8.353   0.886   2.980  0.5443  0.1300  0.5826
    6MOL   C200 4710   0.092   0.799   2.943 -0.4718  0.1492 -0.1177
    6MOL   C201 4711   0.215   0.797   3.010 -0.4674 -0.6986  0.7389
    6MOL   C202 4712   0.234   0.884   3.118  0.4225 -0.2475  0.1058
    6MOL   C203 4713   0.134   0.969   3.155 -0.1503 -0.2397 -1.0886
    6MOL   C204 4714   0.326   0.704   2.964  1.0129 -0.1905 -0.0995
    6MOL   C205 4715   0.288   0.580   2.917  0.9029  0.3866 -0.2118
    6MOL   C206 4716   0.386   0.482   2.890  0.0217  0.3774  1.0888
    6MOL   C207 4717   0.522   0.516   2.896 -0.9183 -0.3891 -0.6134
    6MOL   C208 4718   0.558   0.644   2.945  0.3326 -0.2751  0.2210
    6MOL   C209 4719   0.459   0.739   2.977  0.1030  0.3250 -0.0334
    6MOL   O210 4720   0.613   0.419   2.867  0.0245  0.9460 -0.9180
    6MOL   H211 4721   8.080   0.357   3.368 -1.6049 -1.4479  0.0038
    6MOL   H212 4722   8.089   0.574   3.460  1.0624 -0.7584 -1.1541
    6MOL   H213 4723   7.669   0.647   3.357 -1.0870 -1.9338  1.4383
    6MOL   H214 4724   7.669   0.430   3.253 -0.1174  0.9218 -0.4225
    6MOL   H215 4725   7.891   0.851   3.184 -0.6857 -0.1785  1.2339
    6MOL   H216 4726   8.057   0.933   3.048 -0.5376 -3.2333 -0.4189
    6MOL   H217 4727   8.289   1.067   3.390 -1.1088 -0.1581  1.4168
    6MOL   H218 4728   8.116   0.939   3.543 -2.4928  2.2259  0.5161
    6MOL   H219 4729   8.263   0.887   2.920  2.5976  1.5046 -2.6403
    6MOL   H220 4730   0.072   0.735   2.859  0.1424 -0.9252  0.5409
    6MOL   H221 4731   0.321   0.872   3.180 -0.7543 -1.6601  1.5381
    6MOL   H222 4732   0.161   1.036   3.235  1.0942 -0.3184 -1.4426
    6MOL   H223 4733   0.182   0.558   2.907  0.6866  0.5185  1.6293
    6MOL   H224 4734   0.347   0.388   2.855  0.6651  1.0897 -1.6128
    6MOL   H225 4735   0.660   0.675   2.956  0.2538  0.4954 -1.0476
    6MOL   H226 4736   0.487   0.839   3.006 -1.7630  0.6275  0.8069
    6MOL   C227 4737   0.648   0.395   2.737  0.8180  0.2935  0.7899
    6MOL   C228 4738   0.767   0.455   2.689  0.3473  0.1040 -0.1255
    6MOL   C229 4739   0.794   0.445   2.553 -0.1135  0.2781  0.0641
    6MOL   C230 4740   0.713   0.372   2.466  0.5099  0.0484  0.5595
    6MOL   C231 4741   0.589   0.314   2.509 -0.0050  0.1772  0.8392
    6MOL   C232 4742   0.558   0.331   2.645  0.8816 -0.3667  0.3267
    6MOL   S233 4743   0.760   0.341   2.294 -0.1910 -0.3270 -0.1052
    6MOL   O234 4744   0.776   0.469   2.230 -0.0862 -0.4699  0.2607
    6MOL   O235 4745   0.671   0.239   2.234  0.4004 -0.1756  0.1563
    6MOL   C236 4746   0.913   0.261   2.310 -0.2655 -0.5284  0.4309
    6MOL   C237 4747   1.026   0.315   2.247 -0.9191  0.0403 -0.0845
    6MOL   C238 4748   1.149   0.253   2.264  0.6343 -0.3017  0.2253
    6MOL   C239 4749   1.163   0.137   2.341 -0.6006  0.8905 -1.0477
    6MOL   C240 4750   1.049   0.081   2.409 -0.6563 -0.1170 -1.1318
    6MOL   C241 4751   0.925   0.146   2.389  0.2471 -0.5181  0.2674
    6MOL   O242 4752   1.294   0.090   2.347  0.1281 -0.1678 -0.5980
    6MOL   C243 4753   1.326   8.332   2.304  0.0204  0.1161 -0.0576
    6MOL   C244 4754   1.242   8.236   2.237  0.0263  0.4368  0.6869
    6MOL   C245 4755   1.293   8.112   2.191 -0.1475  0.6018  0.4890
    6MOL   C246 4756   1.419   8.072   2.233 -0.0889 -0.5904 -0.0345
    6MOL   C247 4757   1.502   8.160   2.307 -0.1808  0.3152 -0.6384
    6MOL   C248 4758   1.457   8.291   2.336 -0.4104  0.0834 -0.4400
    6MOL   C249 4759   1.467   7.941   2.183  0.2023 -1.0903  0.2252
    6MOL   C250 4760   1.396   7.818   2.193  0.0868  0.0967 -0.4591
    6MOL   C251 4761   1.456   7.706   2.124 -0.2688  0.0502  0.8419
    6MOL   C252 4762   1.576   7.710   2.057  0.4836 -0.0138 -0.3360
    6MOL   C253 4763   1.647   7.831   2.052 -0.2035 -0.4497  0.1162
    6MOL   C254 4764   1.591   7.943   2.119 -0.4397 -0.3108  1.4578
    6MOL   O255 4765   1.639   7.600   1.998  0.3566 -0.4222  0.0202
    6MOL   H256 4766   0.837   0.505   2.754 -0.1334  0.1261  0.3864
    6MOL   H257 4767   0.879   0.496   2.512 -0.1588  1.7609  1.7370
    6MOL   H258 4768   0.532   0.244   2.450  0.2420  1.5059 -1.0286
    6MOL   H259 4769   0.465   0.290   2.681  0.2428  0.8697  0.0976
    6MOL   H260 4770   1.020   0.410   2.195  0.3319  1.7314  2.7644
    6MOL   H261 4771   1.233   0.296   2.212  0.9864 -1.4401 -0.1627
    6MOL   H262 4772   1.054   8.363   2.477  0.2063  0.7534 -0.1039
    6MOL   H263 4773   0.841   0.107   2.443 -0.4783  0.0292 -0.4497
    6MOL   H264 4774   1.138   8.255   2.216  0.6036  0.3725 -2.5196
    6MOL   H265 4775   1.232   8.050   2.126  1.5066 -0.5064 -0.0271
    6MOL   H266 4776   1.602   8.129   2.332 -0.8174 -1.4025 -0.1836
    6MOL   H267 4777   1.527   8.362   2.379  0.6779 -1.5692  0.5717
    6MOL   H268 4778   1.303   7.805   2.247  0.7579 -2.3850  0.1312
    6MOL   H269 4779   1.391   7.620   2.129 -0.9466  0.5342  0.3351
    6MOL   H270 4780   1.739   7.848   1.998 -1.0244  3.2834 -0.2343
    6MOL   H271 4781   1.646   8.035   2.111  0.4823 -0.9601 -0.0379
    6MOL   C272 4782   1.615   7.477   2.049  0.5827 -0.2269 -0.0957
    6MOL   C273 4783   1.697   7.430   2.154  0.0077 -0.2373 -0.7177
    6MOL   C274 4784   1.666   7.305   2.212 -0.3602 -0.6165 -0.0403
    6MOL   C275 4785   1.567   7.230   2.151 -0.7561  0.3697 -0.2826
    6MOL   C276 4786   1.495   7.272   2.041 -0.1440 -0.0600 -0.0283
    6MOL   C277 4787   1.515   7.398   1.990  0.4452 -0.1607  0.3316
    6MOL   S278 4788   1.534   7.065   2.217  0.3533 -0.2240  0.2461
    6MOL   O279 4789   1.663   6.993   2.233 -0.0608  0.0200  0.4027
    6MOL   O280 4790   1.414   7.011   2.149  0.0758  0.0186 -0.1363
    6MOL   C281 4791   1.474   7.107   2.377  0.1909  0.9775  0.0809
    6MOL   C282 4792   1.469   7.001   2.470  0.3569 -0.2406 -0.0043
    6MOL   C283 4793   1.403   7.014   2.591  0.6172 -0.4199  0.8208
    6MOL   C284 4794   1.342   7.138   2.625 -0.0199 -0.3776  0.1997
    6MOL   C285 4795   1.346   7.248   2.533  0.4220 -0.1038  0.3626
    6MOL   C286 4796   1.418   7.234   2.407  0.6467 -0.7522 -0.0882
    6MOL   O287 4797   1.293   7.144   2.754  0.4747 -0.1956 -0.0722
    6MOL   C288 4798   1.237   7.268   2.795 -0.1520  0.2784 -0.2773
    6MOL   C289 4799   1.099   7.288   2.784 -0.3573 -0.5883 -0.2083
    6MOL   C290 4800   1.028   7.410   2.804  0.5524 -0.2620  0.2169
    6MOL   C291 4801   1.112   7.525   2.823 -0.8306  0.1617  0.3054
    6MOL   C292 4802   1.254   7.507   2.851  0.1115  0.2998  0.4895
    6MOL   C293 4803   1.314   7.381   2.831 -0.2019  0.0085  0.4358
    6MOL   C294 4804   1.045   7.651   2.842 -0.9738  0.4662  0.0178
    6MOL   C295 4805   0.979   7.678   2.958  0.5588 -0.4590 -0.5105
    6MOL   C296 4806   0.914   7.799   2.983  0.2412  0.0748  0.5508
    6MOL   C297 4807   0.923   7.899   2.882 -0.2511 -0.2740  0.0842
    6MOL   C298 4808   0.984   7.875   2.756  0.2403  0.4501 -0.0607
    6MOL   C299 4809   1.051   7.750   2.736  0.7078  0.1311 -0.0939
    6MOL   O300 4810   0.868   8.024   2.902 -0.1129  0.2604  0.1850
    6MOL   H301 4811   1.782   7.493   2.177 -0.5203  1.0795 -2.2998
    6MOL   H302 4812   1.734   7.275   2.290  0.8626 -0.9865 -1.2409
    6MOL   H303 4813   1.425   7.198   2.005  0.5542 -1.3167  1.1380
    6MOL   H304 4814   1.456   7.427   1.904  0.2421  0.9843  0.8470
    6MOL   H305 4815   1.507   6.903   2.446  0.9787 -0.3205  1.2649
    6MOL   H306 4816   1.401   6.932   2.661  1.2527 -0.5018  0.7444
    6MOL   H307 4817   1.309   7.347   2.558  1.3959 -0.6155  4.0643
    6MOL   H308 4818   1.416   7.317   2.338  1.0071 -0.9541 -0.3396
    6MOL   H309 4819   1.046   7.200   2.751  0.5756 -1.8064  1.4750
    6MOL   H310 4820   0.921   7.420   2.791  0.8327 -0.8418 -3.0427
    6MOL   H311 4821   1.310   7.592   2.890 -0.4477  0.5238  0.8064
    6MOL   H312 4822   1.419   7.367   2.851 -0.3555 -0.1900  1.0916
    6MOL   H313 4823   0.973   7.605   3.037 -0.8381  0.4413  0.2381
    6MOL   H314 4824   0.872   7.821   3.080 -1.0918 -3.6012  0.8959
    6MOL   H315 4825   0.987   7.954   2.683  0.2590  1.7203  1.3004
    6MOL   H316 4826   1.107   7.718   2.649 -0.5915 -0.1622 -0.8350
    6MOL   C317 4827   0.911   8.100   3.009 -0.2940 -0.2970 -0.0000
    6MOL   C318 4828   1.046   8.134   3.013 -0.3466 -0.0041  0.0807
    6MOL   C319 4829   1.109   8.182   3.127  0.2847  0.4350 -1.2052
    6MOL   C320 4830   1.031   8.215   3.235 -0.2695 -0.4027 -0.1065
    6MOL   C321 4831   0.889   8.206   3.233 -0.3756  0.1553  0.8622
    6MOL   C322 4832   0.830   8.148   3.118  0.5977  0.0328  0.1641
    6MOL   S323 4833   1.093   8.305   3.378 -0.5249 -0.1079  0.3622
    6MOL   O324 4834   0.992   0.050   3.392  0.4204 -0.0062  0.5927
    6MOL   O325 4835   1.240   8.334   3.354  0.2068 -0.0152  0.1709
    6MOL   C326 4836   1.075   8.203   3.521  0.1318 -0.3356  0.1571
    6MOL   C327 4837   1.120   8.248   3.641 -1.0208 -0.1306 -0.3174
    6MOL   C328 4838   1.118   8.162   3.755 -0.3204  0.7253  0.2318
    6MOL   C329 4839   1.067   8.029   3.738  0.6164 -0.2948  0.0051
    6MOL   C330 4840   1.010   7.989   3.611  0.2199  0.2670  0.5094
    6MOL   C331 4841   1.026   8.072   3.506  0.7983 -0.2413  0.2911
    6MOL   O332 4842   1.077   7.950   3.847  0.2134 -0.7636 -0.2312
    6MOL   C333 4843   0.960   7.930   3.910  0.2452  1.1384 -0.9034
    6MOL   C334 4844   0.910   7.805   3.930 -0.8595  0.8249  0.2943
    6MOL   C335 4845   0.788   7.787   3.993  0.6990  0.4566  0.4112
    6MOL   C336 4846   0.699   7.897   4.028 -0.6153  0.8410 -0.1130
    6MOL   C337 4847   0.752   8.028   4.003 -0.1368  0.1467  0.0247
    6MOL   C338 4848   0.879   8.043   3.949 -0.1741  0.1673  0.5938
    6MOL   C339 4849   0.561   7.875   4.068  0.6613  0.1088  0.2368
    6MOL   C340 4850   0.457   7.893   3.977 -0.0751 -0.2217 -0.1992
    6MOL   C341 4851   0.323   7.865   4.020  0.5665 -0.3810  0.3607
    6MOL   C342 4852   0.303   7.820   4.152 -0.4797 -0.0214  0.3037
    6MOL   C343 4853   0.407   7.814   4.245 -0.1468  0.1931 -0.1563
    6MOL   C344 4854   0.535   7.843   4.200 -0.1164 -0.3012 -1.3101
    6MOL   O345 4855   0.174   7.786   4.182  0.2540 -0.6257 -0.1906
    6MOL   H346 4856   1.116   8.121   2.932 -0.7758  0.4950 -0.3735
    6MOL   H347 4857   1.214   8.206   3.132  0.6615 -1.5832  2.3631
    6MOL   H348 4858   0.834   8.248   3.316 -0.8481 -0.9448  1.1137
    6MOL   H349 4859   0.723   8.131   3.119  0.2569  1.9919 -0.6272
    6MOL   H350 4860   1.167   8.345   3.639  0.4487 -0.8370 -4.3999
    6MOL   H351 4861   1.157   8.196   3.850  2.6484  1.2903 -1.1362
    6MOL   H352 4862   0.969   7.891   3.589 -0.1746  0.4111  0.6024
    6MOL   H353 4863   0.977   8.035   3.417 -1.4378 -2.6330  2.4209
    6MOL   H354 4864   0.969   7.717   3.906 -2.4374 -0.5963  1.4438
    6MOL   H355 4865   0.757   7.685   4.004  0.5227  0.4071 -0.5227
    6MOL   H356 4866   0.688   8.110   4.033  0.7028 -0.7071  4.5296
    6MOL   H357 4867   0.912   8.143   3.924 -1.6667  0.5325 -0.0141
    6MOL   H358 4868   0.470   7.920   3.873  1.4674 -3.0465 -0.7994
    6MOL   H359 4869   0.236   7.872   3.957  0.5203 -2.9421  0.0516
    6MOL   H360 4870   0.375   7.795   4.346 -0.6746  1.7018 -0.0351
    6MOL   H361 4871   0.612   7.849   4.275  0.5093  1.1228 -2.0653
    6MOL   C362 4872   0.160   7.652   4.209  0.7477  0.7067 -0.1918
    6MOL   C363 4873   0.157   7.561   4.104 -0.4912  0.2114  0.3501
    6MOL   C364 4874   0.153   7.425   4.134 -0.4366  0.3053  0.1451
    6MOL   C365 4875   0.168   7.380   4.267 -0.5532  0.0643  0.1837
    6MOL   C366 4876   0.158   7.476   4.371  0.2487 -0.0845  0.3982
    6MOL   C367 4877   0.164   7.614   4.346  0.2883  0.0870  0.1816
    6MOL   S368 4878   0.183   7.212   4.311  0.2901  0.2535  0.0973
    6MOL   O369 4879   0.070   7.143   4.250 -0.3245 -0.5973  0.5008
    6MOL   O370 4880   0.214   7.202   4.453  0.0228  0.4183 -0.3806
    6MOL   C371 4881   0.322   7.162   4.220  0.7169 -0.2654  0.9185
    6MOL   C372 4882   0.323   7.036   4.156 -0.6207  0.8861  0.6661
    6MOL   C373 4883   0.439   6.993   4.075 -0.0036  0.4926 -0.4998
    6MOL   C374 4884   0.537   7.085   4.056 -0.0570  0.4344 -0.7984
    6MOL   C375 4885   0.542   7.212   4.123  0.2915 -0.0902 -0.3080
    6MOL   C376 4886   0.436   7.249   4.207 -0.1783  0.1900  0.2123
    6MOL   O377 4887   0.637   7.054   3.967 -0.1520  0.2753  0.0516
    6MOL   C378 4888   0.741   6.972   4.006  0.1529 -0.1814 -0.2113
    6MOL   C379 4889   0.863   7.026   4.060 -0.0827 -0.2228  0.6365
    6MOL   C380 4890   0.962   6.947   4.115 -0.0994  0.6893 -0.4867
    6MOL   C381 4891   0.950   6.804   4.116  0.5190 -0.4374 -0.1213
    6MOL   C382 4892   0.830   6.750   4.070  0.2596 -0.5878  0.1349
    6MOL   C383 4893   0.725   6.830   4.017  0.1799  0.4866  0.6095
    6MOL   C384 4894   1.062   6.718   4.160 -0.2171 -1.6172 -0.5961
    6MOL   C385 4895   1.193   6.748   4.117  0.3111 -0.3931 -0.2926
    6MOL   C386 4896   1.296   6.665   4.163  0.2693 -0.3456  0.8432
    6MOL   C387 4897   1.277   6.554   4.243  0.1757  0.3182  0.2878
    6MOL   C388 4898   1.146   6.527   4.288 -0.3384 -0.4380 -0.3730
    6MOL   C389 4899   1.038   6.607   4.244 -0.4537  0.1091 -0.9945
    6MOL   O390 4900   1.387   6.473   4.286 -0.0799 -0.2387 -0.3503
    6MOL   H391 4901   0.144   7.588   4.001 -2.8449  0.6901  0.7411
    6MOL   H392 4902   0.159   7.359   4.049 -2.4094  1.7745 -1.1744
    6MOL   H393 4903   0.179   7.446   4.472 -1.6682 -0.5930  0.6470
    6MOL   H394 4904   0.176   7.690   4.422  1.5039  0.5442 -0.4544
    6MOL   H395 4905   0.232   6.979   4.167 -0.3599  0.1396 -0.8544
    6MOL   H396 4906   0.447   6.891   4.042 -0.4393 -0.9991  3.7380
    6MOL   H397 4907   0.627   7.277   4.107  1.8516 -2.2086 -0.8734
    6MOL   H398 4908   0.429   7.333   4.274  2.9411 -0.0933  0.9495
    6MOL   H399 4909   0.869   7.133   4.070 -0.1183 -0.3130  1.5931
    6MOL   H400 4910   1.054   6.987   4.155  1.6381 -1.0830 -2.6207
    6MOL   H401 4911   0.829   6.642   4.075  1.7669 -0.5615  1.5899
    6MOL   H402 4912   0.642   6.779   3.970 -0.5312  2.3614 -0.2121
    6MOL   H403 4913   1.210   6.836   4.058 -1.0216  0.1757  0.1609
    6MOL   H404 4914   1.399   6.688   4.138  0.5956  0.7798  3.1362
    6MOL   H405 4915   1.131   6.443   4.355  0.1749 -0.3736 -0.1778
    6MOL   H406 4916   0.940   6.588   4.287 -0.1197  0.7237  0.0733
    6MOL   C407 4917   1.434   6.373   4.207 -0.0784  0.0579 -0.4788
    6MOL   C408 4918   1.569   6.377   4.173 -0.1855  0.1091  0.4376
    6MOL   C409 4919   1.620   6.268   4.095  0.5094 -0.7830  0.3830
    6MOL   C410 4920   1.538   6.154   4.063  0.0336 -0.2054  0.7289
    6MOL   C411 4921   1.407   6.153   4.110 -0.0006  0.3253 -0.5035
    6MOL   C412 4922   1.354   6.259   4.182  0.3538 -0.2198  0.2262
    6MOL   S413 4923   1.597   6.011   3.968  0.1531  0.1434  0.1996
    6MOL   O414 4924   1.543   6.043   3.837  0.0492 -0.2910  0.2410
    6MOL   O415 4925   1.552   5.885   4.030  0.3101  0.5431 -0.2314
    6MOL   C416 4926   1.778   6.011   3.948 -0.0506 -0.5147  0.5167
    6MOL   C417 4927   1.858   5.931   4.029 -0.3717  0.5033 -0.0464
    6MOL   C418 4928   2.000   5.936   4.022 -0.3500  0.4255 -0.4555
    6MOL   C419 4929   2.062   6.019   3.927 -0.6724 -0.2607 -0.3038
    6MOL   C420 4930   1.975   6.103   3.846 -0.2947  0.8102  0.5527
    6MOL   C421 4931   1.834   6.102   3.857 -0.1071 -0.7005 -0.1135
    6MOL   O422 4932   2.199   6.013   3.927  0.1424 -0.3472 -0.4854
    6MOL   C423 4933   2.267   6.114   3.868 -0.5836  0.2219  0.0114
    6MOL   C424 4934   2.245   6.252   3.890 -0.5334  0.3932  0.5227
    6MOL   C425 4935   2.326   6.349   3.824  0.1811 -1.4193  0.1167
    6MOL   C426 4936   2.436   6.311   3.739 -0.2711 -0.3374  0.1223
    6MOL   C427 4937   2.451   6.171   3.720 -0.2821  1.0438 -1.0563
    6MOL   C428 4938   2.376   6.076   3.785 -0.3466 -0.0045 -0.3906
    6MOL   C429 4939   2.526   6.407   3.668  0.0213  0.6691  0.4106
    6MOL   C430 4940   2.552   6.399   3.531  0.2060  0.4874  0.1594
    6MOL   C431 4941   2.655   6.478   3.466  0.3956 -0.0901  0.2863
    6MOL   C432 4942   2.722   6.573   3.539 -0.7489 -0.1512  0.3276
    6MOL   C433 4943   2.694   6.579   3.675  0.1524 -0.0147  0.6624
    6MOL   C434 4944   2.598   6.502   3.740 -0.4753 -0.9139 -0.2406
    6MOL   O435 4945   2.821   6.660   3.486  0.2549  0.7791 -0.5170
    6MOL   H436 4946   1.625   6.461   4.212 -0.4304 -0.4235  1.9471
    6MOL   H437 4947   1.725   6.277   4.072  0.1369 -1.0947 -1.5771
    6MOL   H438 4948   1.344   6.069   4.083  0.0373  0.1185  0.0488
    6MOL   H439 4949   1.249   6.250   4.205  0.5279 -1.1345  0.7026
    6MOL   H440 4950   1.813   5.880   4.113 -0.0188 -1.2346 -0.8976
    6MOL   H441 4951   2.068   5.884   4.089  0.7075  3.4619  0.9505
    6MOL   H442 4952   2.018   6.167   3.772 -1.3101 -3.1008 -3.6723
    6MOL   H443 4953   1.772   6.157   3.786 -0.3079 -1.7444 -0.7530
    6MOL   H444 4954   2.162   6.272   3.956 -2.9808 -1.3756 -1.9277
    6MOL   H445 4955   2.306   6.450   3.855 -1.3533 -1.2151 -1.4589
    6MOL   H446 4956   2.530   6.142   3.652 -0.7897  0.4487 -1.3897
    6MOL   H447 4957   2.412   5.977   3.761 -1.5778 -0.4882 -0.2764
    6MOL   H448 4958   2.490   6.335   3.469  0.8724  0.1266 -0.1349
    6MOL   H449 4959   2.678   6.472   3.360 -1.4276 -1.7920 -0.0506
    6MOL   H450 4960   2.755   6.652   3.726  0.6115 -0.9856  1.5316
    6MOL   H451 4961   2.593   6.511   3.847 -0.1616  4.7623 -0.5190
    6MOL   C452 4962   2.932   6.606   3.423 -0.7333  0.4191  0.5085
    6MOL   C453 4963   3.034   6.557   3.509 -0.0078  0.5967  0.1344
    6MOL   C454 4964   3.145   6.489   3.453 -0.0250 -0.3708 -0.4857
    6MOL   C455 4965   3.155   6.470   3.316 -0.2793 -0.6636  0.0705
    6MOL   C456 4966   3.063   6.534   3.238 -0.3877  0.2466  0.9111
    6MOL   C457 4967   2.943   6.592   3.281  0.2695  0.3730 -0.3203
    6MOL   S458 4968   3.298   6.384   3.243 -0.2189 -0.3111 -0.3850
    6MOL   O459 4969   3.271   6.321   3.112 -1.2776 -0.1169  0.4782
    6MOL   O460 4970   3.348   6.296   3.351  0.5594 -0.4756  0.1263
    6MOL   C461 4971   3.419   6.513   3.213  0.2462 -0.0801  0.3453
    6MOL   C462 4972   3.541   6.508   3.283  0.1777 -0.0329  0.4875
    6MOL   C463 4973   3.629   6.612   3.264 -0.0748  0.6366  0.3957
    6MOL   C464 4974   3.596   6.721   3.178 -0.4046 -0.0421 -0.2614
    6MOL   C465 4975   3.472   6.723   3.116  0.2901 -0.0903  0.2753
    6MOL   C466 4976   3.382   6.618   3.130 -0.3405 -0.1034 -0.2363
    6MOL   O467 4977   3.684   6.828   3.180  0.4968 -0.2427  0.0844
    6MOL   C468 4978   3.687   6.898   3.063 -0.3503 -0.2090 -0.0152
    6MOL   C469 4979   3.743   6.837   2.951 -0.0040 -0.2553  0.6250
    6MOL   C470 4980   3.744   6.900   2.827 -0.3222  0.4264  0.1302
    6MOL   C471 4981   3.696   7.030   2.812  0.8602  0.1095  0.1907
    6MOL   C472 4982   3.628   7.088   2.925  0.3791 -0.2371  0.3534
    6MOL   C473 4983   3.636   7.026   3.051  0.3692 -0.3188  0.6132
    6MOL   C474 4984   3.731   7.103   2.697 -0.0847 -0.8572 -0.2583
    6MOL   C475 4985   3.840   7.190   2.687 -0.0795 -0.0587 -0.2676
    6MOL   C476 4986   3.851   7.275   2.574 -0.9431 -0.3207 -0.5991
    6MOL   C477 4987   3.760   7.270   2.468 -0.5330  0.3979  0.0594
    6MOL   C478 4988   3.666   7.165   2.458  0.7066  0.2515  0.3091
    6MOL   C479 4989   3.653   7.085   2.577  0.7430 -0.5750 -0.3537
    6MOL   O480 4990   3.781   7.344   2.359  0.0270 -0.2612  0.1461
    6MOL   H481 4991   3.024   6.559   3.616  0.6609 -2.1631  0.2868
    6MOL   H482 4992   3.210   6.428   3.514  0.9033  0.3921 -0.6843
    6MOL   H483 4993   3.075   6.528   3.131 -0.4661 -0.6836  0.9524
    6MOL   H484 4994   2.872   6.650   3.223  0.8513  0.7226 -0.6916
    6MOL   H485 4995   3.566   6.417   3.336  1.9226  0.4468  0.5283
    6MOL   H486 4996   3.725   6.617   3.311 -0.6091  0.6596  1.4978
    6MOL   H487 4997   3.443   6.815   3.068 -1.8636 -0.6900  0.3748
    6MOL   H488 4998   3.281   6.615   3.093 -1.7290 -2.8953  3.4992
    6MOL   H489 4999   3.793   6.742   2.952  1.6182  0.5677 -0.4802
    6MOL   H490 5000   3.784   6.842   2.745  0.5788  0.0803  0.8010
    6MOL   H491 5001   3.583   7.186   2.927  1.6852  0.3677  0.3115
    6MOL   H492 5002   3.595   7.077   3.136 -3.7150 -0.2686 -1.2813
    6MOL   H493 5003   3.922   7.190   2.758  1.4586 -0.6872 -2.0013
    6MOL   H494 5004   3.927   7.351   2.565 -2.3189  1.1430  0.0914
    6MOL   H495 5005   3.626   7.129   2.365  0.1236 -0.9282  1.0063
    6MOL   H496 5006   3.584   7.002   2.569 -1.3976  0.9479  1.6782
    6MOL   C497 5007   3.702   7.464   2.361  0.4316  0.1457 -0.0369
    6MOL   C498 5008   3.761   7.583   2.413  0.0810  0.0518  0.1203
    6MOL   C499 5009   3.683   7.699   2.428  0.0354  0.2472  0.1212
    6MOL   C500 5010   3.552   7.697   2.373 -0.2152 -0.0905  0.0207
    6MOL   C501 5011   3.501   7.585   2.307 -0.3611 -0.1270  0.6062
    6MOL   C502 5012   3.572   7.468   2.303  0.6593  0.3063 -0.6045
    6MOL   S503 5013   3.453   7.838   2.382  0.1664 -0.2944  0.3217
    6MOL   O504 5014   3.494   7.931   2.276  0.5134 -0.4707 -0.9971
    6MOL   O505 5015   3.457   7.883   2.518  0.1709  0.3037 -0.8050
    6MOL   C506 5016   3.281   7.785   2.349 -0.7357 -0.0363 -0.2731
    6MOL   C507 5017   3.214   7.852   2.249  0.0418 -0.0005 -0.1232
    6MOL   C508 5018   3.093   7.798   2.209  0.4114 -1.1722  0.3380
    6MOL   C509 5019   3.033   7.692   2.274  0.3275 -0.3446 -0.6165
    6MOL   C510 5020   3.094   7.631   2.384 -0.2694 -0.5664  0.1782
    6MOL   C511 5021   3.223   7.674   2.414  0.1243  0.4160 -0.2123
    6MOL   O512 5022   2.905   7.660   2.245  0.2096  0.5175  0.1562
    6MOL   C513 5023   2.884   7.561   2.156 -0.1611  0.1201 -0.2449
    6MOL   C514 5024   2.846   7.589   2.024 -0.2687  0.7054  0.7153
    6MOL   C515 5025   2.823   7.481   1.933 -0.1639 -0.7676  0.2156
    6MOL   C516 5026   2.841   7.347   1.977 -0.2588 -0.4335  0.4029
    6MOL   C517 5027   2.874   7.321   2.114 -0.3171  0.3836 -0.7275
    6MOL   C518 5028   2.897   7.427   2.195 -0.2457  0.3466  0.7718
    6MOL   C519 5029   2.812   7.235   1.894 -0.3043  0.6327  0.1755
    6MOL   C520 5030   2.895   7.120   1.890  0.1380  0.5837 -0.2564
    6MOL   C521 5031   2.865   7.016   1.796  0.3673  0.0404  0.2595
    6MOL   C522 5032   2.748   7.015   1.718 -0.5693 -0.0103 -0.5441
    6MOL   C523 5033   2.669   7.131   1.719 -0.8806 -0.6072 -0.0354
    6MOL   C524 5034   2.710   7.242   1.801 -0.5718 -0.0769  0.1272
    6MOL   O525 5035   2.716   6.907   1.640  0.1757  0.2976  0.1229
    6MOL   H526 5036   3.858   7.582   2.461 -0.2656  2.9717  0.9674
    6MOL   H527 5037   3.720   7.780   2.490  2.7660  0.7361 -2.0390
    6MOL   H528 5038   3.408   7.584   2.252 -0.5808  1.3647  0.9168
    6MOL   H529 5039   3.530   7.379   2.259 -1.9848 -0.3075  2.9213
    6MOL   H530 5040   3.265   7.922   2.186  0.5384 -0.5642 -0.3554
    6MOL   H531 5041   3.031   7.831   2.128  1.5073  0.2050  0.0468
    6MOL   H532 5042   3.035   7.555   2.434 -0.5022 -0.0822  0.6502
    6MOL   H533 5043   3.285   7.635   2.493  0.7277 -0.0838 -0.9337
    6MOL   H534 5044   2.837   7.691   1.992  2.8049  0.9649  0.5383
    6MOL   H535 5045   2.782   7.504   1.836  0.2410  1.0932  0.4606
    6MOL   H536 5046   2.896   7.219   2.142 -0.2063 -0.3697 -3.3409
    6MOL   H537 5047   2.923   7.397   2.296 -1.4445 -1.5891  0.5232
    6MOL   H538 5048   2.989   7.126   1.943  0.5487  0.3418 -0.9383
    6MOL   H539 5049   2.921   6.923   1.792 -1.0037 -1.1184  4.5197
    6MOL   H540 5050   2.585   7.149   1.654  0.0982 -1.1158 -1.4695
    6MOL   H541 5051   2.642   7.325   1.812 -1.0180 -0.5385  0.8555
    6MOL   C542 5052   2.589   6.893   1.613 -0.3464 -0.0389  0.2800
    6MOL   C543 5053   2.539   6.958   1.502  0.3494  0.3208 -0.3668
    6MOL   C544 5054   2.399   6.942   1.475 -1.1537 -0.0443  0.2231
    6MOL   C545 5055   2.321   6.856   1.557  0.0784 -0.1592 -0.4061
    6MOL   C546 5056   2.377   6.789   1.664 -0.2533  0.5053 -0.1394
    6MOL   C547 5057   2.508   6.815   1.697 -0.2179 -0.1319 -0.2976
    6MOL   S548 5058   2.146   6.822   1.533 -0.3330 -0.1794  0.0278
    6MOL   O549 5059   2.095   6.734   1.642  0.8285  0.3135  0.6005
    6MOL   O550 5060   2.129   6.791   1.388  0.3433  0.5540 -0.7682
    6MOL   C551 5061   2.072   6.981   1.547 -0.2240 -0.3819  0.4202
    6MOL   C552 5062   2.118   7.060   1.651  0.1685  0.0774 -0.2935
    6MOL   C553 5063   2.047   7.179   1.682  0.4181 -0.1560  0.1375
    6MOL   C554 5064   1.945   7.228   1.596 -0.3435  0.4952 -0.1278
    6MOL   C555 5065   1.894   7.142   1.492 -0.3964  0.2216  0.4991
    6MOL   C556 5066   1.957   7.019   1.466 -0.0288  0.0416 -0.2005
    6MOL   O557 5067   1.862   7.334   1.625  0.3397  0.1716  0.6451
    6MOL   C558 5068   1.920   7.448   1.667  0.5018  0.6893 -0.0228
    6MOL   C559 5069   1.989   7.531   1.574  1.1353  0.0889  0.8726
    6MOL   C560 5070   2.054   7.639   1.632 -0.5066 -0.3323 -0.2089
    6MOL   C561 5071   2.059   7.667   1.771 -0.3473  0.2914 -0.2642
    6MOL   C562 5072   1.994   7.586   1.856 -0.7299  0.2469 -0.3629
    6MOL   C563 5073   1.916   7.475   1.805 -0.4063 -0.6898 -0.1502
    6MOL   C564 5074   2.148   7.771   1.823 -0.5840 -0.4419  0.3696
    6MOL   C565 5075   2.110   7.910   1.839 -0.1773  0.5205  0.4490
    6MOL   C566 5076   2.199   8.014   1.875  0.1800  0.7520 -0.3686
    6MOL   C567 5077   2.331   7.980   1.911  0.1232  0.3915  0.2315
    6MOL   C568 5078   2.372   7.847   1.911 -0.4562  0.0880  0.2473
    6MOL   C569 5079   2.284   7.742   1.865  0.3450  0.0332  0.0535
    6MOL   O570 5080   2.416   8.077   1.957  0.6643  0.9220 -0.0230
    6MOL   H571 5081   2.605   7.017   1.441  1.6442  0.5300  1.1859
    6MOL   H572 5082   2.355   6.992   1.390  0.0810  0.2465 -0.2571
    6MOL   H573 5083   2.313   6.721   1.718  0.4264 -0.2159 -0.2401
    6MOL   H574 5084   2.551   6.788   1.793  0.3555  1.0079 -0.2291
    6MOL   H575 5085   2.200   7.026   1.712  0.6785  1.9020  0.0528
    6MOL   H576 5086   2.062   7.228   1.776 -0.0176 -0.5910  0.4353
    6MOL   H577 5087   1.800   7.168   1.446 -0.8130  1.1241  1.8158
    6MOL   H578 5088   1.917   6.955   1.389  0.7370 -1.8058  0.9058
    6MOL   H579 5089   1.990   7.525   1.466  0.8256 -4.9665  1.0290
    6MOL   H580 5090   2.106   7.709   1.570  0.0047  0.4930  1.1192
    6MOL   H581 5091   2.003   7.612   1.960 -0.8601  0.4346 -0.3995
    6MOL   H582 5092   1.856   7.406   1.863  0.2537 -2.1280 -1.1378
    6MOL   H583 5093   2.007   7.933   1.818 -0.4093 -1.0639 -0.1789
    6MOL   H584 5094   2.161   8.114   1.885 -0.2257  0.7020 -1.3609
    6MOL   H585 5095   2.466   7.813   1.952 -0.1567 -0.7058 -1.0693
    6MOL   H586 5096   2.317   7.640   1.858 -1.9839 -1.0514  3.8254
    6MOL   C587 5097   2.413   8.088   2.093 -0.7736 -0.1519  0.0913
    6MOL   C588 5098   2.335   8.193   2.149  0.3071 -0.3304  0.1641
    6MOL   C589 5099   2.334   8.208   2.293 -0.0887 -0.1816  0.1660
    6MOL   C590 5100   2.414   8.124   2.370 -0.0423  0.3264 -0.1073
    6MOL   C591 5101   2.484   8.023   2.310  0.7581 -0.7549 -0.5983
    6MOL   C592 5102   2.488   8.008   2.172  0.2460 -0.2280 -0.5420
    6MOL   S593 5103   2.405   8.135   2.554 -0.2038  0.1498 -0.1870
    6MOL   O594 5104   2.355   8.269   2.582  0.4383 -0.3279 -0.4612
    6MOL   O595 5105   2.538   8.100   2.608  0.2739  0.8280 -0.0895
    6MOL   C596 5106   2.275   8.011   2.602  0.1286  0.1922  0.5133
    6MOL   C597 5107   2.147   8.059   2.635 -0.2036  0.6724  0.3446
    6MOL   C598 5108   2.054   7.966   2.681 -0.1137 -0.5721 -0.9188
    6MOL   C599 5109   2.092   7.842   2.728 -0.4132 -0.8364  0.1388
    6MOL   C600 5110   2.231   7.802   2.713 -0.7093 -0.6142  0.8787
    6MOL   C601 5111   2.320   7.883   2.650 -0.4550 -0.7054 -0.1884
    6MOL   O602 5112   2.004   7.765   2.801  0.8729 -0.1951  0.1085
    6MOL   C603 5113   2.040   7.729   2.928  0.2357 -0.6623  0.5035
    6MOL   C604 5114   2.045   7.592   2.956 -0.4773  0.1477  0.4469
    6MOL   C605 5115   2.082   7.560   3.091  0.0164  0.3750  0.8833
    6MOL   C606 5116   2.120   7.653   3.179  0.7065  0.3234 -0.6193
    6MOL   C607 5117   2.119   7.791   3.147  0.0135  0.8805 -0.9758
    6MOL   C608 5118   2.075   7.825   3.020 -0.3836 -0.3837 -0.2868
    6MOL   C609 5119   2.172   7.617   3.317  0.1508  0.3765  0.1496
    6MOL   C610 5120   2.095   7.542   3.407 -0.6384 -0.1473  0.2696
    6MOL   C611 5121   2.148   7.498   3.528  0.1789 -0.8270 -0.4474
    6MOL   C612 5122   2.274   7.535   3.575  0.7678 -0.3025  0.1655
    6MOL   C613 5123   2.352   7.616   3.489  0.2087 -0.1991 -0.2512
    6MOL   C614 5124   2.300   7.659   3.360  0.0956  0.2520  0.1933
    6MOL   O615 5125   2.314   7.506   3.702  0.3495 -0.0287 -0.3538
    6MOL   H616 5126   2.271   8.255   2.088  0.6121 -0.6435 -0.4849
    6MOL   H617 5127   2.280   8.289   2.339  1.0928  0.0962  1.0932
    6MOL   H618 5128   2.540   7.950   2.367 -0.6447 -1.9258 -0.6951
    6MOL   H619 5129   2.552   7.927   2.140 -0.6972 -1.7037  1.2136
    6MOL   H620 5130   2.115   8.161   2.619 -1.1617  0.4691  0.9459
    6MOL   H621 5131   1.956   7.995   2.714 -0.5240  0.4502 -2.8983
    6MOL   H622 5132   2.268   7.711   2.758 -0.8225 -1.0551  0.0946
    6MOL   H623 5133   2.423   7.853   2.636 -0.3846  0.5957 -2.6286
    6MOL   H624 5134   2.015   7.520   2.881  0.3993  2.7592 -2.4929
    6MOL   H625 5135   2.089   7.454   3.115 -0.0798  0.4555  1.2767
    6MOL   H626 5136   2.148   7.866   3.219  0.3565 -1.3000  1.2385
    6MOL   H627 5137   2.067   7.929   2.993  0.3655 -1.0057 -3.0028
    6MOL   H628 5138   1.988   7.528   3.392 -0.7657  1.2420 -0.1553
    6MOL   H629 5139   2.082   7.430   3.580  0.8649 -0.2629  1.1615
    6MOL   H630 5140   2.450   7.649   3.520 -1.5938  2.5623  2.7843
    6MOL   H631 5141   2.374   7.713   3.302 -0.7725  0.9692 -0.2753
    6MOL   C632 5142   2.278   7.593   3.802 -0.1168  0.2787  0.1375
    6MOL   C633 5143   2.142   7.595   3.840 -0.2668 -0.0335  0.2272
    6MOL   C634 5144   2.097   7.683   3.937  0.1937 -0.3873 -0.4358
    6MOL   C635 5145   2.189   7.770   4.001 -0.2644 -0.2708  0.4584
    6MOL   C636 5146   2.327   7.776   3.966  0.3304 -0.1520 -0.5749
    6MOL   C637 5147   2.369   7.686   3.863 -0.2143 -1.1192 -0.0258
    6MOL   S638 5148   2.121   7.872   4.142  0.4552 -0.2124  0.3607
    6MOL   O639 5149   2.085   7.773   4.241 -0.9255 -0.2517  0.1272
    6MOL   O640 5150   2.019   7.971   4.088 -0.1699 -0.1799 -0.0417
    6MOL   C641 5151   2.262   7.962   4.212  0.1642 -0.0938  0.5743
    6MOL   C642 5152   2.277   8.101   4.201 -0.3428 -0.5304 -0.5831
    6MOL   C643 5153   2.394   8.159   4.263  0.5369  0.1395 -0.2410
    6MOL   C644 5154   2.489   8.083   4.326 -0.2520 -0.4505  0.5634
    6MOL   C645 5155   2.471   7.944   4.342 -0.6206  0.6141  0.3043
    6MOL   C646 5156   2.358   7.883   4.283 -0.3691 -0.0004  0.4739
    6MOL   O647 5157   2.600   8.151   4.362 -0.5657  0.1232  0.0368
    6MOL   C648 5158   2.624   8.165   4.497  0.3597 -0.0743 -0.4235
    6MOL   C649 5159   2.755   8.157   4.551  1.3110 -0.1593  0.3742
    6MOL   C650 5160   2.776   8.189   4.685  0.6795  0.0728 -0.1633
    6MOL   C651 5161   2.677   8.248   4.768  0.2590 -0.3326 -0.4996
    6MOL   C652 5162   2.549   8.257   4.714  0.5754 -0.8750  0.2183
    6MOL   C653 5163   2.522   8.220   4.577 -0.4437  0.1740 -0.2820
    6MOL   C654 5164   2.723   8.305   4.896  0.3049  0.3712  0.0794
    6MOL   C655 5165   2.818   8.234   4.973 -0.4031  0.2046  0.9329
    6MOL   C656 5166   2.855   8.281   5.101 -0.8986 -0.3588  0.0904
    6MOL   C657 5167   2.819   0.043   5.146 -0.0916 -0.1462 -0.2449
    6MOL   C658 5168   2.730   0.117   5.064  0.0426  0.4424 -0.4240
    6MOL   C659 5169   2.679   0.065   4.940 -0.2237  0.2242 -0.4627
    6MOL   O660 5170   2.874   0.090   5.263  0.0075 -0.3886 -0.4574
    6MOL   H661 5171   2.075   7.526   3.791  0.3385 -0.7146  0.3387
    6MOL   H662 5172   1.994   7.672   3.968  0.7119 -0.4488  1.2934
    6MOL   H663 5173   2.401   7.845   4.004  0.3064 -0.6526  0.3720
    6MOL   H664 5174   2.470   7.706   3.830 -0.2459  0.3070  0.6819
    6MOL   H665 5175   2.197   8.161   4.160 -2.0012  0.0798  3.3165
    6MOL   H666 5176   2.424   8.261   4.243  1.0476  0.1572  0.6330
    6MOL   H667 5177   2.553   7.886   4.381  0.1513  2.0921  0.9365
    6MOL   H668 5178   2.363   7.776   4.269 -1.3634 -0.0487  0.4424
    6MOL   H669 5179   2.834   8.115   4.492  0.4274 -0.3797 -0.6610
    6MOL   H670 5180   2.870   8.169   4.734  0.3107  0.4380  0.7257
    6MOL   H671 5181   2.472   8.303   4.774  0.1742  0.2636 -1.1620
    6MOL   H672 5182   2.425   8.242   4.536  0.3658  0.9899 -1.8105
    6MOL   H673 5183   2.852   8.138   4.937  0.0126  0.9434 -0.6467
    6MOL   H674 5184   2.923   8.221   5.159  0.3067  0.3100 -0.6128
    6MOL   H675 5185   2.696   0.214   5.098  0.7145  0.0060  1.5212
    6MOL   H676 5186   2.606   0.123   4.883  1.3295  1.6848 -1.0042
    6MOL   C677 5187   2.851   0.030   5.388 -0.2658 -0.3811  0.1196
    6MOL   C678 5188   2.909   8.272   5.429  0.0615  0.5453  0.2526
    6MOL   C679 5189   2.915   8.251   5.567  0.3128 -0.5001  1.2870
    6MOL   C680 5190   2.854   8.331   5.659  0.0235 -0.2727 -0.5745
    6MOL   C681 5191   2.785   0.083   5.617 -0.3215  0.0529  0.3013
    6MOL   C682 5192   2.783   0.110   5.481  0.8986  0.6180 -0.6876
    6MOL   S683 5193   2.867   8.285   5.835 -0.1529  0.2465 -0.1826
    6MOL   O684 5194   2.926   8.150   5.842 -0.2513  0.1003 -0.0552
    6MOL   O685 5195   2.733   8.311   5.892  0.6703 -0.3516  0.2096
    6MOL   C686 5196   2.985   0.036   5.911 -0.3803  0.3926 -0.4824
    6MOL   C687 5197   2.942   0.125   6.006  0.2837 -0.4542  0.3717
    6MOL   C688 5198   3.030   0.226   6.048 -0.1463  0.2932  0.2699
    6MOL   C689 5199   3.171   0.221   6.008 -0.5375 -0.1148 -0.5507
    6MOL   C690 5200   3.210   0.132   5.913 -0.3265  0.1362 -0.2653
    6MOL   C691 5201   3.118   0.033   5.863 -0.7769  0.3138 -0.6033
    6MOL   O692 5202   3.252   0.310   6.065  0.2092 -0.0557  0.9531
    6MOL   C693 5203   3.283   0.309   6.202  0.2223  0.2126  0.5447
    6MOL   C694 5204   3.225   0.232   6.302 -0.3586 -0.0551 -0.0605
    6MOL   C695 5205   3.277   0.229   6.432 -0.3014  0.1016  0.3711
    6MOL   C696 5206   3.393   0.301   6.465  0.0969 -0.1883 -0.0407
    6MOL   C697 5207   3.457   0.378   6.364 -0.2610  0.1896  0.2210
    6MOL   C698 5208   3.403   0.378   6.233  0.0411  0.1146 -1.0617
    6MOL   C699 5209   3.441   0.296   6.607  0.7912  0.6192 -0.0601
    6MOL   C700 5210   3.579   0.284   6.623 -0.4528  0.1467  0.6346
    6MOL   C701 5211   3.630   0.277   6.754  0.1957  0.2616 -0.0273
    6MOL   C702 5212   3.536   0.275   6.864  0.3705  0.0587  0.2954
    6MOL   C703 5213   3.400   0.294   6.839 -0.4341 -0.7378 -0.8830
    6MOL   C704 5214   3.349   0.300   6.713 -0.3864 -0.2516 -0.2989
    6MOL   O705 5215   3.584   0.264   6.993  0.0790  0.2443  0.1670
    6MOL   H706 5216   2.972   8.207   5.370 -0.3436 -0.7479  1.2228
    6MOL   H707 5217   2.960   8.159   5.602 -0.6213 -0.6129  2.2078
    6MOL   H708 5218   2.729   0.141   5.689 -0.7493 -0.2433  0.2064
    6MOL   H709 5219   2.735   0.190   5.427 -1.5673 -1.4424 -1.6486
    6MOL   H710 5220   2.842   0.123   6.046  0.3624  0.8364  0.6404
    6MOL   H711 5221   2.994   0.289   6.128 -0.6978  1.1666 -0.6491
    6MOL   H712 5222   3.312   0.140   5.879 -0.3683 -2.2030 -1.0893
    6MOL   H713 5223   3.146   8.312   5.806  0.6920  0.9893 -0.9362
    6MOL   H714 5224   3.127   0.190   6.285 -0.3737  0.0388 -0.2000
    6MOL   H715 5225   3.217   0.168   6.498  0.6350  0.0183  1.1496
    6MOL   H716 5226   3.549   0.429   6.390  1.9140 -2.8606 -1.2592
    6MOL   H717 5227   3.455   0.429   6.154  2.7243  0.9524  1.1459
    6MOL   H718 5228   3.639   0.275   6.534 -2.0515 -2.3696 -0.2517
    6MOL   H719 5229   3.734   0.252   6.769 -0.3465 -0.8457  2.1088
    6MOL   H720 5230   3.337   0.298   6.927 -0.6052  0.2243 -1.0417
    6MOL   H721 5231   3.243   0.314   6.694 -0.5916 -0.4852  0.6363
    6MOL   C722 5232   3.564   0.139   7.054  0.6880  0.0915  0.1741
    6MOL   C723 5233   3.508   0.127   7.183  0.3709  0.8381  0.3978
    6MOL   C724 5234   3.496   0.002   7.246 -0.4860 -0.2465  0.2166
    6MOL   C725 5235   3.538   8.249   7.182  0.0753 -0.0587 -0.5623
    6MOL   C726 5236   3.589   8.257   7.051 -0.3038 -0.7633  1.0260
    6MOL   C727 5237   3.602   0.016   6.994 -0.0061 -0.4136  0.6417
    6MOL   S728 5238   3.515   8.086   7.254  0.1892  0.1040  0.3448
    6MOL   O729 5239   3.452   8.106   7.382 -0.2296 -0.9160 -0.1830
    6MOL   O730 5240   3.648   8.018   7.245  0.4623 -0.2430  0.0639
    6MOL   C731 5241   3.400   8.002   7.156  0.7364 -0.6091 -0.2048
    6MOL   C732 5242   3.312   8.065   7.062  0.5410 -0.1454 -0.0350
    6MOL   C733 5243   3.237   7.992   6.970  0.1275 -0.0446  0.5125
    6MOL   C734 5244   3.239   7.852   6.968 -0.5406 -0.1763 -0.8175
    6MOL   C735 5245   3.324   7.788   7.060 -0.0420  0.0878 -0.1031
    6MOL   C736 5246   3.398   7.861   7.155 -0.3838 -0.2827 -0.1602
    6MOL   O737 5247   3.166   7.776   6.879  0.3634  0.2096  0.2489
    6MOL   C738 5248   3.034   7.811   6.854 -0.5891  0.5452  0.9084
    6MOL   C739 5249   2.996   7.834   6.718  0.4226 -0.3456  0.3506
    6MOL   C740 5250   2.864   7.878   6.688 -0.3495  0.0198 -0.2685
    6MOL   C741 5251   2.768   7.887   6.788 -0.0442  0.5648 -0.3773
    6MOL   C742 5252   2.800   7.841   6.919 -0.0384  0.1095  0.5724
    6MOL   C743 5253   2.933   7.799   6.952 -0.4926  0.5616 -0.0787
    6MOL   C744 5254   2.629   7.931   6.745  0.1500  0.1446  0.3748
    6MOL   C745 5255   2.569   7.888   6.627 -0.6405 -0.4626 -0.6292
    6MOL   C746 5256   2.448   7.931   6.583 -0.5217 -0.0598  0.1907
    6MOL   C747 5257   2.372   8.013   6.668  0.5401 -0.1249 -0.5463
    6MOL   C748 5258   2.415   8.044   6.797  1.2119 -0.1488 -0.9366
    6MOL   C749 5259   2.551   8.017   6.826  0.3383 -0.4760  0.3821
    6MOL   O750 5260   2.258   8.070   6.604 -0.1923  0.3649 -0.2096
    6MOL   H751 5261   3.480   0.211   7.244  0.1106  2.0943 -1.3934
    6MOL   H752 5262   3.446   0.003   7.342  0.1158  0.9638  0.5331
    6MOL   H753 5263   3.628   8.168   7.003  1.4765  0.6349 -0.2164
    6MOL   H754 5264   3.647   0.026   6.896  0.8333  0.0817  1.0759
    6MOL   H755 5265   3.311   8.171   7.042  0.4651 -0.3913 -1.3251
    6MOL   H756 5266   3.170   8.043   6.902  0.7833  2.7812  1.8934
    6MOL   H757 5267   3.334   7.681   7.059  2.0061  0.2562 -0.0023
    6MOL   H758 5268   3.463   7.817   7.230 -0.4023 -0.4005 -0.2135
    6MOL   H759 5269   3.059   7.828   6.630 -0.3782  0.9831 -0.3289
    6MOL   H760 5270   2.841   7.923   6.592  0.6469 -3.4644 -2.2146
    6MOL   H761 5271   2.732   7.844   7.003 -0.7710  1.0264 -0.0379
    6MOL   H762 5272   2.952   7.777   7.056  0.3974 -2.4867 -0.8323
    6MOL   H763 5273   2.631   7.826   6.564  0.2155  0.7963 -1.0586
    6MOL   H764 5274   2.411   7.906   6.484 -1.2749 -0.3963  0.5500
    6MOL   H765 5275   2.351   8.101   6.864  0.5239 -0.1579 -1.5806
    6MOL   H766 5276   2.591   8.049   6.921  1.6299 -0.0825 -0.2647
    6MOL   C767 5277   2.141   8.007   6.644 -0.0441 -0.0492  0.6256
    6MOL   C768 5278   2.083   7.906   6.564  0.0707  0.1788  0.7894
    6MOL   C769 5279   1.964   7.845   6.603  0.0947  0.4872  0.3169
    6MOL   C770 5280   1.901   7.881   6.717  0.2589  0.1165  0.1446
    6MOL   C771 5281   1.948   7.990   6.791 -1.2579 -0.1828 -0.2620
    6MOL   C772 5282   2.068   8.055   6.755 -0.2639 -0.4455  0.2279
    6MOL   S773 5283   1.751   7.802   6.758  0.0519  0.4990 -0.0191
    6MOL   O774 5284   1.670   7.788   6.639 -0.5935  0.0795  0.5992
    6MOL   O775 5285   1.705   7.873   6.882 -0.1332  0.0826  1.0349
    6MOL   C776 5286   1.782   7.633   6.811  0.0041 -0.8925  0.7776
    6MOL   C777 5287   1.864   7.607   6.917 -0.2587 -0.0434  0.2802
    6MOL   C778 5288   1.872   7.477   6.966 -0.4898  0.0709 -0.5619
    6MOL   C779 5289   1.804   7.371   6.909  0.8426  0.5119  0.0642
    6MOL   C780 5290   1.712   7.398   6.811 -0.6221 -0.9049  0.5603
    6MOL   C781 5291   1.697   7.532   6.760  0.3107  0.1922 -0.0011
    6MOL   O782 5292   1.830   7.244   6.951  1.2717 -0.4246  0.0745
    6MOL   C783 5293   1.789   7.195   7.070 -0.0522  0.0524 -0.1121
    6MOL   C784 5294   1.734   7.270   7.174  0.4457 -0.7792  0.2783
    6MOL   C785 5295   1.715   7.214   7.302 -0.7475 -0.0910  0.3418
    6MOL   C786 5296   1.742   7.078   7.329 -0.2731 -0.3197 -0.0822
    6MOL   C787 5297   1.797   7.003   7.223 -0.5330 -0.0694 -0.5106
    6MOL   C788 5298   1.812   7.061   7.096  0.9020 -0.3274 -0.1398
    6MOL   C789 5299   1.720   7.014   7.460 -0.3006 -0.1531  0.4697
    6MOL   C790 5300   1.705   7.089   7.582 -0.2142  0.0101 -0.7050
    6MOL   C791 5301   1.680   7.031   7.704  0.3357 -0.1225 -0.1780
    6MOL   C792 5302   1.686   6.892   7.715  0.3268  0.1652  0.6243
    6MOL   C793 5303   1.708   6.811   7.600 -0.1643 -0.2181 -0.6677
    6MOL   C794 5304   1.723   6.873   7.472  0.3006  0.1961 -0.4953
    6MOL   O795 5305   1.678   6.828   7.833  0.5618 -0.5046 -0.0475
    6MOL   H796 5306   2.149   7.881   6.482 -0.2190 -1.5980  1.0813
    6MOL   H797 5307   1.917   7.772   6.539  0.1236  0.5871  0.1821
    6MOL   H798 5308   1.894   8.026   6.878 -1.2739  0.9875 -0.7618
    6MOL   H799 5309   2.091   8.134   6.825 -2.0517  0.6956 -0.4468
    6MOL   H800 5310   1.912   7.694   6.960  1.8675 -0.6296 -0.8542
    6MOL   H801 5311   1.936   7.463   7.052 -0.7767 -0.0065 -0.3636
    6MOL   H802 5312   1.655   7.322   6.760  0.3743 -0.2297 -1.6763
    6MOL   H803 5313   1.615   7.551   6.692 -1.2151 -2.1395  1.0940
    6MOL   H804 5314   1.721   7.376   7.160  0.8665 -1.1227 -2.9289
    6MOL   H805 5315   1.683   7.273   7.386 -4.1334  1.4760 -1.9086
    6MOL   H806 5316   1.801   6.895   7.218  0.6184 -0.0461 -0.0805
    6MOL   H807 5317   1.848   6.995   7.018  1.6903 -1.7124  1.3536
    6MOL   H808 5318   1.718   7.196   7.575 -2.4651  0.3792  0.3951
    6MOL   H809 5319   1.665   7.098   7.788  1.4045 -0.4215  0.2474
    6MOL   H810 5320   1.712   6.704   7.599 -0.0372 -0.2629  1.5340
    6MOL   H811 5321   1.735   6.820   7.379  0.6989  2.0991 -1.5513
    6MOL   C812 5322   1.606   6.707   7.846 -0.1145  0.1241  0.7821
    6MOL   C813 5323   1.467   6.709   7.865 -1.0008 -0.1575  0.3955
    6MOL   C814 5324   1.385   6.596   7.869  0.2380 -0.0513  0.3525
    6MOL   C815 5325   1.451   6.469   7.869 -0.3282  0.2611 -0.7775
    6MOL   C816 5326   1.591   6.462   7.846  0.5496 -0.1986  0.2115
    6MOL   C817 5327   1.667   6.578   7.849 -0.0548 -0.6198  0.4614
    6MOL   S818 5328   1.355   6.331   7.908  0.1850  0.3691 -0.3706
    6MOL   O819 5329   1.422   6.208   7.861 -0.3631 -0.4590  0.1096
    6MOL   O820 5330   1.210   6.352   7.879 -0.4716  0.2795  0.6325
    6MOL   C821 5331   1.359   6.328   8.090  0.3715 -0.2204  0.2862
    6MOL   C822 5332   1.370   6.206   8.150  0.6363  0.7963  0.8356
    6MOL   C823 5333   1.355   6.189   8.287 -0.2914  0.2384 -0.4438
    6MOL   C824 5334   1.340   6.304   0.001 -0.5966 -0.0726  0.1667
    6MOL   C825 5335   1.342   6.430   8.308  0.9680  0.3238  0.3082
    6MOL   C826 5336   1.345   6.443   8.170 -0.9415 -0.1675  0.3494
    6MOL   O827 5337   1.310   6.293   0.138  0.5504  0.3467 -0.0552
    6MOL   C828 5338   1.411   6.300   0.231  0.7586  0.1927 -0.0639
    6MOL   C829 5339   1.443   6.419   0.293  0.0926 -0.0986 -0.6840
    6MOL   C830 5340   1.536   6.420   0.393  0.0224  0.0219  0.5311
    6MOL   C831 5341   1.597   6.298   0.434 -0.3448  0.0688  0.3743
    6MOL   C832 5342   1.567   6.175   0.375  1.0231 -0.3813  0.3319
    6MOL   C833 5343   1.480   6.176   0.267  0.3337  0.0564 -0.7595
    6MOL   C834 5344   1.713   6.308   0.524  0.5557  0.0810  0.2022
    6MOL   C835 5345   1.805   6.415   0.496  0.7304 -0.8447  0.1612
    6MOL   C836 5346   1.924   6.437   0.570  0.6523 -0.0519 -0.4458
    6MOL   C837 5347   1.945   6.343   0.675  0.6847 -0.2644 -0.3380
    6MOL   C838 5348   1.851   6.240   0.706 -0.2083  0.2934  0.0652
    6MOL   C839 5349   1.736   6.220   0.628 -0.3370 -0.0870 -0.0378
    6MOL   O840 5350   2.064   6.355   0.744 -0.2507  0.1984  0.6230
    6MOL   H841 5351   1.413   6.802   7.854 -1.5998 -0.2927  2.0781
    6MOL   H842 5352   1.279   6.604   7.892  0.4607  1.2679  0.9361
    6MOL   H843 5353   1.640   6.366   7.853  2.1065  0.6627  1.5542
    6MOL   H844 5354   1.775   6.578   7.837  0.1177 -0.7224  1.8947
    6MOL   H845 5355   1.381   6.122   8.084 -1.8471  1.7920 -0.9327
    6MOL   H846 5356   1.346   6.085   8.314  0.2402  0.4366  0.5395
    6MOL   H847 5357   1.331   6.517   0.004 -2.5069 -0.5098  0.9824
    6MOL   H848 5358   1.337   6.544   8.133  1.6745 -0.6651 -1.7117
    6MOL   H849 5359   1.386   6.509   0.272 -1.1343 -0.4499  1.0264
    6MOL   H850 5360   1.569   6.515   0.433  1.2578 -0.6733  1.1997
    6MOL   H851 5361   1.622   6.085   0.398  1.6027  0.1128  0.8913
    6MOL   H852 5362   1.470   6.080   0.218  0.1280 -0.6751  0.6969
    6MOL   H853 5363   1.779   6.479   0.413  2.3123 -1.9018 -1.1784
    6MOL   H854 5364   1.987   6.522   0.548  2.5248 -1.1758  0.5095
    6MOL   H855 5365   1.867   6.169   0.785  4.4550 -0.4238 -1.3806
    6MOL   H856 5366   1.660   6.148   0.656 -2.1459  2.4264  1.7470
    6MOL   C857 5367   2.175   6.296   0.687  0.2862 -0.2463  0.0987
    6MOL   C858 5368   2.230   6.170   0.731  0.4299 -0.4980 -0.8329
    6MOL   C859 5369   2.341   6.111   0.668 -1.0375  0.7301 -0.5551
    6MOL   C860 5370   2.405   6.178   0.561  0.1390 -0.0488 -1.0794
    6MOL   C861 5371   2.354   6.298   0.517 -0.0367  0.3331  0.0772
    6MOL   C862 5372   2.246   6.355   0.584  0.2749 -0.1945 -0.7367
    6MOL   S863 5373   2.558   6.128   0.495 -0.0691 -0.2837 -0.2215
    6MOL   O864 5374   2.655   6.226   0.547 -0.3483 -0.8431 -0.4175
    6MOL   O865 5375   2.537   6.112   0.352  0.3437 -0.1076  0.0715
    6MOL   C866 5376   2.596   5.964   0.561 -0.0228  0.1820 -0.3647
    6MOL   C867 5377   2.665   5.957   0.681 -0.2740 -0.4403 -0.1100
    6MOL   C868 5378   2.695   5.833   0.735 -0.5515 -0.5277  0.0865
    6MOL   C869 5379   2.647   5.719   0.672  0.1912 -0.2235  0.4241
    6MOL   C870 5380   2.591   5.724   0.546  0.4360 -0.1595  0.5176
    6MOL   C871 5381   2.561   5.847   0.488 -0.6751 -0.0742 -0.4115
    6MOL   O872 5382   2.671   5.600   0.729 -0.5177 -0.5008 -0.1586
    6MOL   C873 5383   2.727   5.506   0.647 -0.5383 -0.5184  0.7198
    6MOL   C874 5384   2.865   5.514   0.604 -0.1665  0.5359 -0.0016
    6MOL   C875 5385   2.925   5.408   0.529 -0.1985 -0.4684 -1.0888
    6MOL   C876 5386   2.855   5.298   0.484 -0.3325  0.4406  0.2502
    6MOL   C877 5387   2.718   5.297   0.518 -0.0981  0.2579  0.9299
    6MOL   C878 5388   2.654   5.395   0.600  0.9071 -0.1954 -0.4514
    6MOL   C879 5389   2.918   5.208   0.388 -0.3203 -0.1460 -0.4642
    6MOL   C880 5390   2.853   5.171   0.269 -0.4243  0.3774 -0.4780
    6MOL   C881 5391   2.916   5.075   0.186  0.1920 -0.0615 -0.1898
    6MOL   C882 5392   3.031   5.002   0.224  0.1994  0.2780  0.1507
    6MOL   C883 5393   3.088   5.039   0.349 -0.5321 -0.3425 -0.3236
    6MOL   C884 5394   3.032   5.143   0.428 -0.2056 -0.8195 -0.6993
    6MOL   O885 5395   3.073   4.896   0.148  0.3034 -0.6486  0.6639
    6MOL   H886 5396   2.194   6.128   0.824 -0.3801  0.5245 -0.6797
    6MOL   H887 5397   2.389   6.028   0.718  1.4395  0.8580 -2.5919
    6MOL   H888 5398   2.406   6.342   0.433  1.6224 -2.2279 -0.2691
    6MOL   H889 5399   2.212   6.447   0.538 -0.2759 -0.6533 -1.2558
    6MOL   H890 5400   2.698   6.046   0.731  0.2690 -0.5584 -0.2570
    6MOL   H891 5401   2.743   5.820   0.831 -1.0734  1.9657  0.7060
    6MOL   H892 5402   2.545   5.634   0.509  0.4634 -0.3534  0.9631
    6MOL   H893 5403   2.493   5.848   0.404  1.5091  1.9974 -2.2036
    6MOL   H894 5404   2.914   5.604   0.639  1.5961 -0.1812 -0.6312
    6MOL   H895 5405   3.026   5.428   0.497 -0.7423  3.3887 -0.5933
    6MOL   H896 5406   2.664   5.209   0.486 -0.5434  1.4267 -1.6405
    6MOL   H897 5407   2.550   5.383   0.627  0.1022  2.2758 -2.2857
    6MOL   H898 5408   2.761   5.220   0.241 -1.3428 -1.8469 -1.4522
    6MOL   H899 5409   2.865   5.043   0.097 -0.1590 -0.0209 -0.0050
    6MOL   H900 5410   3.181   4.995   0.381  0.6939  1.8789 -0.7021
    6MOL   H901 5411   3.079   5.170   0.522  0.3201  0.5344 -1.3326
    6MOL   H902 5412   3.124   4.826   0.185 -0.0108 -2.0212 -1.3859
    7MOL     C1 5413   6.163   2.955   8.025  0.0145 -0.3568  0.0089
    7MOL     C2 5414   6.056   3.047   8.011 -0.2901 -0.7477 -0.3735
    7MOL     C3 5415   6.012   3.083   7.883  0.6937 -0.4355 -0.1367
    7MOL     C4 5416   6.077   3.033   7.768 -0.3775 -0.2609  0.5309
    7MOL     C5 5417   6.178   2.937   7.778  0.1281  0.8642  0.4872
    7MOL     C6 5418   6.219   2.893   7.905  0.2492  0.4329 -0.1831
    7MOL     S7 5419   6.019   3.079   7.604 -0.0292 -0.0364 -0.0744
    7MOL     O8 5420   5.881   3.129   7.612  0.8324  0.8660 -0.3468
    7MOL     O9 5421   6.050   2.969   7.505 -0.0426 -0.1230  0.6114
    7MOL    C10 5422   6.122   3.219   7.558  0.0517 -0.0653 -0.4948
    7MOL    C11 5423   6.074   3.310   7.463  0.3722 -0.1047  0.2476
    7MOL    C12 5424   6.165   3.395   7.400  0.1292  0.0034 -0.0104
    7MOL    C13 5425   6.298   3.410   7.456 -0.3945  0.6067 -0.2438
    7MOL    C14 5426   6.338   3.333   7.565 -0.3772 -0.0495 -0.4823
    7MOL    C15 5427   6.256   3.233   7.610  0.1255 -0.9646  0.5100
    7MOL    O16 5428   6.388   3.498   7.409  0.1602  0.4972 -0.2093
    7MOL    C17 5429   6.377   3.544   7.279 -1.0702 -0.7596  0.6154
    7MOL    C18 5430   6.400   3.462   7.167 -0.1421  0.0869 -0.3236
    7MOL    C19 5431   6.368   3.512   7.036 -0.4083 -0.3133 -0.3543
    7MOL    C20 5432   6.330   3.647   7.006 -0.5916  0.5904 -0.2160
    7MOL    C21 5433   6.336   3.736   7.117 -0.5257  0.0001 -0.9462
    7MOL    C22 5434   6.345   3.681   7.254  0.3323 -1.0030  0.0712
    7MOL    C23 5435   6.289   3.687   6.868 -0.4730  0.1555 -0.2822
    7MOL    C24 5436   6.257   3.822   6.836 -0.2598 -0.5303 -0.0456
    7MOL    C25 5437   6.240   3.867   6.703 -0.1808 -0.0479  0.0976
    7MOL    C26 5438   6.240   3.772   6.601 -0.1905 -0.4758  0.5600
    7MOL    C27 5439   6.272   3.636   6.628  0.1488 -0.6904 -0.0362
    7MOL    C28 5440   6.307   3.597   6.759  0.4244 -0.5128  0.0603
    7MOL    O29 5441   6.217   3.817   6.474 -0.7523  0.0660  0.0393
    7MOL    H30 5442   5.999   3.064   8.101 -0.3900  2.6856 -1.0266
    7MOL    H31 5443   5.936   3.159   7.878  0.0850 -1.0546 -0.4045
    7MOL    H32 5444   6.220   2.884   7.693 -2.7185 -2.1105  0.8091
    7MOL    H33 5445   6.287   2.811   7.919 -0.3258  0.1690  1.1915
    7MOL    H34 5446   5.981   3.293   7.410  0.2632 -1.6547  0.9198
    7MOL    H35 5447   6.124   3.463   7.326  3.0100  1.6255 -0.1978
    7MOL    H36 5448   6.440   3.333   7.600 -0.1355  0.4358 -1.1635
    7MOL    H37 5449   6.281   3.157   7.682 -1.0447 -0.0526  1.8992
    7MOL    H38 5450   6.440   3.362   7.175 -0.8181 -0.3014 -1.5763
    7MOL    H39 5451   6.367   3.434   6.961  0.7610 -0.1500 -0.5459
    7MOL    H40 5452   6.315   3.841   7.110 -1.2069 -0.1159 -0.6748
    7MOL    H41 5453   6.339   3.751   7.337  0.9101  0.2935 -0.9674
    7MOL    H42 5454   6.250   3.890   6.920 -0.3811 -1.3498  0.6178
    7MOL    H43 5455   6.212   3.970   6.692  2.2732  0.5256 -1.2164
    7MOL    H44 5456   6.271   3.563   6.548  0.8542 -0.6665 -0.0713
    7MOL    H45 5457   6.342   3.495   6.762  0.9687 -0.3846 -1.4488
    7MOL    H46 5458   6.191   2.924   8.124 -0.7661  0.1391  0.3868
    7MOL    C47 5459   6.294   3.773   6.371 -0.1366  1.1543 -0.7757
    7MOL    C48 5460   6.240   3.675   6.286  0.6988 -0.6622 -0.1821
    7MOL    C49 5461   6.320   3.629   6.178 -0.0341  0.0478 -0.2016
    7MOL    C50 5462   6.452   3.672   6.160  0.3824  0.2205  0.7129
    7MOL    C51 5463   6.506   3.765   6.250 -0.3367  0.3269  0.2423
    7MOL    C52 5464   6.422   3.819   6.357  0.2042 -0.0762  0.4098
    7MOL    S53 5465   6.550   3.593   6.030  0.3280 -0.4338 -0.4560
    7MOL    O54 5466   6.696   3.604   6.065  0.0223  0.3696  0.1101
    7MOL    O55 5467   6.501   3.651   5.897 -0.3931 -0.0963 -0.1260
    7MOL    C56 5468   6.504   3.421   6.034 -0.1493 -0.2317 -0.4477
    7MOL    C57 5469   6.428   3.369   5.930 -0.3360  0.2291  0.6715
    7MOL    C58 5470   6.383   3.232   5.940  0.0142  0.2075  0.2224
    7MOL    C59 5471   6.420   3.155   6.052  0.1278  0.8535 -0.1503
    7MOL    C60 5472   6.497   3.216   6.156 -0.0116 -0.4645 -0.9016
    7MOL    C61 5473   6.546   3.351   6.143 -0.4001  0.2231 -0.1580
    7MOL    O62 5474   6.384   3.019   6.058 -0.2915 -0.3624  0.0721
    7MOL    C63 5475   6.279   2.990   6.147  0.8552  0.1204 -0.2202
    7MOL    C64 5476   6.309   2.938   6.276  0.0766  0.4510 -0.4970
    7MOL    C65 5477   6.206   2.901   6.368  0.3049  0.0858  0.0755
    7MOL    C66 5478   6.071   2.921   6.330 -0.5333 -0.0402 -0.0011
    7MOL    C67 5479   6.037   2.974   6.200 -0.4294  0.7047  0.0710
    7MOL    C68 5480   6.141   3.006   6.113 -0.6845  0.3764  0.2117
    7MOL    C69 5481   5.965   2.891   6.431 -0.3127 -0.1850 -0.1858
    7MOL    C70 5482   5.862   2.989   6.452 -0.5706  0.5721 -0.1251
    7MOL    C71 5483   5.762   2.967   6.546 -0.4020 -0.2978 -0.7745
    7MOL    C72 5484   5.760   2.851   6.622  0.0003 -0.1789 -0.4767
    7MOL    C73 5485   5.861   2.753   6.603  0.0575  0.0865  0.1913
    7MOL    C74 5486   5.964   2.775   6.512  0.1472  0.2178  0.6129
    7MOL    O75 5487   5.672   2.834   6.729  0.3306 -0.0389 -0.3038
    7MOL    H76 5488   6.136   3.646   6.292  0.2371  0.9785 -0.0943
    7MOL    H77 5489   6.271   3.560   6.111 -0.6043 -0.4143  0.6801
    7MOL    H78 5490   6.610   3.787   6.232 -0.5798 -0.0844 -1.7679
    7MOL    H79 5491   6.464   3.886   6.430  0.1369  0.7308 -0.2821
    7MOL    H80 5492   6.410   3.430   5.843  1.9648 -0.1936 -0.1380
    7MOL    H81 5493   6.326   3.187   5.861  1.7897  0.4979 -1.2776
    7MOL    H82 5494   6.535   3.152   6.234  0.3272  0.0328 -0.6569
    7MOL    H83 5495   6.597   3.396   6.227 -0.7933 -1.1742  0.8384
    7MOL    H84 5496   6.412   2.916   6.296 -0.3063 -0.7942  0.1623
    7MOL    H85 5497   6.231   2.870   6.468  0.6723 -0.9875 -0.3469
    7MOL    H86 5498   5.935   3.001   6.177  0.1541  1.0560 -2.3043
    7MOL    H87 5499   6.122   3.037   6.011 -1.3193 -1.5118 -0.2643
    7MOL    H88 5500   5.864   3.086   6.402 -0.9909  1.8186  2.2224
    7MOL    H89 5501   5.701   3.053   6.569 -0.9207 -1.1894  1.2348
    7MOL    H90 5502   5.870   2.669   6.671  1.2334  0.6604  0.7499
    7MOL    H91 5503   6.035   2.695   6.497 -2.2667 -1.5393 -1.9066
    7MOL    C92 5504   5.546   2.782   6.701  0.1368  0.3184  0.2658
    7MOL    C93 5505   5.483   2.783   6.574  0.1327 -0.1021  0.1275
    7MOL    C94 5506   5.356   2.720   6.552 -0.2840 -0.0175 -0.3346
    7MOL    C95 5507   5.291   2.657   6.653 -0.1969  0.2334 -0.1979
    7MOL    C96 5508   5.350   2.651   6.781 -0.0659 -0.4067  0.2234
    7MOL    C97 5509   5.471   2.720   6.801 -0.5043 -0.0659  0.1801
    7MOL    S98 5510   5.145   2.568   6.613  0.0489  0.0289  0.1899
    7MOL    O99 5511   5.153   2.525   6.475 -0.5703 -0.2139 -0.2262
    7MOL   O100 5512   5.022   2.639   6.656  0.4305  0.0245  0.1232
    7MOL   C101 5513   5.167   2.418   6.710 -0.3175 -0.5928 -0.5491
    7MOL   C102 5514   5.069   2.373   6.797  0.2940  0.3825 -1.0178
    7MOL   C103 5515   5.087   2.259   6.869 -0.6464 -0.0078 -0.4079
    7MOL   C104 5516   5.206   2.179   6.849 -0.2215 -0.1938 -0.3495
    7MOL   C105 5517   5.306   2.233   6.766 -0.6926 -0.3854 -0.3166
    7MOL   C106 5518   5.288   2.353   6.696  0.4282 -0.1908 -0.2637
    7MOL   O107 5519   5.231   2.056   6.900  0.2032  0.1014 -0.1379
    7MOL   C108 5520   5.177   2.031   7.022 -0.2462 -0.0052  0.2976
    7MOL   C109 5521   5.075   1.938   7.031  0.6143 -0.1248 -0.4380
    7MOL   C110 5522   5.023   1.892   7.155  0.0549  0.5584 -0.0125
    7MOL   C111 5523   5.056   1.969   7.275  0.3083 -0.2011  0.0242
    7MOL   C112 5524   5.165   2.061   7.262  0.0148  1.2442 -0.2034
    7MOL   C113 5525   5.224   2.093   7.138 -0.6836  0.1754 -0.0554
    7MOL   C114 5526   4.989   1.949   7.406  0.5637  0.8316  0.1137
    7MOL   C115 5527   4.846   1.928   7.420 -0.2119 -0.2244 -0.0216
    7MOL   C116 5528   4.784   1.915   7.546 -0.5393 -0.1837 -0.1096
    7MOL   C117 5529   4.861   1.896   7.665 -0.2770  0.3408 -0.2375
    7MOL   C118 5530   5.001   1.914   7.646  0.2184 -0.1013  0.1897
    7MOL   C119 5531   5.067   1.932   7.521 -0.7816  0.0176  1.1204
    7MOL   O120 5532   4.814   1.879   7.791  0.3033  0.7256 -0.4261
    7MOL   H121 5533   5.525   2.826   6.485  2.8391 -1.9261  0.4511
    7MOL   H122 5534   5.316   2.718   6.451 -0.6115  1.9766 -0.2696
    7MOL   H123 5535   5.298   2.596   6.859  0.9029 -1.5150  0.1058
    7MOL   H124 5536   5.522   2.719   6.896  0.4968 -0.9342 -0.3495
    7MOL   H125 5537   4.985   2.440   6.808  0.5941  0.5809  0.1312
    7MOL   H126 5538   5.008   2.237   6.939 -1.5007  1.1010 -1.0037
    7MOL   H127 5539   5.398   2.179   6.751 -0.2850 -0.0352  0.8784
    7MOL   H128 5540   5.361   2.403   6.634  0.6656 -1.3100 -0.9096
    7MOL   H129 5541   5.032   1.901   6.939  0.7068 -1.1716 -0.0637
    7MOL   H130 5542   4.953   1.810   7.156  1.2416 -0.4466  0.8510
    7MOL   H131 5543   5.207   2.123   7.340  0.1822  0.0757  0.6618
    7MOL   H132 5544   5.303   2.167   7.130  0.8441 -1.3819  0.2302
    7MOL   H133 5545   4.790   1.921   7.328  1.4005 -1.2920 -0.9503
    7MOL   H134 5546   4.677   1.904   7.555 -0.4305 -1.8844 -0.5935
    7MOL   H135 5547   5.064   1.926   7.733  0.7699  2.7877 -0.5504
    7MOL   H136 5548   5.174   1.926   7.505 -1.1682 -1.2590 -1.2886
    7MOL   C137 5549   4.713   1.793   7.812  0.1543  0.3583 -0.1027
    7MOL   C138 5550   4.593   1.841   7.872 -0.3578 -0.1679  0.6971
    7MOL   C139 5551   4.480   1.758   7.890 -0.2949  0.7104  0.9857
    7MOL   C140 5552   4.497   1.623   7.862 -0.1670  0.0037 -0.8499
    7MOL   C141 5553   4.616   1.574   7.818 -0.2049 -0.2617 -0.9792
    7MOL   C142 5554   4.726   1.654   7.793  0.2184  0.6999  0.0593
    7MOL   S143 5555   4.353   1.510   7.888  0.2861  0.5293 -0.6529
    7MOL   O144 5556   4.289   1.554   8.013 -0.8072 -0.0540  0.3011
    7MOL   O145 5557   4.413   1.376   7.890  0.1667  0.3180 -0.6165
    7MOL   C146 5558   4.235   1.524   7.747  0.5843 -0.3465 -0.2460
    7MOL   C147 5559   4.179   1.404   7.694  0.1315 -0.1588  0.5221
    7MOL   C148 5560   4.073   1.409   7.608 -0.3961 -0.9320  0.5193
    7MOL   C149 5561   4.030   1.532   7.557 -0.0126 -0.1522  0.1444
    7MOL   C150 5562   4.093   1.654   7.600 -0.7774 -0.1640  0.1774
    7MOL   C151 5563   4.190   1.649   7.700 -0.4668 -0.2344 -0.3027
    7MOL   O152 5564   3.936   1.539   7.458 -0.6719 -0.2589  0.1812
    7MOL   C153 5565   3.810   1.488   7.473 -0.2599 -0.3314  0.2601
    7MOL   C154 5566   3.702   1.560   7.522 -0.2070 -0.2413 -0.1798
    7MOL   C155 5567   3.579   1.495   7.534  0.0549  0.0315  0.9256
    7MOL   C156 5568   3.560   1.358   7.499  0.3708  0.3260 -0.3005
    7MOL   C157 5569   3.671   1.294   7.453  0.0179  0.2028 -0.3977
    7MOL   C158 5570   3.798   1.355   7.436  0.5364  0.7549 -0.1062
    7MOL   C159 5571   3.432   1.284   7.494 -0.4820 -0.8496  0.3841
    7MOL   C160 5572   3.337   1.298   7.592 -0.1584 -0.2135  0.1759
    7MOL   C161 5573   3.207   1.236   7.584 -0.1507  0.9291 -0.4129
    7MOL   C162 5574   3.175   1.153   7.473 -0.1956 -0.8074 -0.4790
    7MOL   C163 5575   3.276   1.132   7.373  0.8604  0.0214  0.3241
    7MOL   C164 5576   3.399   1.200   7.385 -0.5472 -0.0585  0.3110
    7MOL   O165 5577   3.058   1.085   7.457 -0.1166  0.0895  0.2994
    7MOL   H166 5578   4.593   1.948   7.888 -1.8664  0.2904 -2.0420
    7MOL   H167 5579   4.388   1.800   7.929  0.2707  1.5268  1.4336
    7MOL   H168 5580   4.618   1.466   7.816 -2.5395 -0.3766  1.0851
    7MOL   H169 5581   4.812   1.616   7.740  0.2470  2.4309 -1.2058
    7MOL   H170 5582   4.223   1.309   7.721 -0.2814 -0.8667 -1.2484
    7MOL   H171 5583   4.029   1.314   7.580  0.6811 -1.2576 -0.0763
    7MOL   H172 5584   4.058   1.744   7.552  1.2393  1.2697  1.3208
    7MOL   H173 5585   4.247   1.736   7.727 -1.6366  0.3357  0.3901
    7MOL   H174 5586   3.699   1.667   7.537  1.3415 -0.3016  0.6406
    7MOL   H175 5587   3.487   1.548   7.551 -0.0193  0.0734  0.3991
    7MOL   H176 5588   3.652   1.192   7.423 -1.6197 -0.2102  1.8898
    7MOL   H177 5589   3.881   1.294   7.404 -0.1533 -0.3288  0.1465
    7MOL   H178 5590   3.350   1.361   7.679 -3.3712  1.3758 -0.3821
    7MOL   H179 5591   3.146   1.262   7.669  0.5358  1.9617 -0.2313
    7MOL   H180 5592   3.261   1.063   7.291  0.2849  1.0137 -0.4109
    7MOL   H181 5593   3.474   1.179   7.309 -1.5891 -2.7638 -0.0361
    7MOL   C182 5594   3.014   1.018   7.570  0.0319  0.6695 -0.0356
    7MOL   C183 5595   2.931   1.076   7.665  0.5451 -0.3162  0.0512
    7MOL   C184 5596   2.884   1.000   7.780  0.4904  0.1775  0.0317
    7MOL   C185 5597   2.921   0.866   7.796  0.5343  0.3116  0.8282
    7MOL   C186 5598   2.992   0.801   7.692 -0.4159 -0.5057 -0.1618
    7MOL   C187 5599   3.040   0.881   7.584  0.7925 -0.2047 -0.2232
    7MOL   S188 5600   2.872   0.772   7.938  0.3597 -0.0116 -0.0958
    7MOL   O189 5601   2.938   0.645   7.943  0.5369  0.0126 -0.4050
    7MOL   O190 5602   2.726   0.762   7.940  0.6400 -0.2886  0.0961
    7MOL   C191 5603   2.917   0.862   8.089 -0.3171  1.4591 -0.3774
    7MOL   C192 5604   3.038   0.832   8.152 -0.2100 -0.0721  0.0517
    7MOL   C193 5605   3.086   0.910   8.258  0.0646 -0.4692 -0.4654
    7MOL   C194 5606   3.000   1.005   8.314  0.3656 -0.3658  0.1245
    7MOL   C195 5607   2.870   1.026   8.263 -0.5830  0.1820  0.4374
    7MOL   C196 5608   2.837   0.961   8.142  0.5280  0.1080 -0.3456
    7MOL   O197 5609   3.048   1.082   0.048 -0.0134 -0.6599  0.3855
    7MOL   C198 5610   3.063   1.216   0.017 -0.0189 -0.2749  0.0772
    7MOL   C199 5611   3.188   1.269   8.348 -0.0846 -0.0197  0.6410
    7MOL   C200 5612   3.188   1.406   8.294 -1.2276  0.0097 -0.7411
    7MOL   C201 5613   3.070   1.486   8.288  0.1811  0.0994 -0.5982
    7MOL   C202 5614   2.955   1.429   8.341  0.2194 -0.0532  0.2856
    7MOL   C203 5615   2.949   1.298   0.023 -0.1602  0.0814  0.0926
    7MOL   C204 5616   3.069   1.626   8.231 -0.5254  0.3807  0.2246
    7MOL   C205 5617   2.952   1.677   8.172 -0.7925 -0.6108  0.5121
    7MOL   C206 5618   2.966   1.804   8.118 -0.8316 -0.0005  0.2953
    7MOL   C207 5619   3.074   1.881   8.127  0.3199  0.1592 -0.4468
    7MOL   C208 5620   3.187   1.835   8.196 -0.3541  0.5993 -0.4889
    7MOL   C209 5621   3.186   1.705   8.246 -0.6429  0.2073  0.6761
    7MOL   O210 5622   3.077   2.011   8.075  0.2413  0.2595  0.0910
    7MOL   H211 5623   2.903   1.179   7.649  0.8925 -0.2874 -0.4155
    7MOL   H212 5624   2.831   1.049   7.860 -1.1152  0.8040 -1.3754
    7MOL   H213 5625   3.016   0.696   7.702 -1.4892 -0.6175  1.4096
    7MOL   H214 5626   3.099   0.839   7.504  1.3382 -0.6718  0.4262
    7MOL   H215 5627   3.107   0.765   8.101 -1.1172 -0.6574 -0.4176
    7MOL   H216 5628   3.189   0.895   8.289  0.3088 -2.6043 -2.1899
    7MOL   H217 5629   2.790   1.088   8.299 -0.7585  1.7510 -2.5098
    7MOL   H218 5630   2.747   0.986   8.087  1.3191 -1.2387 -2.3108
    7MOL   H219 5631   3.269   1.199   8.360 -0.5840 -0.5943  0.6950
    7MOL   H220 5632   3.285   1.448   8.274 -0.9393 -0.6850 -0.8445
    7MOL   H221 5633   2.864   1.486   8.352  0.3475  0.3388 -0.6783
    7MOL   H222 5634   2.854   1.257   0.056 -1.2642  1.1520 -1.7056
    7MOL   H223 5635   2.861   1.622   8.154 -0.3097 -1.8010  1.5960
    7MOL   H224 5636   2.876   1.835   8.067  0.2396  0.2968 -1.4289
    7MOL   H225 5637   3.270   1.901   8.215  1.3509 -1.2706 -1.3197
    7MOL   H226 5638   3.282   1.671   8.283 -0.0497 -2.4272 -3.0237
    7MOL   C227 5639   3.028   2.115   8.146  0.4824  0.2819  0.0496
    7MOL   C228 5640   3.066   2.239   8.099 -0.2962  0.5826 -0.1074
    7MOL   C229 5641   3.028   2.356   8.172  0.2292  0.3368  0.1853
    7MOL   C230 5642   2.963   2.336   8.296 -0.4903 -0.0630  0.5062
    7MOL   C231 5643   2.909   2.212   8.343 -0.6339  0.1288 -0.2252
    7MOL   C232 5644   2.944   2.103   8.263  0.7460  0.8524  0.5911
    7MOL   S233 5645   2.962   2.487   0.030  0.2776 -0.5056  0.2927
    7MOL   O234 5646   2.884   2.456   0.149 -0.7723 -0.0357  0.5800
    7MOL   O235 5647   2.927   2.613   8.323  0.0302 -0.2160  0.1575
    7MOL   C236 5648   3.136   2.514   0.089  0.0377  0.8106 -0.5377
    7MOL   C237 5649   3.152   2.545   0.229  0.2469  0.4449 -0.2642
    7MOL   C238 5650   3.274   2.554   0.295 -0.1720 -0.2396  0.2464
    7MOL   C239 5651   3.386   2.535   0.210  0.6355  0.0309  0.3701
    7MOL   C240 5652   3.371   2.514   0.067 -0.5427  0.0960 -0.9805
    7MOL   C241 5653   3.246   2.502   0.007 -0.1985 -0.3230 -1.1020
    7MOL   O242 5654   3.513   2.533   0.260 -0.6580  0.5896 -0.2353
    7MOL   C243 5655   3.542   2.450   0.363 -0.3542  1.2236  0.7799
    7MOL   C244 5656   3.622   2.504   0.471  0.4985  0.8109  0.3171
    7MOL   C245 5657   3.651   2.419   0.581 -0.0635 -0.9062  0.9194
    7MOL   C246 5658   3.600   2.285   0.591  0.0368  0.4659  0.5686
    7MOL   C247 5659   3.506   2.242   0.490 -0.6736  0.0048 -0.0876
    7MOL   C248 5660   3.489   2.323   0.376  0.5346 -0.4242  0.0777
    7MOL   C249 5661   3.643   2.206   0.710  0.3596  0.0794 -0.1124
    7MOL   C250 5662   3.673   2.268   0.841 -0.8487 -0.1486  0.7282
    7MOL   C251 5663   3.710   2.187   0.951  0.2739 -0.3459  0.1530
    7MOL   C252 5664   3.708   2.047   0.947  0.6414  0.0147  0.1056
    7MOL   C253 5665   3.673   1.986   0.826  0.2048 -0.2295  0.4481
    7MOL   C254 5666   3.649   2.063   0.710 -0.5467  0.2876  0.0811
    7MOL   O255 5667   3.727   1.970   1.055  0.0514  0.5502  0.2668
    7MOL   H256 5668   3.106   2.237   7.999  0.6818  1.8303  0.2470
    7MOL   H257 5669   3.063   2.456   8.153  1.2817  0.0605  0.5993
    7MOL   H258 5670   2.865   2.210   0.076  0.9331 -0.4305  0.4830
    7MOL   H259 5671   2.910   2.005   8.294  0.1795  0.7810 -0.2121
    7MOL   H260 5672   3.062   2.537   0.287  1.3515 -1.3366  1.2429
    7MOL   H261 5673   3.285   2.576   0.400  0.4394  0.6818 -0.0027
    7MOL   H262 5674   3.460   2.495   0.008  0.2973  0.4333  0.1508
    7MOL   H263 5675   3.243   2.471   8.269  2.9378 -2.4266 -0.6236
    7MOL   H264 5676   3.658   2.605   0.460 -0.5434  1.1153 -0.3397
    7MOL   H265 5677   3.713   2.459   0.661  1.4468  2.2432 -1.7266
    7MOL   H266 5678   3.457   2.145   0.491 -0.4910 -0.0900 -0.1583
    7MOL   H267 5679   3.426   2.282   0.299  0.3120  1.9913 -1.0772
    7MOL   H268 5680   3.657   2.374   0.853 -2.5118 -0.4224  1.1115
    7MOL   H269 5681   3.729   2.234   1.047  1.2693 -0.5803  0.0763
    7MOL   H270 5682   3.660   1.879   0.831  1.2670 -0.4099 -0.3817
    7MOL   H271 5683   3.620   2.008   0.621 -0.0595  1.1082 -0.5947
    7MOL   C272 5684   3.795   2.024   1.156 -0.2773  0.2668 -0.4233
    7MOL   C273 5685   3.735   2.043   1.284  0.5188  0.6426  0.4119
    7MOL   C274 5686   3.800   2.119   1.381  0.5490  0.6902  0.3548
    7MOL   C275 5687   3.911   2.201   1.351  0.2864  0.1607  0.0740
    7MOL   C276 5688   3.972   2.174   1.223 -0.1361  0.1735  0.2530
    7MOL   C277 5689   3.925   2.074   1.138  1.0699 -0.0588  0.5555
    7MOL   S278 5690   3.991   2.319   1.461  0.0568  0.0850  0.1716
    7MOL   O279 5691   4.006   2.450   1.394 -0.4726 -0.3728 -0.4064
    7MOL   O280 5692   4.104   2.247   1.525  0.5890  0.6931 -0.4268
    7MOL   C281 5693   3.865   2.344   1.583  0.1187 -0.2859  0.5664
    7MOL   C282 5694   3.745   2.407   1.550  0.2253 -0.4940  0.1101
    7MOL   C283 5695   3.640   2.426   1.647 -0.6299 -0.1140 -0.1775
    7MOL   C284 5696   3.663   2.410   1.785  0.1966  0.3389  0.5445
    7MOL   C285 5697   3.786   2.344   1.819 -0.0352 -0.0245  0.2688
    7MOL   C286 5698   3.884   2.306   1.717  0.5160  0.2493 -0.4237
    7MOL   O287 5699   3.570   2.446   1.882 -0.3221  0.7610  0.0712
    7MOL   C288 5700   3.537   2.575   1.885 -0.7548 -0.1120  0.1064
    7MOL   C289 5701   3.406   2.610   1.868  0.6441 -0.3727 -0.8718
    7MOL   C290 5702   3.356   2.741   1.852  0.2520  0.4850  0.2753
    7MOL   C291 5703   3.449   2.843   1.872 -0.7107 -0.2183  0.4740
    7MOL   C292 5704   3.586   2.812   1.888 -0.3082 -0.7315  0.0747
    7MOL   C293 5705   3.630   2.679   1.899  0.3809 -0.1454  1.4443
    7MOL   C294 5706   3.403   2.981   1.849 -0.9262  0.4904 -0.1907
    7MOL   C295 5707   3.423   3.040   1.721  0.7393  0.2576  0.4981
    7MOL   C296 5708   3.358   3.165   1.688 -1.0650 -0.3538  0.7634
    7MOL   C297 5709   3.291   3.239   1.786 -0.5321  0.2828 -0.1565
    7MOL   C298 5710   3.284   3.180   1.916  0.1943  0.7528  0.4549
    7MOL   C299 5711   3.344   3.060   1.952 -0.0042 -0.3392  0.6170
    7MOL   O300 5712   3.240   3.363   1.781  0.3131 -0.0887 -0.1758
    7MOL   H301 5713   3.649   1.984   1.313  0.4163 -0.5016 -2.0964
    7MOL   H302 5714   3.765   2.125   1.483 -1.1342  0.4141 -0.2002
    7MOL   H303 5715   4.060   2.234   1.204 -0.7317  0.4789 -1.6213
    7MOL   H304 5716   3.972   2.047   1.045 -0.4717 -1.5712  0.1871
    7MOL   H305 5717   3.729   2.435   1.447  1.7814 -2.9714 -0.8373
    7MOL   H306 5718   3.547   2.472   1.619 -0.5483 -0.0480 -0.3422
    7MOL   H307 5719   3.813   2.340   1.923  0.5001 -0.6492  0.1040
    7MOL   H308 5720   3.963   2.242   1.753  0.1122  0.2596  0.4885
    7MOL   H309 5721   3.338   2.528   1.850 -1.0346  1.1652 -1.6986
    7MOL   H310 5722   3.252   2.753   1.825  0.1573  0.6247  0.6958
    7MOL   H311 5723   3.656   2.895   1.888 -0.7902 -0.3214  0.6447
    7MOL   H312 5724   3.736   2.659   1.908  0.5874  0.1507 -0.1763
    7MOL   H313 5725   3.468   2.982   1.642  2.8343  0.6533  1.3641
    7MOL   H314 5726   3.368   3.199   1.586  1.6179 -0.6270  0.8912
    7MOL   H315 5727   3.239   3.235   1.997 -0.7193 -2.4623  2.2186
    7MOL   H316 5728   3.335   3.023   2.054 -0.1962  0.7977  1.0236
    7MOL   C317 5729   3.305   3.456   1.704  0.2929 -0.7258 -0.4121
    7MOL   C318 5730   3.423   3.525   1.743  0.2825 -0.2837 -0.1376
    7MOL   C319 5731   3.471   3.631   1.662 -0.0716  0.8824 -0.0150
    7MOL   C320 5732   3.417   3.652   1.536  0.3834  0.0787 -0.3849
    7MOL   C321 5733   3.312   3.572   1.483  0.2239 -0.0051 -0.5558
    7MOL   C322 5734   3.252   3.481   1.572 -0.1998  0.3461  0.1355
    7MOL   S323 5735   3.487   3.778   1.433 -0.1615  0.1579  0.1502
    7MOL   O324 5736   3.550   3.714   1.321 -0.0816 -0.8135  0.2575
    7MOL   O325 5737   3.555   3.877   1.515  0.4997 -0.0478 -0.0462
    7MOL   C326 5738   3.345   3.863   1.375  0.5480  0.1945 -0.9266
    7MOL   C327 5739   3.296   3.830   1.243  0.0338 -0.2369  0.0213
    7MOL   C328 5740   3.176   3.886   1.199 -0.4443 -0.3103  0.3504
    7MOL   C329 5741   3.096   3.969   1.281  0.3747  0.2933 -0.1972
    7MOL   C330 5742   3.147   4.005   1.410  0.2390  0.3302  0.1116
    7MOL   C331 5743   3.271   3.958   1.455 -0.4362  0.4916  0.8750
    7MOL   O332 5744   2.974   4.019   1.243 -0.1287 -0.5228  0.1480
    7MOL   C333 5745   2.862   3.952   1.288 -0.1661 -0.1425 -0.1531
    7MOL   C334 5746   2.862   3.813   1.263  0.3149 -0.1506 -0.5756
    7MOL   C335 5747   2.768   3.732   1.338  0.1562 -0.1510 -0.1850
    7MOL   C336 5748   2.680   3.785   1.431  0.0637  0.2529  0.4513
    7MOL   C337 5749   2.675   3.929   1.445  0.3704  0.0939  0.1788
    7MOL   C338 5750   2.772   4.009   1.380  0.6095  0.0903 -0.5372
    7MOL   C339 5751   2.582   3.694   1.495  0.1226  0.3504  0.3562
    7MOL   C340 5752   2.552   3.723   1.628  0.1731  0.0046 -0.1351
    7MOL   C341 5753   2.453   3.664   1.707  0.3850  0.2388  0.1594
    7MOL   C342 5754   2.375   3.566   1.638  0.3001 -0.5529 -0.2305
    7MOL   C343 5755   2.402   3.529   1.504  0.6080 -0.7194  0.4131
    7MOL   C344 5756   2.507   3.594   1.433  0.4233  0.1398  0.1132
    7MOL   O345 5757   2.275   3.505   1.706  0.2608 -0.4970  0.1194
    7MOL   H346 5758   3.477   3.509   1.835 -1.4867  0.1142  1.0075
    7MOL   H347 5759   3.561   3.679   1.699 -0.9927  0.7826  2.4029
    7MOL   H348 5760   3.301   3.580   1.376  0.2473  1.3580 -0.4682
    7MOL   H349 5761   3.171   3.415   1.544 -0.8795  0.5520  1.5847
    7MOL   H350 5762   3.353   3.771   1.173  0.1995 -1.6428  1.3087
    7MOL   H351 5763   3.127   3.862   1.106  1.7880  0.0635 -0.9425
    7MOL   H352 5764   3.098   4.081   1.469 -0.3391  0.2203 -0.2188
    7MOL   H353 5765   3.313   3.984   1.551 -1.7344  0.9612  1.3167
    7MOL   H354 5766   2.929   3.763   1.194  0.5145 -1.0487  0.2523
    7MOL   H355 5767   2.766   3.627   1.315  2.1464 -0.1110 -0.6718
    7MOL   H356 5768   2.605   3.982   1.507  1.6499 -0.8247  2.4873
    7MOL   H357 5769   2.775   4.117   1.383  0.2639  0.1606 -2.2885
    7MOL   H358 5770   2.619   3.793   1.677 -2.3761  1.8284  0.9306
    7MOL   H359 5771   2.430   3.677   1.812 -1.8995  0.4992 -0.3402
    7MOL   H360 5772   2.349   3.444   1.465 -0.3930  0.3529 -0.6004
    7MOL   H361 5773   2.521   3.559   1.332  1.1958 -1.0084  0.6019
    7MOL   C362 5774   2.319   3.399   1.772 -0.2828  0.1791  0.3664
    7MOL   C363 5775   2.322   3.272   1.709 -0.7068  0.0861  0.1941
    7MOL   C364 5776   2.375   3.162   1.780  1.2800 -0.5957  0.6274
    7MOL   C365 5777   2.423   3.173   1.908 -0.6323 -1.3050 -0.0635
    7MOL   C366 5778   2.412   3.300   1.966 -0.0642 -0.4845 -0.8436
    7MOL   C367 5779   2.361   3.413   1.904 -0.3430  0.2871  0.3244
    7MOL   S368 5780   2.512   3.035   1.979 -0.0425 -0.4042 -0.4731
    7MOL   O369 5781   2.642   3.025   1.906 -0.0843 -0.2580  0.1220
    7MOL   O370 5782   2.416   2.922   1.974  0.0494 -0.4222  0.4738
    7MOL   C371 5783   2.558   3.069   2.145  0.0111 -0.2579 -0.3399
    7MOL   C372 5784   2.665   3.154   2.167  0.5101  0.0694 -0.1407
    7MOL   C373 5785   2.711   3.190   2.297  0.0966  0.4167 -0.2007
    7MOL   C374 5786   2.642   3.137   2.413 -0.1873  0.0445  0.3704
    7MOL   C375 5787   2.535   3.055   2.390 -0.1311  0.6573 -0.1329
    7MOL   C376 5788   2.489   3.025   2.261  0.4148 -0.0028 -0.3377
    7MOL   O377 5789   2.686   3.165   2.539  0.1761 -0.6258 -0.6591
    7MOL   C378 5790   2.818   3.160   2.564 -0.0574 -0.0951 -0.4095
    7MOL   C379 5791   2.875   3.030   2.580  0.3158  0.6207  0.1399
    7MOL   C380 5792   3.011   3.022   2.617 -0.2793  0.2447 -0.5627
    7MOL   C381 5793   3.091   3.137   2.638  0.5634  0.2065  0.2667
    7MOL   C382 5794   3.027   3.264   2.617  1.0363 -0.0212 -0.2029
    7MOL   C383 5795   2.892   3.281   2.583  0.3763  0.0938 -0.5604
    7MOL   C384 5796   3.236   3.125   2.680  0.5808  0.4611 -0.2397
    7MOL   C385 5797   3.327   3.229   2.664  0.1980 -0.5565  0.0803
    7MOL   C386 5798   3.457   3.217   2.717 -0.2634 -0.6393 -0.9111
    7MOL   C387 5799   3.501   3.100   2.775 -0.0920 -0.2458  0.2016
    7MOL   C388 5800   3.412   2.992   2.797  0.1626 -0.0530 -0.2654
    7MOL   C389 5801   3.280   3.003   2.742 -0.6622  0.4151 -1.0752
    7MOL   O390 5802   3.626   3.098   2.822 -0.4303  0.0400  0.0151
    7MOL   H391 5803   2.291   3.259   1.606  1.3399 -0.3705 -0.3837
    7MOL   H392 5804   2.378   3.067   1.728 -0.9253 -0.9444  1.0676
    7MOL   H393 5805   2.452   3.301   2.067 -0.6143 -0.2349 -0.6229
    7MOL   H394 5806   2.355   3.508   1.955  0.7711  0.7005 -0.2977
    7MOL   H395 5807   2.722   3.196   2.085 -0.7948  2.7651  0.2723
    7MOL   H396 5808   2.791   3.261   2.308  0.0381  0.3600  0.6190
    7MOL   H397 5809   2.475   3.018   2.472 -0.0977 -1.3518 -0.9851
    7MOL   H398 5810   2.403   2.961   2.254  0.2276  0.1782  0.2980
    7MOL   H399 5811   2.832   2.934   2.553  2.1185 -0.9202  2.4674
    7MOL   H400 5812   3.056   2.924   2.622  0.3348  0.4337 -2.2092
    7MOL   H401 5813   3.086   3.353   2.632  0.2086  0.5272 -0.1597
    7MOL   H402 5814   2.842   3.376   2.567 -2.1290 -1.3002 -1.0879
    7MOL   H403 5815   3.301   3.324   2.622  0.9231  0.7078  2.3672
    7MOL   H404 5816   3.527   3.299   2.722 -0.8540 -0.3165  3.7985
    7MOL   H405 5817   3.452   2.907   2.849  0.0934  1.0309  1.5980
    7MOL   H406 5818   3.212   2.923   2.765  0.8517 -0.5021  0.3307
    7MOL   C407 5819   3.633   3.085   2.963  0.0680  0.7897 -0.1670
    7MOL   C408 5820   3.683   2.966   3.014 -0.0460  0.2953 -0.3108
    7MOL   C409 5821   3.673   2.941   3.151 -0.5803 -0.2248  0.7619
    7MOL   C410 5822   3.624   3.038   3.238 -0.0556 -0.1619 -0.0811
    7MOL   C411 5823   3.579   3.161   3.190 -0.3287 -0.2320 -0.1141
    7MOL   C412 5824   3.592   3.189   3.052  0.4310 -0.1146  0.1522
    7MOL   S413 5825   3.606   2.989   3.414 -0.2170  0.2920  0.1605
    7MOL   O414 5826   3.495   2.891   3.420 -0.1750 -0.7225  0.4889
    7MOL   O415 5827   3.603   3.118   3.488 -0.3191  0.0214 -0.5285
    7MOL   C416 5828   3.753   2.897   3.453 -0.1335 -0.0609  0.2924
    7MOL   C417 5829   3.878   2.964   3.444  0.2318 -0.2732  0.2945
    7MOL   C418 5830   3.989   2.885   3.475  0.3915  0.7548  0.2646
    7MOL   C419 5831   3.980   2.757   3.531  0.1578  0.3441 -0.1412
    7MOL   C420 5832   3.855   2.702   3.556 -0.8135  0.3724 -0.1003
    7MOL   C421 5833   3.743   2.769   3.516  0.1156 -0.5221 -0.0126
    7MOL   O422 5834   4.091   2.677   3.546 -0.2484 -0.2993  0.1533
    7MOL   C423 5835   4.179   2.679   3.440  0.6107  0.3870  0.6698
    7MOL   C424 5836   4.304   2.733   3.447  0.1606  0.1508  0.0934
    7MOL   C425 5837   4.393   2.730   3.341  0.1442 -0.1417  0.2040
    7MOL   C426 5838   4.348   2.690   3.212  0.2048  0.3247 -0.6170
    7MOL   C427 5839   4.212   2.641   3.207 -0.8119  0.3892  0.7215
    7MOL   C428 5840   4.130   2.628   3.320 -0.0365  0.0910  0.1469
    7MOL   C429 5841   4.434   2.697   3.091 -0.0438 -0.3780 -0.4008
    7MOL   C430 5842   4.417   2.614   2.973 -0.7786  0.6922  0.0939
    7MOL   C431 5843   4.508   2.622   2.862  0.6562  0.4354  0.0125
    7MOL   C432 5844   4.614   2.713   2.866 -0.0542  0.6298 -0.0927
    7MOL   C433 5845   4.622   2.796   2.975  0.4544 -0.7029 -0.5611
    7MOL   C434 5846   4.539   2.792   3.088 -0.4158 -1.0394 -0.7415
    7MOL   O435 5847   4.718   2.714   2.777  0.3973 -0.8970  0.2300
    7MOL   H436 5848   3.721   2.890   2.948  0.0455 -0.6490  0.8130
    7MOL   H437 5849   3.703   2.847   3.195 -1.3067 -0.5463  0.5840
    7MOL   H438 5850   3.527   3.226   3.259  0.3554  0.3628 -0.1437
    7MOL   H439 5851   3.557   3.274   2.994  0.4655 -1.0427 -1.2706
    7MOL   H440 5852   3.892   3.069   3.426 -0.3439 -0.4963 -1.5827
    7MOL   H441 5853   4.092   2.916   3.469  0.7447  0.2276  3.0670
    7MOL   H442 5854   3.847   2.605   3.603  0.7873  0.9665  1.4495
    7MOL   H443 5855   3.648   2.718   3.527 -0.5650  0.6904 -0.1817
    7MOL   H444 5856   4.342   2.778   3.537  0.7808  1.4094 -0.7880
    7MOL   H445 5857   4.494   2.766   3.352 -0.2337  1.0423 -0.0907
    7MOL   H446 5858   4.164   2.613   3.114  0.8695  1.2470 -0.4300
    7MOL   H447 5859   4.031   2.587   3.310  0.2722 -0.8048  0.7053
    7MOL   H448 5860   4.342   2.536   2.978 -1.2239  1.1696  1.0801
    7MOL   H449 5861   4.498   2.547   2.784 -0.1935 -0.2981  0.8153
    7MOL   H450 5862   4.706   2.860   3.001 -0.2529  0.7142 -1.7051
    7MOL   H451 5863   4.556   2.867   3.163  1.2526 -1.0555 -1.0757
    7MOL   C452 5864   4.703   2.812   2.678  0.0617 -0.3581 -0.1495
    7MOL   C453 5865   4.613   2.776   2.577  0.7558  0.2861 -0.1377
    7MOL   C454 5866   4.601   2.869   2.476 -0.5148 -0.2183  0.4233
    7MOL   C455 5867   4.659   2.996   2.487 -0.1658 -0.1701  0.1425
    7MOL   C456 5868   4.745   3.036   2.595 -0.3776  0.3001  0.5190
    7MOL   C457 5869   4.773   2.931   2.687 -0.6349 -0.2409  0.2331
    7MOL   S458 5870   4.624   3.103   2.348  0.3403 -0.0556  0.1281
    7MOL   O459 5871   4.592   3.014   2.233 -0.4748 -0.1263 -0.1451
    7MOL   O460 5872   4.742   3.193   2.337 -0.0392 -0.2653 -0.0857
    7MOL   C461 5873   4.479   3.193   2.383 -0.1127 -0.1807  0.4499
    7MOL   C462 5874   4.464   3.328   2.345 -1.2929 -0.6325  0.0424
    7MOL   C463 5875   4.342   3.393   2.390 -0.6880 -0.4069 -0.4505
    7MOL   C464 5876   4.243   3.326   2.462 -0.2990  0.0120  0.2477
    7MOL   C465 5877   4.257   3.192   2.486 -0.0060  0.0307  0.8767
    7MOL   C466 5878   4.376   3.127   2.451  0.9061  0.6962  0.0767
    7MOL   O467 5879   4.133   3.394   2.509  0.7082  0.5222  0.0690
    7MOL   C468 5880   4.110   3.384   2.646 -0.6603 -0.4021  0.5767
    7MOL   C469 5881   3.978   3.341   2.688 -0.1263 -0.7796 -0.3977
    7MOL   C470 5882   3.954   3.310   2.821 -0.1234 -0.2485 -0.5018
    7MOL   C471 5883   4.060   3.309   2.915  0.0894  0.1136 -0.5439
    7MOL   C472 5884   4.186   3.339   2.875  0.4512  0.8346  0.9784
    7MOL   C473 5885   4.216   3.373   2.742  0.4648  0.9614 -0.4976
    7MOL   C474 5886   4.037   3.294   3.062 -0.5862 -0.4133  0.3182
    7MOL   C475 5887   3.923   3.341   3.127  0.2759 -0.2194  0.1588
    7MOL   C476 5888   3.907   3.340   3.266 -0.3451  0.1315 -0.4155
    7MOL   C477 5889   4.013   3.295   3.348  0.3850 -0.3700  0.5121
    7MOL   C478 5890   4.131   3.255   3.291  0.1660 -0.1804 -0.2152
    7MOL   C479 5891   4.145   3.267   3.153 -0.0062  0.5064  0.2980
    7MOL   O480 5892   4.007   3.294   3.485 -0.0525  0.3490 -0.4594
    7MOL   H481 5893   4.563   2.680   2.576  1.6492 -0.1725 -1.5710
    7MOL   H482 5894   4.537   2.845   2.391  1.2478 -0.4980 -0.8636
    7MOL   H483 5895   4.785   3.137   2.603  3.3159 -1.1147  0.9093
    7MOL   H484 5896   4.830   2.961   2.774 -1.4129  0.1404  0.6157
    7MOL   H485 5897   4.537   3.390   2.295 -0.9161 -0.0897  1.2264
    7MOL   H486 5898   4.317   3.495   2.361 -0.1673 -0.0287  0.4126
    7MOL   H487 5899   4.174   3.144   2.537 -0.9152 -1.3008 -1.7725
    7MOL   H488 5900   4.394   3.021   2.459  2.1777  1.0077  1.6572
    7MOL   H489 5901   3.896   3.342   2.618 -0.8555  1.4953  0.4510
    7MOL   H490 5902   3.854   3.291   2.858  0.0010  1.6372  0.8567
    7MOL   H491 5903   4.270   3.342   2.943  1.2804 -4.0073  0.3562
    7MOL   H492 5904   4.320   3.397   2.724  0.2402  0.7909 -2.0932
    7MOL   H493 5905   3.837   3.376   3.072 -0.9487  0.4991  2.4612
    7MOL   H494 5906   3.810   3.363   3.308  0.2966  0.6912  0.7832
    7MOL   H495 5907   4.213   3.227   3.354 -1.5216  0.0282  2.1436
    7MOL   H496 5908   4.245   3.238   3.123 -0.5162  0.3543 -1.2885
    7MOL   C497 5909   3.908   3.357   3.558  0.0710  0.0753 -0.1200
    7MOL   C498 5910   3.816   3.280   3.631  0.5323  0.3164 -0.3584
    7MOL   C499 5911   3.705   3.343   3.689 -0.1520 -0.1070  0.1144
    7MOL   C500 5912   3.677   3.483   3.667 -0.4078 -0.9451 -0.0310
    7MOL   C501 5913   3.768   3.564   3.595  0.0845  0.0094 -0.1043
    7MOL   C502 5914   3.885   3.499   3.547 -0.3639  0.8541 -0.3671
    7MOL   S503 5915   3.521   3.553   3.715 -0.0979 -0.0328  0.0415
    7MOL   O504 5916   3.544   3.687   3.768  0.2299  0.1981  0.2972
    7MOL   O505 5917   3.458   3.452   3.800  0.6952 -0.2626  0.0976
    7MOL   C506 5918   3.429   3.568   3.563  0.1709 -0.1946 -0.0107
    7MOL   C507 5919   3.392   3.448   3.504  0.2764 -0.5919 -0.2329
    7MOL   C508 5920   3.350   3.453   3.374 -0.2361  0.2518 -0.2345
    7MOL   C509 5921   3.326   3.575   3.306  0.0751  0.2887  0.7176
    7MOL   C510 5922   3.343   3.696   3.371 -0.5647 -0.3271 -1.2146
    7MOL   C511 5923   3.406   3.696   3.494  0.3165 -0.1141  0.3881
    7MOL   O512 5924   3.292   3.578   3.172 -0.3244 -0.4617 -1.2170
    7MOL   C513 5925   3.179   3.517   3.133 -0.1394 -0.7895 -0.3827
    7MOL   C514 5926   3.184   3.408   3.041 -0.1289 -0.1704 -0.2742
    7MOL   C515 5927   3.067   3.350   2.991 -0.7429 -0.2393  0.2643
    7MOL   C516 5928   2.940   3.391   3.046 -0.2659  0.4827  0.4031
    7MOL   C517 5929   2.936   3.499   3.142 -0.3580 -0.2321  0.0429
    7MOL   C518 5930   3.054   3.559   3.187  0.1672 -0.3338  0.9168
    7MOL   C519 5931   2.815   3.323   3.004  0.3046 -0.1764  0.7016
    7MOL   C520 5932   2.685   3.370   3.033 -0.1004 -0.3421 -1.3614
    7MOL   C521 5933   2.567   3.296   2.993 -0.4095  0.1307 -0.4818
    7MOL   C522 5934   2.578   3.181   2.917 -0.0230  0.7803  0.3101
    7MOL   C523 5935   2.706   3.138   2.881  0.3842 -0.1606  0.1026
    7MOL   C524 5936   2.818   3.202   2.925 -0.7142 -0.0260  0.3964
    7MOL   O525 5937   2.468   3.110   2.869  0.2403 -0.4619  0.2872
    7MOL   H526 5938   3.833   3.174   3.642  0.9299  0.5651  1.5625
    7MOL   H527 5939   3.622   3.283   3.724  1.2495 -1.2465  1.4975
    7MOL   H528 5940   3.758   3.669   3.574  0.5123  0.4454  1.7315
    7MOL   H529 5941   3.963   3.552   3.495  0.4430 -0.1801 -0.2327
    7MOL   H530 5942   3.408   3.352   3.550 -2.3708 -0.0326  1.9892
    7MOL   H531 5943   3.335   3.359   3.323 -0.4834 -0.6056  1.3756
    7MOL   H532 5944   3.327   3.789   3.319 -1.0065 -0.8750 -2.0811
    7MOL   H533 5945   3.439   3.791   3.533  2.4421 -1.5989  2.3488
    7MOL   H534 5946   3.279   3.368   3.009 -0.5104 -0.8675 -0.5567
    7MOL   H535 5947   3.077   3.273   2.915  2.1756  1.4973 -1.1860
    7MOL   H536 5948   2.847   3.511   3.201 -0.8591 -1.1019 -0.5036
    7MOL   H537 5949   3.056   3.648   3.248  2.6065  0.8992 -0.8693
    7MOL   H538 5950   2.669   3.468   3.076  0.5662 -0.9305  0.2621
    7MOL   H539 5951   2.472   3.341   3.015 -1.6229 -2.2229 -0.6791
    7MOL   H540 5952   2.722   3.054   2.815  0.0395 -0.3474  0.2532
    7MOL   H541 5953   2.909   3.159   2.884  1.4385  2.5192  2.3126
    7MOL   C542 5954   2.439   2.985   2.927 -0.8524 -0.5050 -0.2393
    7MOL   C543 5955   2.406   2.874   2.846 -0.8876 -0.0225  0.2763
    7MOL   C544 5956   2.367   2.750   2.909  0.4112  0.3231 -0.1165
    7MOL   C545 5957   2.370   2.743   3.050 -0.4936  0.0261  0.3652
    7MOL   C546 5958   2.397   2.856   3.133 -0.1082  0.9821 -0.2743
    7MOL   C547 5959   2.441   2.977   3.067 -0.5325 -0.2006 -0.0616
    7MOL   S548 5960   2.320   2.590   3.135  0.3861 -0.0731 -0.3640
    7MOL   O549 5961   2.200   2.528   3.075  0.1077  0.3422 -0.2775
    7MOL   O550 5962   2.320   2.624   3.278  0.1790  0.5851 -0.6568
    7MOL   C551 5963   2.454   2.480   3.102  0.2095  0.0749  0.5833
    7MOL   C552 5964   2.446   2.369   3.009 -0.1356 -0.0207  0.5550
    7MOL   C553 5965   2.556   2.291   2.989  0.7479  0.5057  1.0308
    7MOL   C554 5966   2.678   2.324   3.046  0.0396 -0.3722 -0.1047
    7MOL   C555 5967   2.686   2.422   3.150  0.5464 -0.2040  0.3205
    7MOL   C556 5968   2.569   2.496   3.177 -0.0164 -0.6293  0.0308
    7MOL   O557 5969   2.788   2.249   3.016 -0.0186 -0.3015 -0.5905
    7MOL   C558 5970   2.890   2.309   2.952 -0.3782  0.0805 -0.2241
    7MOL   C559 5971   2.902   2.312   2.811 -0.6192 -0.2727  0.2560
    7MOL   C560 5972   3.008   2.370   2.741 -0.1638  0.0172  0.0093
    7MOL   C561 5973   3.118   2.420   2.815  0.0662 -0.9884  0.7536
    7MOL   C562 5974   3.109   2.412   2.954  0.4245 -0.0651  0.2469
    7MOL   C563 5975   3.001   2.356   3.025  0.0937 -0.0310 -0.7128
    7MOL   C564 5976   3.231   2.488   2.750  0.3412  0.3938 -0.7756
    7MOL   C565 5977   3.207   2.583   2.653 -0.1882 -0.2177 -0.5798
    7MOL   C566 5978   3.308   2.637   2.578  0.1006  0.1365  1.1323
    7MOL   C567 5979   3.440   2.601   2.603 -0.4171 -0.3508 -0.0783
    7MOL   C568 5980   3.473   2.518   2.712 -0.4954  0.1593  0.0543
    7MOL   C569 5981   3.367   2.446   2.776  0.9463 -0.1663  0.4214
    7MOL   O570 5982   3.546   2.642   2.516  0.0359  0.0940  0.1427
    7MOL   H571 5983   2.404   2.875   2.738 -0.0200  0.5383  0.2608
    7MOL   H572 5984   2.345   2.660   2.854 -0.0264 -1.3370  2.6427
    7MOL   H573 5985   2.389   2.851   3.240 -2.2100  0.2881 -0.4306
    7MOL   H574 5986   2.468   3.057   3.133 -1.2004  0.8704 -1.0680
    7MOL   H575 5987   2.357   2.346   2.952 -0.4032  0.0145  0.9581
    7MOL   H576 5988   2.548   2.204   2.926 -1.0337  0.6146  1.0766
    7MOL   H577 5989   2.774   2.436   3.213  0.1641  0.0266  0.8100
    7MOL   H578 5990   2.578   2.583   3.241 -3.1689  0.4055 -0.8457
    7MOL   H579 5991   2.819   2.278   2.749 -0.9349  1.9344 -0.5897
    7MOL   H580 5992   3.009   2.372   2.633 -1.8327  0.6200 -0.0103
    7MOL   H581 5993   3.192   2.454   3.010 -0.6415  1.7282  0.5395
    7MOL   H582 5994   3.013   2.360   3.133  0.6856 -0.7858 -0.7494
    7MOL   H583 5995   3.105   2.613   2.634 -1.1838 -2.1913  1.4364
    7MOL   H584 5996   3.285   2.703   2.496  0.0225  0.2361  1.2347
    7MOL   H585 5997   3.578   2.499   2.734  0.0493  0.8450 -1.8740
    7MOL   H586 5998   3.382   2.363   2.844  0.8027 -1.3672 -0.9895
    7MOL   C587 5999   3.614   2.545   2.446  0.1465 -0.5958  0.1249
    7MOL   C588 6000   3.540   2.438   2.389  0.8467 -0.3652  0.1962
    7MOL   C589 6001   3.617   2.330   2.329 -0.0133 -0.1365 -0.1228
    7MOL   C590 6002   3.758   2.337   2.329  0.5495 -0.3627  0.6482
    7MOL   C591 6003   3.827   2.442   2.391 -0.5668 -0.3722  0.3713
    7MOL   C592 6004   3.755   2.546   2.454  0.6349 -0.4444  0.8465
    7MOL   S593 6005   3.846   2.196   2.265  0.2659 -0.0584  0.1917
    7MOL   O594 6006   3.991   2.209   2.287 -0.2307  0.5052 -0.2742
    7MOL   O595 6007   3.793   2.171   2.129  0.0233 -0.1720  0.2574
    7MOL   C596 6008   3.793   2.043   2.356 -0.3821 -0.5866  0.1888
    7MOL   C597 6009   3.726   2.050   2.476 -0.0627  0.0677  0.2354
    7MOL   C598 6010   3.719   1.937   2.557 -0.0452  0.0866  0.1533
    7MOL   C599 6011   3.754   1.809   2.509  0.0242 -0.2313 -0.6943
    7MOL   C600 6012   3.800   1.799   2.377  0.0369  0.1954  0.1817
    7MOL   C601 6013   3.834   1.915   2.304 -0.5354 -0.2711  0.0148
    7MOL   O602 6014   3.737   1.700   2.589 -0.1254  0.3628  0.0660
    7MOL   C603 6015   3.622   1.694   2.664 -0.4402 -0.3478  0.8335
    7MOL   C604 6016   3.497   1.678   2.596  0.6724 -0.0729 -0.7270
    7MOL   C605 6017   3.379   1.655   2.670  0.1817 -0.5716 -0.0766
    7MOL   C606 6018   3.386   1.658   2.811  0.1018 -0.1223 -0.0689
    7MOL   C607 6019   3.512   1.661   2.874  0.2048 -0.4183 -0.1996
    7MOL   C608 6020   3.627   1.688   2.804 -0.2315 -0.3018 -0.5155
    7MOL   C609 6021   3.260   1.652   2.890  0.3066 -0.4845  0.9073
    7MOL   C610 6022   3.246   1.727   3.007 -0.3812 -0.4265 -0.0216
    7MOL   C611 6023   3.123   1.738   3.076  0.2792 -0.4515 -0.0638
    7MOL   C612 6024   3.016   1.666   3.022 -0.6348 -0.9755  0.8175
    7MOL   C613 6025   3.033   1.576   2.913 -0.1056  0.4078  0.2816
    7MOL   C614 6026   3.157   1.570   2.845  0.2745  0.3933 -0.2459
    7MOL   O615 6027   2.894   1.681   3.086  0.1423  0.5808 -0.4391
    7MOL   H616 6028   3.434   2.428   2.374  0.7053  0.9457  0.2709
    7MOL   H617 6029   3.570   2.242   2.287  1.6505 -0.5465 -1.1632
    7MOL   H618 6030   3.934   2.432   2.403 -0.5073 -0.5277 -0.2678
    7MOL   H619 6031   3.804   2.627   2.507  1.2591  0.2277 -0.7328
    7MOL   H620 6032   3.700   2.144   2.523  1.5675 -0.3875  2.0620
    7MOL   H621 6033   3.681   1.953   2.657 -1.5493 -0.2030 -0.3471
    7MOL   H622 6034   3.835   1.701   2.347  1.2191  0.6764 -0.0521
    7MOL   H623 6035   3.893   1.906   2.214  1.0563  1.6682  0.8285
    7MOL   H624 6036   3.491   1.694   2.489  0.2791  1.3268 -0.5039
    7MOL   H625 6037   3.285   1.649   2.617  1.6150  1.4503 -2.9535
    7MOL   H626 6038   3.519   1.650   2.982  2.1786 -2.6422 -0.5087
    7MOL   H627 6039   3.718   1.691   2.863 -0.6759 -3.2409  0.3998
    7MOL   H628 6040   3.339   1.775   3.036 -0.4804 -0.9505  1.1990
    7MOL   H629 6041   3.117   1.804   3.161 -0.6872 -0.2412 -0.2927
    7MOL   H630 6042   2.949   1.526   2.867  0.7083  1.0387 -1.9632
    7MOL   H631 6043   3.173   1.514   2.754 -0.3816 -0.0724 -0.0798
    7MOL   C632 6044   2.802   1.747   3.009  0.0314  0.5256  0.4835
    7MOL   C633 6045   2.685   1.683   2.963 -0.1630  0.2689  0.0775
    7MOL   C634 6046   2.602   1.752   2.870 -0.5034  0.6401  0.0406
    7MOL   C635 6047   2.639   1.882   2.832 -0.4105  0.3873  0.5888
    7MOL   C636 6048   2.747   1.944   2.885  0.7663 -0.2820  0.3930
    7MOL   C637 6049   2.833   1.878   2.971 -0.2350 -0.4403 -0.2051
    7MOL   S638 6050   2.548   1.975   2.710 -0.5165 -0.1114  0.2723
    7MOL   O639 6051   2.561   1.900   2.582  0.0501 -0.2604 -0.5965
    7MOL   O640 6052   2.593   2.113   2.711 -0.6943 -0.5077 -0.4809
    7MOL   C641 6053   2.373   1.974   2.743  0.0281 -0.3389  0.0477
    7MOL   C642 6054   2.304   1.857   2.726 -0.0326  0.2221  0.5381
    7MOL   C643 6055   2.166   1.853   2.748  0.1196  0.7555  0.6095
    7MOL   C644 6056   2.101   1.961   2.795  0.2531  0.6862  0.1869
    7MOL   C645 6057   2.171   2.081   2.823 -0.6127  0.0347 -0.8797
    7MOL   C646 6058   2.307   2.087   2.799 -0.1335  0.4700  0.1432
    7MOL   O647 6059   1.962   1.962   2.792 -0.0047  0.0920 -0.0840
    7MOL   C648 6060   1.900   1.897   2.893 -0.2430  0.3268  0.2094
    7MOL   C649 6061   1.887   1.950   3.023  0.2576  0.2305  0.0492
    7MOL   C650 6062   1.818   1.882   3.126  0.5426 -0.3988  0.7899
    7MOL   C651 6063   1.756   1.753   3.099  0.5300  0.9509  0.6870
    7MOL   C652 6064   1.778   1.694   2.966  0.3621  0.3885 -0.3295
    7MOL   C653 6065   1.850   1.767   2.866  0.4462  0.1454 -0.8985
    7MOL   C654 6066   1.674   1.680   3.193  0.5513 -0.0096 -0.5141
    7MOL   C655 6067   1.573   1.741   3.276 -0.1056 -0.0878 -0.7030
    7MOL   C656 6068   1.493   1.656   3.359  0.4061  0.2304  0.1448
    7MOL   C657 6069   1.521   1.521   3.374  0.5477  0.3138  0.2107
    7MOL   C658 6070   1.631   1.461   3.298 -0.0765  0.1228 -0.5010
    7MOL   C659 6071   1.697   1.537   3.204  0.4825  0.2181 -0.1322
    7MOL   O660 6072   1.446   1.437   3.451 -0.3632  0.3689 -0.5574
    7MOL   H661 6073   2.665   1.582   2.994 -1.0765 -0.1342 -1.7422
    7MOL   H662 6074   2.531   1.692   2.815 -0.4584  0.4446  0.1958
    7MOL   H663 6075   2.763   2.048   2.859  1.2706 -0.3051  0.6036
    7MOL   H664 6076   2.911   1.935   3.019 -0.6712 -0.7599  0.8871
    7MOL   H665 6077   2.346   1.769   2.679  0.3444 -0.0958  1.4408
    7MOL   H666 6078   2.110   1.763   2.729 -0.3768  0.8233  1.7246
    7MOL   H667 6079   2.126   2.176   2.848 -0.6745 -0.1699 -0.1935
    7MOL   H668 6080   2.364   2.178   2.811  2.0281 -0.7303 -0.7126
    7MOL   H669 6081   1.933   2.045   3.044 -1.2117  0.9388  0.0966
    7MOL   H670 6082   1.817   1.927   3.224 -0.9832  0.5990  0.3492
    7MOL   H671 6083   1.745   1.592   2.953  0.3433  0.3155  0.2719
    7MOL   H672 6084   1.868   1.716   2.772  1.8112 -0.9220 -0.0814
    7MOL   H673 6085   1.554   1.847   3.273 -0.4998  0.0608  3.5189
    7MOL   H674 6086   1.414   1.699   3.418 -0.6826 -1.7263  0.1640
    7MOL   H675 6087   1.651   1.358   3.321 -0.7524  0.3084  1.0558
    7MOL   H676 6088   1.767   1.488   3.137 -0.4247 -0.4727 -0.5950
    7MOL   C677 6089   1.311   1.461   3.474  0.3031  0.6755 -0.1047
    7MOL   C678 6090   1.215   1.444   3.370  0.0094  0.2841 -0.9450
    7MOL   C679 6091   1.080   1.501   3.380 -0.2446 -0.4091 -0.0789
    7MOL   C680 6092   1.045   1.555   3.505  0.5898 -0.1250 -0.6124
    7MOL   C681 6093   1.135   1.555   3.615  0.0051  0.5756  0.3032
    7MOL   C682 6094   1.270   1.516   3.602  0.4365 -0.2958  0.2560
    7MOL   S683 6095   0.873   1.616   3.537  0.0813 -0.0209 -0.2209
    7MOL   O684 6096   0.832   1.572   3.673  0.4604  0.0451  0.0987
    7MOL   O685 6097   0.792   1.579   3.414  0.2119 -0.4191  0.0971
    7MOL   C686 6098   0.879   1.793   3.532 -1.1154 -0.2632 -0.7395
    7MOL   C687 6099   0.955   1.858   3.625  0.4047 -0.1114  0.1801
    7MOL   C688 6100   0.968   1.994   3.612 -0.1178 -0.8236  0.4282
    7MOL   C689 6101   0.912   2.066   3.505  0.2774 -0.3712  0.1676
    7MOL   C690 6102   0.833   1.996   3.412 -0.0132  0.9679  0.2839
    7MOL   C691 6103   0.818   1.857   3.424 -0.4055 -0.0705  0.3729
    7MOL   O692 6104   0.935   2.205   3.494 -0.2841  0.5494 -0.0709
    7MOL   C693 6105   1.059   2.246   3.456  0.2939  0.1877  0.1008
    7MOL   C694 6106   1.140   2.177   3.365  1.0308 -0.3493 -0.1863
    7MOL   C695 6107   1.267   2.229   3.331 -0.1473  0.1154  0.4045
    7MOL   C696 6108   1.316   2.346   3.385  0.2685 -0.1083  0.6237
    7MOL   C697 6109   1.238   2.415   3.478 -0.0381 -0.1695  0.4059
    7MOL   C698 6110   1.103   2.369   3.512  0.0283  0.5180  0.4250
    7MOL   C699 6111   1.442   2.411   3.330 -0.2584  0.9410 -0.3424
    7MOL   C700 6112   1.431   2.538   3.279  0.0385  0.2482 -0.2646
    7MOL   C701 6113   1.547   2.612   3.234 -0.4502 -0.5824 -0.2359
    7MOL   C702 6114   1.672   2.549   3.233  0.2301 -0.4118  0.2688
    7MOL   C703 6115   1.684   2.414   3.267  0.0180 -0.0389 -0.2038
    7MOL   C704 6116   1.568   2.349   3.319  0.1927  0.7621 -0.0020
    7MOL   O705 6117   1.787   2.617   3.206  0.0219 -0.1432 -0.0853
    7MOL   H706 6118   1.243   1.397   3.277  2.8089 -1.7264  0.8425
    7MOL   H707 6119   1.018   1.506   3.292  1.9333  0.8748 -1.5948
    7MOL   H708 6120   1.099   1.576   3.715  1.6117  0.6956  0.8762
    7MOL   H709 6121   1.337   1.528   3.686  0.8138 -0.4085 -0.0259
    7MOL   H710 6122   1.000   1.802   3.705 -1.3808 -1.2529  0.4085
    7MOL   H711 6123   1.039   2.045   3.675  0.7361  1.8379 -2.5340
    7MOL   H712 6124   0.800   2.045   3.322  0.4985 -0.0032 -0.4390
    7MOL   H713 6125   0.764   1.798   3.350  1.4210 -1.7428  0.3211
    7MOL   H714 6126   1.108   2.086   3.317 -0.0641  0.5018 -1.0910
    7MOL   H715 6127   1.326   2.176   3.258  1.5826 -0.4383  2.1842
    7MOL   H716 6128   1.267   2.505   3.530 -1.2479  0.2515  0.3583
    7MOL   H717 6129   1.052   2.409   3.599  2.6679  0.0945  2.2459
    7MOL   H718 6130   1.339   2.594   3.288 -0.3059 -0.1791 -1.1160
    7MOL   H719 6131   1.530   2.711   3.195  1.3206 -0.0868  0.1833
    7MOL   H720 6132   1.780   2.366   3.266  0.0617  0.0082  1.1149
    7MOL   H721 6133   1.580   2.249   3.358  0.0274  1.4396  1.8380
    7MOL   C722 6134   1.838   2.684   3.310 -0.0922 -0.2495 -0.1908
    7MOL   C723 6135   1.976   2.694   3.329 -0.2176  0.1682  0.2249
    7MOL   C724 6136   2.030   2.785   3.418  0.8253 -0.4324 -0.4020
    7MOL   C725 6137   1.942   2.872   3.498 -0.0494 -0.0707  0.0827
    7MOL   C726 6138   1.805   2.846   3.495 -0.4240 -0.1346  0.4251
    7MOL   C727 6139   1.749   2.762   3.399 -0.3719 -0.6538 -0.8393
    7MOL   S728 6140   2.006   3.005   3.605  0.4011 -0.4247 -0.2262
    7MOL   O729 6141   1.925   3.130   3.580  0.3960  0.2554  0.4288
    7MOL   O730 6142   2.149   3.027   3.568 -0.4544 -0.2051  0.0840
    7MOL   C731 6143   1.997   2.956   3.776  0.9808 -0.3894 -0.5311
    7MOL   C732 6144   1.985   3.054   3.872  0.3413 -0.3054 -0.7338
    7MOL   C733 6145   1.988   3.026   4.012  0.0199  0.5698  0.5451
    7MOL   C734 6146   1.998   2.891   4.056  0.6151 -0.2043  1.2003
    7MOL   C735 6147   2.011   2.790   3.957 -0.6927  0.0874 -0.1031
    7MOL   C736 6148   2.011   2.822   3.816  0.0513 -0.5848  0.3783
    7MOL   O737 6149   2.012   2.868   4.193  0.1311  0.0253  0.1417
    7MOL   C738 6150   1.973   2.745   4.247  0.5287 -0.5659  0.1046
    7MOL   C739 6151   2.076   2.671   4.313 -0.4079  0.2928  0.1577
    7MOL   C740 6152   2.039   2.562   4.392  0.4888 -0.8473 -0.0591
    7MOL   C741 6153   1.902   2.521   4.393  0.5623 -0.4743  0.0061
    7MOL   C742 6154   1.808   2.579   4.304  0.0652  0.5125  0.1864
    7MOL   C743 6155   1.839   2.697   4.233  0.0821 -0.1746 -0.0871
    7MOL   C744 6156   1.867   2.417   4.487 -0.2674 -0.1982 -0.0762
    7MOL   C745 6157   1.889   2.438   4.626 -0.0500  0.3514 -0.1079
    7MOL   C746 6158   1.851   2.338   4.714  0.3528 -0.0331  1.0850
    7MOL   C747 6159   1.807   2.211   4.671 -0.2335 -0.0390 -0.5879
    7MOL   C748 6160   1.782   2.196   4.533 -0.2288  0.6414 -0.0011
    7MOL   C749 6161   1.814   2.298   4.443 -0.0613 -0.4752  0.6730
    7MOL   O750 6162   1.774   2.117   4.762 -0.5760 -0.1690  0.0505
    7MOL   H751 6163   2.038   2.636   3.263 -1.9983 -3.8329  1.8602
    7MOL   H752 6164   2.138   2.789   3.426  0.7853 -1.9209  1.0831
    7MOL   H753 6165   1.743   2.901   3.563  0.1247  1.2681 -0.1723
    7MOL   H754 6166   1.644   2.771   3.379 -0.4490 -0.7580 -0.4858
    7MOL   H755 6167   1.966   3.153   3.833  0.2926  0.8598  2.1501
    7MOL   H756 6168   1.956   3.102   4.082 -0.8258  0.4113  0.3334
    7MOL   H757 6169   2.040   2.689   3.982  0.2971 -0.0255 -1.6419
    7MOL   H758 6170   2.031   2.748   3.740 -0.0602  2.2415 -2.5386
    7MOL   H759 6171   2.178   2.707   4.309 -0.7339  1.3053  0.6617
    7MOL   H760 6172   2.109   2.524   4.465  1.9099 -0.9064 -1.4413
    7MOL   H761 6173   1.703   2.554   4.304  0.4140 -1.0452  1.2138
    7MOL   H762 6174   1.769   2.754   4.173 -0.7372 -0.2963  0.7372
    7MOL   H763 6175   1.929   2.535   4.648 -1.6761  1.2326 -0.9603
    7MOL   H764 6176   1.855   2.371   4.817 -1.2120  1.2102  0.7624
    7MOL   H765 6177   1.735   2.107   4.493 -1.8755  1.8898 -0.9091
    7MOL   H766 6178   1.784   2.271   4.343 -2.1009 -2.6805  1.8161
    7MOL   C767 6179   1.850   2.092   4.874  0.0537  0.0340  0.9879
    7MOL   C768 6180   1.970   2.020   4.857 -0.3225 -0.1447  0.4850
    7MOL   C769 6181   2.045   1.995   4.973 -0.2020 -0.7821  0.0416
    7MOL   C770 6182   2.003   2.028   5.107 -0.5329 -0.1136  0.6189
    7MOL   C771 6183   1.875   2.093   5.119  0.5510  0.2585  0.3441
    7MOL   C772 6184   1.805   2.129   5.001  0.7461  0.1571 -0.1616
    7MOL   S773 6185   2.092   1.991   5.254 -0.1802 -0.2408  0.3529
    7MOL   O774 6186   2.233   1.985   5.218 -0.1786 -0.4331 -0.7638
    7MOL   O775 6187   2.025   1.873   5.308 -0.3114 -0.2920 -0.8184
    7MOL   C776 6188   2.060   2.134   5.352  0.8635 -1.2074  0.7961
    7MOL   C777 6189   1.989   2.131   5.472 -0.2262 -0.3992  0.6913
    7MOL   C778 6190   1.955   2.252   5.536 -0.0676 -0.2016 -0.0252
    7MOL   C779 6191   1.984   2.374   5.474  0.5790  0.1149  0.0649
    7MOL   C780 6192   2.066   2.378   5.358 -0.2226  0.3067  0.0852
    7MOL   C781 6193   2.098   2.256   5.295 -0.3744  0.0183 -0.5129
    7MOL   O782 6194   1.926   2.487   5.528 -0.3454  0.3573  0.3093
    7MOL   C783 6195   2.003   2.562   5.612  0.3825  0.5046  0.9620
    7MOL   C784 6196   1.942   2.637   5.718  0.2118  0.5654  1.5547
    7MOL   C785 6197   2.014   2.726   5.799  0.3147 -0.2180  0.0430
    7MOL   C786 6198   2.149   2.755   5.775 -0.8307  0.6414  0.0784
    7MOL   C787 6199   2.209   2.687   5.662 -0.4126  1.0167 -0.1318
    7MOL   C788 6200   2.140   2.583   5.588  0.1145 -0.6330 -0.2344
    7MOL   C789 6201   2.227   2.839   5.862 -0.2683 -0.1055 -0.0258
    7MOL   C790 6202   2.340   2.900   5.808 -0.7079  0.1592  0.1192
    7MOL   C791 6203   2.441   2.947   5.901  0.0453  0.3255  0.2187
    7MOL   C792 6204   2.423   2.954   6.039 -0.0380  0.1866  0.0122
    7MOL   C793 6205   2.306   2.900   6.090 -0.5027 -0.3880 -0.0565
    7MOL   C794 6206   2.211   2.845   6.002 -0.1098  0.2623  0.2357
    7MOL   O795 6207   2.523   3.013   6.117 -0.2250  0.0905 -0.2992
    7MOL   H796 6208   2.005   1.980   4.763 -1.7635  0.2843 -0.2582
    7MOL   H797 6209   2.139   1.946   4.952  1.4897  1.3674  2.2674
    7MOL   H798 6210   1.832   2.112   5.216  0.0270 -0.5438  0.2686
    7MOL   H799 6211   1.710   2.177   5.019  0.0212 -0.5027 -2.1685
    7MOL   H800 6212   1.960   2.036   5.515  1.8865 -1.2312  0.3086
    7MOL   H801 6213   1.887   2.256   5.620  0.0437  1.2735  0.0094
    7MOL   H802 6214   2.093   2.471   5.311 -1.5349 -0.5041 -2.3879
    7MOL   H803 6215   2.167   2.260   5.212  0.0341 -0.0761 -0.1775
    7MOL   H804 6216   1.835   2.618   5.721  0.0538  1.5904  3.0554
    7MOL   H805 6217   1.965   2.783   5.876 -0.5822  0.9790 -1.4006
    7MOL   H806 6218   2.316   2.685   5.650 -0.3721 -1.8940  0.2042
    7MOL   H807 6219   2.202   2.529   5.517  1.0870 -1.4919  1.2428
    7MOL   H808 6220   2.360   2.895   5.701  1.1145 -3.0504  0.5256
    7MOL   H809 6221   2.535   2.985   5.864  0.4372 -0.6004  0.2380
    7MOL   H810 6222   2.282   2.908   6.195 -2.4456  0.7562 -0.5688
    7MOL   H811 6223   2.128   2.785   6.037 -1.7660  1.6348 -1.2095
    7MOL   C812 6224   2.553   2.957   6.236  0.5400 -0.4195 -0.2135
    7MOL   C813 6225   2.600   2.820   6.235 -0.2447  0.9121  0.1716
    7MOL   C814 6226   2.595   2.746   6.350 -0.7110  0.3761 -0.8346
    7MOL   C815 6227   2.558   2.804   6.473  0.0395 -0.0654 -0.2522
    7MOL   C816 6228   2.526   2.941   6.482  0.2456 -0.4881 -0.2445
    7MOL   C817 6229   2.520   3.015   6.358  0.8630  0.1556 -0.2787
    7MOL   S818 6230   2.536   2.697   6.616 -0.0893 -0.0519 -0.1052
    7MOL   O819 6231   2.437   2.606   6.564  0.0585 -0.0154  0.1904
    7MOL   O820 6232   2.505   2.788   6.726 -0.1595  0.0081 -0.2617
    7MOL   C821 6233   2.697   2.609   6.648  0.3008 -0.5700 -0.0074
    7MOL   C822 6234   2.729   2.479   6.604  0.0225  0.1812  0.3580
    7MOL   C823 6235   2.853   2.424   6.631 -0.4169 -0.2320 -0.4832
    7MOL   C824 6236   2.954   2.499   6.697  0.6929  0.4891  0.2867
    7MOL   C825 6237   2.922   2.626   6.739  0.0725 -0.7011  0.2339
    7MOL   C826 6238   2.794   2.676   6.715  0.5397  0.1531  0.6000
    7MOL   O827 6239   3.086   2.455   6.722  0.0827 -0.3801  0.4104
    7MOL   C828 6240   3.130   2.436   6.852  0.1614  0.5531  0.2287
    7MOL   C829 6241   3.093   2.321   6.919  0.5338 -0.3420 -0.3169
    7MOL   C830 6242   3.140   2.300   7.051 -0.2641 -0.4118  0.3292
    7MOL   C831 6243   3.214   2.403   7.120  0.2956 -0.8215  0.2606
    7MOL   C832 6244   3.254   2.514   7.044 -0.2933  0.7494 -0.1177
    7MOL   C833 6245   3.216   2.528   6.915 -0.0420  0.2152  0.0857
    7MOL   C834 6246   3.250   2.387   7.259  0.1146  0.4883 -0.1598
    7MOL   C835 6247   3.147   2.347   7.350  0.2039  0.6485  0.0179
    7MOL   C836 6248   3.168   2.330   7.490 -0.0522 -0.5003 -0.4615
    7MOL   C837 6249   3.301   2.357   7.536  0.0383  0.1608  0.4376
    7MOL   C838 6250   3.403   2.396   7.449  0.0008  0.0243 -0.3822
    7MOL   C839 6251   3.380   2.420   7.314 -0.4712 -0.0519  0.1563
    7MOL   O840 6252   3.323   2.342   7.674  0.1003  0.1921 -0.2084
    7MOL   H841 6253   2.627   2.779   6.139 -1.2943  2.0496 -0.6171
    7MOL   H842 6254   2.619   2.641   6.354  0.2228  0.6086 -0.4328
    7MOL   H843 6255   2.493   2.987   6.574 -0.8396  0.8267 -1.2817
    7MOL   H844 6256   2.494   3.119   6.354  0.6048  0.0034 -4.3532
    7MOL   H845 6257   2.655   2.417   6.555 -0.0839  0.8418 -0.3525
    7MOL   H846 6258   2.879   2.323   6.600  3.1154  0.1309  1.0108
    7MOL   H847 6259   2.989   2.678   6.806 -0.2379 -0.6415  0.5022
    7MOL   H848 6260   2.775   2.774   6.756 -0.2542  0.1520  0.2462
    7MOL   H849 6261   3.015   2.268   6.866 -0.1078 -2.1255  2.3453
    7MOL   H850 6262   3.104   2.211   7.102  1.1784 -2.5964 -2.3421
    7MOL   H851 6263   3.321   2.590   7.082  1.0684  1.2690 -3.3965
    7MOL   H852 6264   3.238   2.618   6.860 -0.2096 -1.5569 -3.0349
    7MOL   H853 6265   3.046   2.328   7.317  0.4688 -0.2988 -0.2880
    7MOL   H854 6266   3.096   2.284   7.556  0.4820 -0.4380  0.1754
    7MOL   H855 6267   3.500   2.406   7.496 -1.4506 -0.4747  2.8100
    7MOL   H856 6268   3.453   2.468   7.250 -0.8505  0.3826  0.0451
    7MOL   C857 6269   3.366   2.223   7.727  1.0950  0.3964  0.2156
    7MOL   C858 6270   3.337   2.200   7.859  0.1111 -0.2622 -0.0422
    7MOL   C859 6271   3.357   2.073   7.918 -0.4126 -0.3443 -0.1219
    7MOL   C860 6272   3.417   1.970   7.841 -0.0490 -0.6337  0.9017
    7MOL   C861 6273   3.445   1.994   7.705 -0.8115  0.3051 -0.5181
    7MOL   C862 6274   3.421   2.119   7.651 -0.2561 -0.0357 -0.3269
    7MOL   S863 6275   3.461   1.816   7.918 -0.3172 -0.3663  0.3573
    7MOL   O864 6276   3.474   1.846   8.065  0.1026 -0.0233  0.6089
    7MOL   O865 6277   3.576   1.772   7.835 -0.5624  0.3033 -0.4988
    7MOL   C866 6278   3.324   1.698   7.895  0.6544 -0.2219  0.6466
    7MOL   C867 6279   3.210   1.738   7.827  0.2067  0.2712 -0.1106
    7MOL   C868 6280   3.109   1.645   7.787 -0.8869  0.0096 -0.6326
    7MOL   C869 6281   3.111   1.516   7.838  0.0992  0.4642 -0.4841
    7MOL   C870 6282   3.221   1.477   7.920 -0.3193  1.0749 -0.1782
    7MOL   C871 6283   3.333   1.565   7.942 -0.1939  0.3301  0.4766
    7MOL   O872 6284   3.011   1.428   7.808  0.2573 -0.4124 -0.2754
    7MOL   C873 6285   2.900   1.428   7.889  0.0617  0.6274 -0.0744
    7MOL   C874 6286   2.883   1.327   7.987 -0.5644  0.1505  0.5042
    7MOL   C875 6287   2.768   1.330   8.061  0.6516  0.8638 -0.6415
    7MOL   C876 6288   2.670   1.429   8.062  0.9640  0.0983  0.3816
    7MOL   C877 6289   2.682   1.534   7.965  0.6053  0.5309 -0.2506
    7MOL   C878 6290   2.800   1.535   7.883  0.1291  0.2035 -0.0353
    7MOL   C879 6291   2.555   1.422   8.148  0.1253  0.2294 -0.1013
    7MOL   C880 6292   2.561   1.353   8.268 -0.2804  0.7319  0.7958
    7MOL   C881 6293   2.455   1.336   8.354 -0.2062 -0.2738  0.6239
    7MOL   C882 6294   2.340   1.410   8.318  1.0539  0.3251  0.4274
    7MOL   C883 6295   2.330   1.480   8.197 -0.0750  0.6374  0.7103
    7MOL   C884 6296   2.435   1.478   8.108  0.2566  0.4420  1.0256
    7MOL   O885 6297   2.233   1.412   0.031  0.4057  0.1611  0.2224
    7MOL   H886 6298   3.298   2.283   7.915 -2.2063 -1.5567  0.3055
    7MOL   H887 6299   3.347   2.066   8.025  0.9665 -2.2103 -0.0856
    7MOL   H888 6300   3.492   1.913   7.652  3.3314  1.3011  1.3691
    7MOL   H889 6301   3.443   2.136   7.547 -2.9823 -1.1578 -1.1460
    7MOL   H890 6302   3.214   1.837   7.785  2.4241  0.5051  0.5687
    7MOL   H891 6303   3.038   1.665   7.707 -1.8389 -2.3623 -0.4235
    7MOL   H892 6304   3.227   1.376   7.957 -1.6056  0.8482 -0.5760
    7MOL   H893 6305   3.423   1.547   8.000  1.4438  1.0591 -1.7265
    7MOL   H894 6306   2.955   1.248   7.997 -0.1799  0.5032  0.5472
    7MOL   H895 6307   2.755   1.242   8.122 -0.5253  0.9632 -0.7292
    7MOL   H896 6308   2.604   1.608   7.952 -0.4218 -0.4960  0.0473
    7MOL   H897 6309   2.810   1.613   7.810  0.0019  1.1982  1.0058
    7MOL   H898 6310   2.655   1.309   8.300 -0.1490  0.9882  0.7625
    7MOL   H899 6311   2.467   1.283   0.082  0.3704 -1.2797 -0.0050
    7MOL   H900 6312   2.240   1.537   8.181 -0.3730  0.3511  1.3578
    7MOL   H901 6313   2.428   1.535   8.016  0.3442 -2.4149 -0.7965
    7MOL   H902 6314   2.182   1.491   0.034  0.2785  0.0694  0.5253
    8MOL     C1 6315   1.628   2.521   3.644 -0.3930 -0.1681 -0.1796
    8MOL     C2 6316   1.739   2.431   3.654 -0.8045 -0.3188 -0.1863
    8MOL     C3 6317   1.736   2.341   3.753  0.4131 -0.2722 -0.2934
    8MOL     C4 6318   1.625   2.327   3.844 -0.1519  0.0818 -0.0644
    8MOL     C5 6319   1.520   2.416   3.837  0.2955  0.4122  0.3905
    8MOL     C6 6320   1.515   2.510   3.730 -0.0454  0.1873 -0.8450
    8MOL     S7 6321   1.628   2.202   3.964 -0.0121  0.1010 -0.2300
    8MOL     O8 6322   1.587   2.073   3.907 -0.3953  0.8605 -0.2278
    8MOL     O9 6323   1.556   2.250   4.084  0.1453  0.1548  0.2182
    8MOL    C10 6324   1.805   2.185   4.003 -0.5997  0.4853  0.4933
    8MOL    C11 6325   1.866   2.297   4.066  0.0027  0.0689 -0.3839
    8MOL    C12 6326   2.000   2.283   4.110 -0.1052 -0.2250  0.4492
    8MOL    C13 6327   2.069   2.161   4.101  0.7379 -0.7084  0.7260
    8MOL    C14 6328   2.005   2.053   4.043 -0.0889  0.4671  0.2262
    8MOL    C15 6329   1.872   2.061   3.996 -0.4411 -1.1307 -0.1996
    8MOL    O16 6330   2.186   2.146   4.160 -0.3946  0.8645  0.2001
    8MOL    C17 6331   2.204   2.175   4.293  0.0869 -0.2381 -0.1341
    8MOL    C18 6332   2.329   2.226   4.326 -0.4019  0.3048  0.1187
    8MOL    C19 6333   2.363   2.240   4.468 -0.2003  0.6744 -0.2158
    8MOL    C20 6334   2.274   2.205   4.569 -0.4141 -0.0970 -0.3612
    8MOL    C21 6335   2.147   2.157   4.533 -0.1733  0.5940 -0.1300
    8MOL    C22 6336   2.108   2.141   4.395 -0.1040  0.4964  0.1294
    8MOL    C23 6337   2.310   2.221   4.710 -0.1436  0.1255 -0.6621
    8MOL    C24 6338   2.442   2.201   4.750 -0.4884 -0.5139  0.0594
    8MOL    C25 6339   2.485   2.232   4.884 -0.1271 -0.3541  0.6963
    8MOL    C26 6340   2.388   2.276   4.975 -0.7225  0.6982  0.9111
    8MOL    C27 6341   2.254   2.293   4.942 -0.0170 -0.2561  0.0265
    8MOL    C28 6342   2.219   2.261   4.811  0.1914 -0.0597 -0.1077
    8MOL    O29 6343   2.435   2.308   5.102  0.2048 -0.1715  0.7009
    8MOL    H30 6344   1.823   2.440   3.587  0.5473  1.2681  1.6892
    8MOL    H31 6345   1.813   2.266   3.763  0.2939 -0.7546 -2.8035
    8MOL    H32 6346   1.439   2.409   3.907 -0.4831  1.7535 -0.3379
    8MOL    H33 6347   1.437   2.584   3.722 -0.7796 -0.1451  2.6295
    8MOL    H34 6348   1.804   2.385   4.069 -0.6556 -0.4084  0.2284
    8MOL    H35 6349   2.054   2.368   4.148 -1.4834  1.2296 -0.7903
    8MOL    H36 6350   2.063   1.966   4.015 -2.0306 -0.5622 -0.7136
    8MOL    H37 6351   1.822   1.977   3.951 -0.3952  0.3886 -3.2103
    8MOL    H38 6352   2.396   2.267   4.252 -2.0773  0.5908 -1.2451
    8MOL    H39 6353   2.458   2.288   4.488  1.3273 -1.9495 -0.8049
    8MOL    H40 6354   2.072   2.127   4.604 -0.9077  0.1027 -1.1032
    8MOL    H41 6355   2.013   2.104   4.361  0.7447 -0.3536 -1.3641
    8MOL    H42 6356   2.519   2.176   4.679 -2.9275 -1.8674 -2.1733
    8MOL    H43 6357   2.588   2.219   4.912  0.2771 -1.9960 -1.4774
    8MOL    H44 6358   2.187   2.342   5.012 -0.6542  0.0236 -0.7735
    8MOL    H45 6359   2.116   2.275   4.784 -0.5229 -0.2953  2.3701
    8MOL    H46 6360   1.632   2.606   3.577  1.7799  0.0226  0.1557
    8MOL    C47 6361   2.437   2.440   5.136 -0.1020 -0.3754 -0.4303
    8MOL    C48 6362   2.409   2.466   5.273 -0.3103  0.8532  0.6439
    8MOL    C49 6363   2.425   2.596   5.331  1.3355  0.4988 -0.0048
    8MOL    C50 6364   2.465   2.701   5.246  0.6403  0.2204 -0.0814
    8MOL    C51 6365   2.494   2.677   5.111  0.2329 -0.3888  1.2109
    8MOL    C52 6366   2.477   2.546   5.053 -0.7106  0.1153  0.3975
    8MOL    S53 6367   2.483   2.864   5.311  0.2800  0.1665 -0.5854
    8MOL    O54 6368   2.600   2.928   5.248 -0.1608  0.0877  0.1122
    8MOL    O55 6369   2.487   2.856   5.460  0.2379 -0.1937 -0.5558
    8MOL    C56 6370   2.332   2.954   5.262 -0.2464  0.4678 -0.4118
    8MOL    C57 6371   2.204   2.908   5.312 -0.4301 -0.0275  0.4818
    8MOL    C58 6372   2.093   2.985   5.275 -0.0109  0.1673 -0.0648
    8MOL    C59 6373   2.110   3.097   5.192  0.5400  0.0080  0.3694
    8MOL    C60 6374   2.238   3.135   5.146  0.1446  0.3160  0.1462
    8MOL    C61 6375   2.346   3.063   5.181 -0.4644  0.0521 -0.4623
    8MOL    O62 6376   2.001   3.171   5.164  0.5234 -0.7017 -0.6259
    8MOL    C63 6377   1.980   3.278   5.250  0.6365  0.1820  0.7540
    8MOL    C64 6378   1.931   3.404   5.198  0.1162  0.7734 -0.3809
    8MOL    C65 6379   1.918   3.519   5.275 -0.0442  0.1369  0.4331
    8MOL    C66 6380   1.946   3.511   5.408  0.0098 -0.0703 -1.0654
    8MOL    C67 6381   1.988   3.393   5.469  0.1859 -0.1170  0.3154
    8MOL    C68 6382   2.013   3.282   5.385  1.1693  0.3778 -0.5786
    8MOL    C69 6383   1.936   3.631   5.494  0.6143  0.2074 -0.3177
    8MOL    C70 6384   2.052   3.703   5.539 -0.2691  0.2751  0.6397
    8MOL    C71 6385   2.040   3.815   5.619  0.1692 -0.4228 -0.3190
    8MOL    C72 6386   1.918   3.861   5.666  0.1523 -0.3981  0.1048
    8MOL    C73 6387   1.805   3.790   5.632  0.2393  0.1226 -0.3269
    8MOL    C74 6388   1.814   3.682   5.543 -0.5156 -0.2676  0.1978
    8MOL    O75 6389   1.905   3.971   5.747 -0.1400  0.2167 -0.7210
    8MOL    H76 6390   2.375   2.379   5.327 -0.7852 -0.0255 -1.0492
    8MOL    H77 6391   2.401   2.621   5.433  3.8401  1.3097  0.4217
    8MOL    H78 6392   2.527   2.760   5.050  0.5274 -1.3220  0.0838
    8MOL    H79 6393   2.502   2.524   4.950  0.7657  1.1935  0.5137
    8MOL    H80 6394   2.188   2.822   5.374 -0.1673 -0.2404  0.2520
    8MOL    H81 6395   1.996   2.961   5.315  0.4427 -0.1029  0.8915
    8MOL    H82 6396   2.261   3.210   5.072  2.9975  1.3494  2.0154
    8MOL    H83 6397   2.444   3.077   5.138 -1.0082  2.7151 -0.8936
    8MOL    H84 6398   1.897   3.399   5.095 -0.6756 -1.0520 -0.0461
    8MOL    H85 6399   1.877   3.611   5.235 -0.9166 -0.1950  0.5573
    8MOL    H86 6400   2.006   3.387   5.575  2.1727  1.2577  0.0808
    8MOL    H87 6401   2.061   3.196   5.430 -0.0243  0.0626  0.1350
    8MOL    H88 6402   2.145   3.666   5.499 -0.5048 -2.5217  2.5469
    8MOL    H89 6403   2.128   3.875   5.636  0.8690 -1.1482 -1.3630
    8MOL    H90 6404   1.704   3.821   5.654 -0.8170 -1.8264 -2.1991
    8MOL    H91 6405   1.724   3.632   5.509  0.2311  0.0199 -2.2484
    8MOL    C92 6406   1.946   4.092   5.707  0.5360  0.9196 -0.3841
    8MOL    C93 6407   1.873   4.166   5.616  0.0230 -0.8125  0.0687
    8MOL    C94 6408   1.897   4.299   5.583 -0.5136 -0.7167 -0.5341
    8MOL    C95 6409   1.997   4.365   5.659  0.3667 -0.4660 -1.0568
    8MOL    C96 6410   2.076   4.291   5.751 -0.1036  0.5589  0.1486
    8MOL    C97 6411   2.051   4.157   5.774  0.3419 -0.3822  0.3172
    8MOL    S98 6412   2.017   4.542   5.641  0.4154 -0.1303  0.1045
    8MOL    O99 6413   1.967   4.600   5.765 -0.3305  0.0599  0.6213
    8MOL   O100 6414   1.963   4.573   5.507 -0.0908  0.2433  0.7547
    8MOL   C101 6415   2.199   4.567   5.622 -0.6221  0.3885 -0.0078
    8MOL   C102 6416   2.274   4.486   5.535 -0.3610 -0.1513  0.3880
    8MOL   C103 6417   2.410   4.507   5.513 -0.5295 -0.2688  0.6287
    8MOL   C104 6418   2.464   4.617   5.585 -0.1380  0.6181 -0.3878
    8MOL   C105 6419   2.392   4.699   5.680  0.4984 -0.4205 -0.1866
    8MOL   C106 6420   2.255   4.676   5.688 -0.5370  0.9103 -0.1457
    8MOL   O107 6421   2.596   4.640   5.569 -0.4361 -1.1144 -0.2376
    8MOL   C108 6422   2.625   4.746   5.489 -0.0019  0.5793 -0.3099
    8MOL   C109 6423   2.569   4.761   5.358  0.1705 -0.2648 -0.4911
    8MOL   C110 6424   2.617   4.860   5.274 -0.3958 -0.0163  0.3965
    8MOL   C111 6425   2.721   4.946   5.309 -0.3361 -1.3133 -0.1515
    8MOL   C112 6426   2.767   4.937   5.444  0.9220 -0.2366  0.3673
    8MOL   C113 6427   2.725   4.834   5.534  0.0784 -0.4452  0.7573
    8MOL   C114 6428   2.790   5.053   5.223  0.1509 -0.1176  0.0217
    8MOL   C115 6429   2.845   5.174   5.280  0.4167  0.4414  0.1289
    8MOL   C116 6430   2.901   5.269   5.189 -0.4894 -0.0331  0.2034
    8MOL   C117 6431   2.916   5.245   5.054  0.6160 -0.0874 -0.6807
    8MOL   C118 6432   2.866   5.126   4.999 -0.0568  0.2986  1.0242
    8MOL   C119 6433   2.798   5.041   5.083  0.0501  0.7320 -0.4377
    8MOL   O120 6434   2.990   5.323   4.966 -0.1437 -0.0315 -0.4350
    8MOL   H121 6435   1.785   4.118   5.575 -2.5046  1.8822  2.1642
    8MOL   H122 6436   1.850   4.343   5.496  1.2024  0.6448 -0.7938
    8MOL   H123 6437   2.155   4.341   5.805 -1.5430  1.7760  1.1801
    8MOL   H124 6438   2.112   4.099   5.841  1.2659  1.8237  1.4350
    8MOL   H125 6439   2.229   4.400   5.487  0.1829 -1.7049  2.5752
    8MOL   H126 6440   2.459   4.440   5.444 -0.4835 -0.9556  1.3264
    8MOL   H127 6441   2.445   4.779   5.729 -0.7873  0.5716 -0.3716
    8MOL   H128 6442   2.209   4.732   5.768 -1.3733  0.1245 -0.0655
    8MOL   H129 6443   2.486   4.699   5.329 -1.2198  1.3381  0.0108
    8MOL   H130 6444   2.589   4.874   5.171 -1.0297 -0.3523  0.5203
    8MOL   H131 6445   2.848   4.996   5.485 -0.7913  2.4454 -0.0068
    8MOL   H132 6446   2.763   4.816   5.633 -1.9548 -3.7248  1.0192
    8MOL   H133 6447   2.838   5.199   5.385  0.3951 -2.2706  0.7912
    8MOL   H134 6448   2.946   5.359   5.228  1.0443 -0.2568 -1.0272
    8MOL   H135 6449   2.875   5.100   4.895 -0.5437 -0.7490  1.2380
    8MOL   H136 6450   2.746   4.961   5.032 -0.9726  0.2478  1.3152
    8MOL   C137 6451   3.131   5.326   4.984 -0.2678  0.5655  0.1186
    8MOL   C138 6452   3.213   5.210   4.981 -0.1265  0.1674 -0.1253
    8MOL   C139 6453   3.353   5.225   5.001  0.6440 -0.1235  0.0715
    8MOL   C140 6454   3.410   5.351   5.030  0.0770  0.2624  1.2117
    8MOL   C141 6455   3.326   5.459   5.040 -0.4468  0.1830 -0.1475
    8MOL   C142 6456   3.187   5.447   5.016 -0.5388 -0.1642 -0.1800
    8MOL   S143 6457   3.585   5.365   5.061  0.1590 -0.2692 -0.5029
    8MOL   O144 6458   3.627   5.233   5.118  0.0128  0.3808 -0.3530
    8MOL   O145 6459   3.609   5.489   5.138  0.0243  0.5188  0.1191
    8MOL   C146 6460   3.658   5.387   4.904 -0.5326  0.1368 -0.6787
    8MOL   C147 6461   3.627   5.506   4.828  0.3267  0.4454 -1.3031
    8MOL   C148 6462   3.694   5.533   4.713 -0.5328  0.3918 -0.0487
    8MOL   C149 6463   3.793   5.440   4.668 -0.3659  0.1941 -0.7615
    8MOL   C150 6464   3.823   5.320   4.745  0.8957 -0.1589 -0.7449
    8MOL   C151 6465   3.758   5.297   4.867  0.3159 -0.9658 -0.4622
    8MOL   O152 6466   3.861   5.454   4.548 -0.1281  0.0275  0.9286
    8MOL   C153 6467   3.845   5.554   4.459 -1.0922 -0.6857 -1.0464
    8MOL   C154 6468   3.716   5.567   4.399  0.4469  0.3290  0.3373
    8MOL   C155 6469   3.687   5.682   4.325  0.5576  0.2618 -0.5566
    8MOL   C156 6470   3.774   5.793   4.321 -0.5759 -0.0622 -0.0794
    8MOL   C157 6471   3.905   5.778   4.374 -0.0083  0.1714 -0.2303
    8MOL   C158 6472   3.940   5.659   4.443  0.3916 -0.1930 -0.5580
    8MOL   C159 6473   3.732   5.922   4.263 -0.1327  0.0073 -0.4711
    8MOL   C160 6474   3.605   5.942   4.206 -0.1352  0.0375  0.3063
    8MOL   C161 6475   3.559   6.074   4.164 -0.5945  0.1826  0.1121
    8MOL   C162 6476   3.642   6.181   4.178 -0.1965  0.1526  0.4388
    8MOL   C163 6477   3.771   6.163   4.224 -0.2387  0.0470 -0.0163
    8MOL   C164 6478   3.812   6.036   4.266  0.0713 -0.5531 -0.4386
    8MOL   O165 6479   3.596   6.306   4.148  0.0663 -0.6421  0.0873
    8MOL   H166 6480   3.174   5.119   4.938  1.5809  0.5576 -2.6183
    8MOL   H167 6481   3.411   5.134   4.994 -0.7757 -1.0181 -0.2975
    8MOL   H168 6482   3.373   5.553   5.064 -1.3071  0.4875  0.3919
    8MOL   H169 6483   3.124   5.535   5.025  1.9042  1.4852  1.2655
    8MOL   H170 6484   3.554   5.577   4.864  0.4852 -0.5606  1.1497
    8MOL   H171 6485   3.677   5.630   4.669 -2.0668  1.3222  2.5327
    8MOL   H172 6486   3.898   5.248   4.716  0.4150 -1.0581  0.2333
    8MOL   H173 6487   3.787   5.223   4.940 -1.0809 -0.8263  0.2399
    8MOL   H174 6488   3.643   5.489   4.416  1.2192 -0.5876 -0.4822
    8MOL   H175 6489   3.584   5.689   4.293  0.4932 -1.2967 -0.7142
    8MOL   H176 6490   3.982   5.854   4.377  0.8792 -0.6948 -0.8665
    8MOL   H177 6491   4.038   5.665   4.488  0.8081  2.3736 -1.7140
    8MOL   H178 6492   3.533   5.861   4.207 -2.9332  2.4282 -1.5285
    8MOL   H179 6493   3.463   6.073   4.113 -0.7736  1.6476  0.4026
    8MOL   H180 6494   3.827   6.251   4.250 -0.3528  0.1394 -0.0844
    8MOL   H181 6495   3.908   6.021   4.314 -1.6976 -1.8336  2.8352
    8MOL   C182 6496   3.501   6.357   4.236 -0.7862 -0.1516  0.7949
    8MOL   C183 6497   3.540   6.409   4.362  0.5263 -0.2013  0.2103
    8MOL   C184 6498   3.440   6.451   4.449 -0.3217  0.5312  0.4937
    8MOL   C185 6499   3.306   6.444   4.416 -0.1142 -0.1216  0.4205
    8MOL   C186 6500   3.270   6.390   4.293  0.0092 -1.1779 -0.4058
    8MOL   C187 6501   3.368   6.348   4.207 -0.6346  0.0489 -0.1266
    8MOL   S188 6502   3.173   6.465   4.537 -0.1604 -0.1138 -0.2082
    8MOL   O189 6503   3.055   6.514   4.469 -0.3097 -0.0947 -0.0537
    8MOL   O190 6504   3.229   6.531   4.655 -0.6070 -0.0584  0.1747
    8MOL   C191 6505   3.129   6.294   4.587 -0.0755 -0.5398 -0.5057
    8MOL   C192 6506   3.024   6.232   4.530  0.2266  1.0646  0.7781
    8MOL   C193 6507   2.993   6.095   4.553  0.5258  0.1576  0.2539
    8MOL   C194 6508   3.078   6.023   4.640  0.6186  0.4413  0.5030
    8MOL   C195 6509   3.191   6.084   4.695 -0.4490 -0.3877 -0.1595
    8MOL   C196 6510   3.222   6.219   4.660 -0.1403 -0.1673 -0.4562
    8MOL   O197 6511   3.059   5.890   4.659  0.7943 -0.1108 -0.0907
    8MOL   C198 6512   2.945   5.854   4.727 -0.0496  0.6513 -0.2545
    8MOL   C199 6513   2.943   5.862   4.866  0.3619  0.1864  0.0569
    8MOL   C200 6514   2.841   5.805   4.944  0.0745  0.6999  0.1212
    8MOL   C201 6515   2.745   5.730   4.878  0.7746  0.5661 -0.2737
    8MOL   C202 6516   2.736   5.724   4.738  0.1209  0.3249 -0.2410
    8MOL   C203 6517   2.839   5.791   4.656 -0.1774  0.1245 -0.0620
    8MOL   C204 6518   2.644   5.661   4.958 -0.5302 -0.0580 -0.6140
    8MOL   C205 6519   2.502   5.684   4.940  0.7262  0.0205 -0.1926
    8MOL   C206 6520   2.406   5.605   5.014 -0.0632  0.5792  0.4268
    8MOL   C207 6521   2.448   5.517   5.119  0.6172 -0.0732  0.1779
    8MOL   C208 6522   2.589   5.495   5.133 -0.2141 -0.1923 -0.0553
    8MOL   C209 6523   2.682   5.563   5.054 -0.3627  0.1155  0.3636
    8MOL   O210 6524   2.356   5.464   5.211  0.6119  0.7841 -0.6713
    8MOL   H211 6525   3.644   6.410   4.392  1.2002  0.2267 -2.0352
    8MOL   H212 6526   3.463   6.472   4.553 -0.0260  0.4992  0.4359
    8MOL   H213 6527   3.166   6.396   4.262 -0.1180  1.3284  0.4088
    8MOL   H214 6528   3.329   6.311   4.113 -0.4853 -1.2657  0.3183
    8MOL   H215 6529   2.949   6.286   4.474 -0.2377  1.0768  1.4181
    8MOL   H216 6530   2.905   6.054   4.506  0.0229  1.4732  0.0162
    8MOL   H217 6531   3.255   6.025   4.759  0.0597  1.5404  1.1722
    8MOL   H218 6532   3.311   6.261   4.704  0.9097 -0.8564 -1.8720
    8MOL   H219 6533   3.032   5.899   4.914 -0.3354 -0.4466  1.8821
    8MOL   H220 6534   2.851   5.806   5.052  1.5422  1.0399 -0.0080
    8MOL   H221 6535   2.658   5.667   4.688 -1.2386 -0.9044  3.0824
    8MOL   H222 6536   2.841   5.780   4.549 -0.3318  0.5040 -0.1054
    8MOL   H223 6537   2.469   5.747   4.859 -1.9106  0.9008  1.5103
    8MOL   H224 6538   2.302   5.617   4.988 -0.2876  0.5285  1.3147
    8MOL   H225 6539   2.625   5.431   5.212  0.5205 -1.4406 -1.3733
    8MOL   H226 6540   2.785   5.536   5.068 -0.2094  0.9861  0.9283
    8MOL   C227 6541   2.223   5.501   5.211 -0.2702  0.4529  0.0765
    8MOL   C228 6542   2.120   5.413   5.173 -0.1084 -0.4304  0.9116
    8MOL   C229 6543   1.992   5.466   5.161 -0.0484 -0.6068 -0.1913
    8MOL   C230 6544   1.958   5.602   5.181  0.3956 -0.0323  0.4900
    8MOL   C231 6545   2.056   5.688   5.233 -0.4267 -0.2770  0.3300
    8MOL   C232 6546   2.188   5.636   5.241  0.4627 -0.1555  0.1562
    8MOL   S233 6547   1.801   5.676   5.152  0.1655 -0.0117 -0.1938
    8MOL   O234 6548   1.755   5.624   5.023 -0.0332  0.4824  0.0041
    8MOL   O235 6549   1.820   5.818   5.173  0.6724  0.3296 -0.1841
    8MOL   C236 6550   1.687   5.635   5.281  0.1796 -1.1482  0.1475
    8MOL   C237 6551   1.729   5.599   5.414 -0.1205  0.5265 -0.2939
    8MOL   C238 6552   1.644   5.546   5.509  0.6667 -0.1977 -0.2761
    8MOL   C239 6553   1.505   5.541   5.479 -0.2898 -0.1994  0.2534
    8MOL   C240 6554   1.456   5.587   5.355  0.0822 -0.2566 -0.9771
    8MOL   C241 6555   1.549   5.633   5.255  0.4391  0.1539  0.3223
    8MOL   O242 6556   1.420   5.493   5.573  0.4710  0.7524  0.7898
    8MOL   C243 6557   1.363   5.372   5.544 -0.5760 -0.6541  0.9861
    8MOL   C244 6558   1.436   5.257   5.506 -0.2937 -0.5897  0.0002
    8MOL   C245 6559   1.374   5.134   5.465  0.0055  0.0263 -0.6290
    8MOL   C246 6560   1.231   5.127   5.456 -0.2330 -0.4709 -0.5279
    8MOL   C247 6561   1.162   5.236   5.500  0.4531  0.6883 -0.0874
    8MOL   C248 6562   1.227   5.358   5.553 -0.0727  0.3459 -0.4096
    8MOL   C249 6563   1.174   5.002   5.413  0.3430 -0.2958  0.2247
    8MOL   C250 6564   1.208   4.876   5.468 -0.4191 -1.0954  0.5154
    8MOL   C251 6565   1.155   4.753   5.414  0.6681 -0.4008 -0.0285
    8MOL   C252 6566   1.051   4.756   5.320 -0.9591  0.0003  0.5365
    8MOL   C253 6567   1.006   4.883   5.269  0.3035  0.6505 -0.3116
    8MOL   C254 6568   1.073   5.001   5.313 -0.5815  0.0722 -0.0480
    8MOL   O255 6569   0.993   4.637   5.299  0.1516  0.6264  0.1013
    8MOL   H256 6570   2.141   5.309   5.156  1.2138 -0.2203  1.1660
    8MOL   H257 6571   1.921   5.395   5.121 -1.9820  0.3431  1.4539
    8MOL   H258 6572   2.034   5.791   5.253  0.4475 -0.5709  2.9682
    8MOL   H259 6573   2.269   5.703   5.263  0.8383 -0.3106 -0.7268
    8MOL   H260 6574   1.834   5.607   5.435 -0.3964 -0.1660  1.4971
    8MOL   H261 6575   1.665   5.518   5.611  0.3592 -2.9450 -0.9269
    8MOL   H262 6576   1.350   5.580   5.335 -0.6778  2.5590  1.7619
    8MOL   H263 6577   1.518   5.670   5.158  0.6587 -0.6027 -0.0384
    8MOL   H264 6578   1.544   5.252   5.502 -0.0167  4.4527 -2.5631
    8MOL   H265 6579   1.436   5.051   5.433  1.0268  0.2498  0.7093
    8MOL   H266 6580   1.054   5.237   5.507  0.4429  1.2171 -0.2817
    8MOL   H267 6581   1.164   5.438   5.589  0.4427  0.7381 -0.3656
    8MOL   H268 6582   1.289   4.870   5.539  0.5099  0.2367 -0.4095
    8MOL   H269 6583   1.186   4.663   5.466  0.8561 -0.8254 -0.8625
    8MOL   H270 6584   0.919   4.895   5.207 -0.1082 -0.3006  0.0834
    8MOL   H271 6585   1.038   5.095   5.274 -0.5272  0.2909  0.4289
    8MOL   C272 6586   0.992   4.583   5.167  0.5514 -0.4732 -0.0144
    8MOL   C273 6587   1.106   4.564   5.091  0.3482 -0.0158  0.2281
    8MOL   C274 6588   1.110   4.486   4.975  0.1354  0.7652 -0.7216
    8MOL   C275 6589   0.986   4.436   4.930 -0.6061 -0.6733  0.3977
    8MOL   C276 6590   0.862   4.477   4.993 -0.1777  0.3172 -0.1957
    8MOL   C277 6591   0.868   4.547   5.115  0.1296  0.1964  0.5531
    8MOL   S278 6592   0.981   4.347   4.777 -0.0204  0.2784  0.0259
    8MOL   O279 6593   1.100   4.264   4.763 -1.1483  0.0226 -0.7262
    8MOL   O280 6594   0.952   4.452   4.678 -0.3914 -0.2520  0.1276
    8MOL   C281 6595   0.846   4.234   4.786  0.7133 -0.0609 -0.2589
    8MOL   C282 6596   0.730   4.273   4.712 -0.2783 -0.1795 -0.3660
    8MOL   C283 6597   0.624   4.187   4.711 -0.2464  0.3856  0.4366
    8MOL   C284 6598   0.626   4.067   4.783  0.3693 -0.3094 -0.1290
    8MOL   C285 6599   0.737   4.035   4.855  0.4549 -1.3110 -0.3407
    8MOL   C286 6600   0.850   4.119   4.861  0.5805 -0.0950 -0.3645
    8MOL   O287 6601   0.519   3.984   4.792 -0.3873 -0.4920  0.4221
    8MOL   C288 6602   0.417   4.026   4.874  0.2428  0.2515  0.2150
    8MOL   C289 6603   0.437   4.045   5.013  0.3829 -0.2805  0.3251
    8MOL   C290 6604   0.336   4.092   5.093  0.1707  0.1534  0.1611
    8MOL   C291 6605   0.207   4.113   5.045  0.3884 -0.4103  0.5175
    8MOL   C292 6606   0.186   4.092   4.904  0.3544 -0.6023  0.6765
    8MOL   C293 6607   0.291   4.044   4.824  0.4691  0.5669  1.1532
    8MOL   C294 6608   0.103   4.169   5.133  0.0926  1.4648 -0.5233
    8MOL   C295 6609   8.337   4.125   5.115 -0.2421  0.1340 -0.2114
    8MOL   C296 6610   8.236   4.172   5.199 -0.4572  1.2406  0.1417
    8MOL   C297 6611   8.268   4.269   5.299  0.2118  0.0460  0.1798
    8MOL   C298 6612   0.034   4.321   5.317  0.0576 -0.5430  0.0320
    8MOL   C299 6613   0.130   4.266   5.234 -0.0914  0.6115 -0.1465
    8MOL   O300 6614   8.173   4.300   5.388  0.1225 -0.0357 -0.4377
    8MOL   H301 6615   1.206   4.591   5.122  0.2412 -0.8283  1.3062
    8MOL   H302 6616   1.203   4.460   4.927  1.0902 -1.4250  2.2331
    8MOL   H303 6617   0.766   4.446   4.956 -1.3239 -0.4625  3.2800
    8MOL   H304 6618   0.780   4.573   5.173  0.0095 -1.2759  1.0594
    8MOL   H305 6619   0.728   4.372   4.668  2.1492  0.4157  0.7380
    8MOL   H306 6620   0.533   4.220   4.663 -0.1634  0.8594  0.6053
    8MOL   H307 6621   0.727   3.941   4.909 -1.3756 -0.5238  0.7105
    8MOL   H308 6622   0.933   4.090   4.924 -2.0752 -2.0782  2.3585
    8MOL   H309 6623   0.535   4.027   5.056  1.1396  0.9278 -0.8435
    8MOL   H310 6624   0.355   4.100   5.199 -1.1282  0.2628  0.3986
    8MOL   H311 6625   0.086   4.096   4.864  0.5235  1.2358  0.3766
    8MOL   H312 6626   0.263   4.014   4.724 -1.9713  1.8177  1.4113
    8MOL   H313 6627   8.309   4.046   5.047  1.3675  0.5263 -1.3775
    8MOL   H314 6628   8.137   4.132   5.184  0.6644 -0.7720 -2.2717
    8MOL   H315 6629   0.059   4.393   5.394 -0.4069 -0.9035  0.5190
    8MOL   H316 6630   0.232   4.301   5.242 -0.6303  2.7131 -1.8907
    8MOL   C317 6631   8.167   4.241   5.511 -0.2357 -0.2835 -0.3366
    8MOL   C318 6632   8.166   4.321   5.621 -0.7187 -0.6127 -0.8308
    8MOL   C319 6633   8.149   4.264   5.753  0.2473  0.2147  0.0504
    8MOL   C320 6634   8.135   4.120   5.765 -0.1405 -0.8165 -0.5140
    8MOL   C321 6635   8.129   4.037   5.651  0.4153 -0.3748  0.3858
    8MOL   C322 6636   8.144   4.101   5.525 -0.4877 -0.2055  0.5406
    8MOL   S323 6637   8.127   4.049   5.935  0.2112  0.2822  0.5332
    8MOL   O324 6638   8.032   3.935   5.940 -0.1654  0.2806 -0.3302
    8MOL   O325 6639   8.111   4.155   6.035 -1.0064 -0.3736 -0.1347
    8MOL   C326 6640   8.294   3.989   5.958 -0.1154 -0.2870 -0.4516
    8MOL   C327 6641   8.324   3.856   5.993  0.4479 -0.4400  0.7994
    8MOL   C328 6642   0.092   3.826   6.022  0.3700  0.6610  0.8746
    8MOL   C329 6643   0.198   3.919   6.022 -0.7320  0.5634  0.0887
    8MOL   C330 6644   0.167   4.058   5.997 -0.2409 -0.4215 -0.3962
    8MOL   C331 6645   0.035   4.079   5.955  0.1693  0.1560 -0.0260
    8MOL   O332 6646   0.325   3.887   6.054 -0.0085 -0.0575 -0.3010
    8MOL   C333 6647   0.362   3.907   6.185 -0.1650  0.2749  0.7609
    8MOL   C334 6648   0.300   3.839   6.286  0.0478  0.3732 -0.1663
    8MOL   C335 6649   0.334   3.856   6.420 -0.3988 -0.4901  0.5164
    8MOL   C336 6650   0.444   3.937   6.455 -0.0745  0.5485  0.4724
    8MOL   C337 6651   0.512   4.001   6.347 -0.5496  0.8710  0.0240
    8MOL   C338 6652   0.470   3.994   6.217  0.7439 -0.0245 -0.1252
    8MOL   C339 6653   0.479   3.951   6.597 -0.0732 -0.0287 -0.2544
    8MOL   C340 6654   0.619   3.957   6.632  0.7981 -0.0878  0.2895
    8MOL   C341 6655   0.667   3.967   6.763 -0.2342 -0.2359  0.1264
    8MOL   C342 6656   0.568   3.965   6.869  0.0584 -0.8256  0.5379
    8MOL   C343 6657   0.429   3.957   6.831 -0.3896 -0.3890 -0.3454
    8MOL   C344 6658   0.383   3.944   6.701 -0.6220 -0.4328 -0.2579
    8MOL   O345 6659   0.607   3.983   7.001 -0.3490  0.5675 -0.0193
    8MOL   H346 6660   8.173   4.428   5.607 -3.8000 -0.3551 -0.6279
    8MOL   H347 6661   8.156   4.331   5.837 -1.8114 -1.2844  1.4704
    8MOL   H348 6662   8.125   3.931   5.672 -1.8048  0.0727  2.5763
    8MOL   H349 6663   8.141   4.037   5.438  1.2633  0.9689 -0.4065
    8MOL   H350 6664   8.246   3.782   6.000 -1.1359  1.3109  1.9979
    8MOL   H351 6665   0.118   3.727   6.058  1.3946  0.3403 -0.7033
    8MOL   H352 6666   0.238   4.137   6.011  0.1733 -0.9158  0.3489
    8MOL   H353 6667   0.011   4.184   5.943 -0.5222 -0.0390 -0.3906
    8MOL   H354 6668   0.230   3.759   6.266  0.1459 -0.2920  1.9521
    8MOL   H355 6669   0.276   3.807   6.496 -1.3855  0.5942  0.4700
    8MOL   H356 6670   0.598   4.064   6.366 -0.3512  0.7075 -0.3363
    8MOL   H357 6671   0.526   4.056   6.149  3.1812 -0.5579  1.3295
    8MOL   H358 6672   0.692   3.934   6.555  1.9658  3.0971  0.3941
    8MOL   H359 6673   0.774   3.976   6.782 -0.0567 -2.0995  0.0465
    8MOL   H360 6674   0.359   3.971   6.912  0.0466 -0.0213 -0.0283
    8MOL   H361 6675   0.279   3.934   6.675 -0.8431 -0.6597  0.7132
    8MOL   C362 6676   0.702   3.891   7.045 -0.5286 -0.5190  0.1917
    8MOL   C363 6677   0.840   3.927   7.069 -0.3567  0.3820 -0.6676
    8MOL   C364 6678   0.928   3.827   7.110  1.1848  0.4967 -0.5294
    8MOL   C365 6679   0.884   3.691   7.126  0.4442  0.2250 -0.4226
    8MOL   C366 6680   0.749   3.658   7.089  0.0286  0.5073  0.2375
    8MOL   C367 6681   0.658   3.758   7.060 -0.0623  0.4423 -0.4558
    8MOL   S368 6682   1.002   3.567   7.152  0.0054 -0.2465 -0.3335
    8MOL   O369 6683   0.931   3.438   7.156  0.2611  0.0410 -0.2393
    8MOL   O370 6684   1.076   3.608   7.272  0.3331 -0.1355 -0.1159
    8MOL   C371 6685   1.108   3.563   7.006  0.0768 -0.4277  0.0281
    8MOL   C372 6686   1.238   3.601   7.017  0.3081 -0.2841  0.1783
    8MOL   C373 6687   1.315   3.613   6.896 -0.2306 -0.6829 -0.4948
    8MOL   C374 6688   1.264   3.579   6.773 -0.6387  0.3576 -0.8756
    8MOL   C375 6689   1.132   3.533   6.760  0.2824  0.4872 -0.4205
    8MOL   C376 6690   1.055   3.530   6.878  0.7623  0.0448 -0.4270
    8MOL   O377 6691   1.351   3.582   6.665  0.0952  0.4334 -0.1271
    8MOL   C378 6692   1.307   3.626   6.542  0.2140  0.3248 -0.3126
    8MOL   C379 6693   1.265   3.529   6.448  0.0416  1.1408  0.2417
    8MOL   C380 6694   1.220   3.576   6.325 -0.1403 -1.2601 -0.1045
    8MOL   C381 6695   1.221   3.714   6.285  0.2528  0.0059  0.4957
    8MOL   C382 6696   1.284   3.804   6.374 -0.2665 -0.5037 -0.1128
    8MOL   C383 6697   1.317   3.762   6.502  0.6436 -0.3713 -0.6529
    8MOL   C384 6698   1.155   3.754   6.158  0.2239 -0.4109 -0.3628
    8MOL   C385 6699   1.034   3.699   6.118 -0.0152  0.0922 -0.2102
    8MOL   C386 6700   0.965   3.744   6.004 -0.3729 -0.1132  0.4496
    8MOL   C387 6701   1.022   3.838   5.913  0.4108  0.0551 -0.3655
    8MOL   C388 6702   1.148   3.889   5.946 -0.7129  0.2140  0.4987
    8MOL   C389 6703   1.209   3.856   6.070  0.3030  0.0473 -0.1095
    8MOL   O390 6704   0.955   3.898   5.807  0.0343  0.3013  0.5154
    8MOL   H391 6705   0.872   4.029   7.061  0.6843  0.1284  0.2381
    8MOL   H392 6706   1.031   3.855   7.125  0.8857  1.0255  0.5784
    8MOL   H393 6707   0.710   3.558   7.098  0.9760  0.2897  2.3835
    8MOL   H394 6708   0.553   3.735   7.055 -0.1863  1.1869 -1.5233
    8MOL   H395 6709   1.275   3.631   7.114 -1.4124  0.1828  0.6937
    8MOL   H396 6710   1.414   3.650   6.915 -0.5473 -0.3204  0.4950
    8MOL   H397 6711   1.087   3.518   6.662 -2.3681 -1.1087  0.9878
    8MOL   H398 6712   0.949   3.511   6.881  0.1852  3.1170 -0.0110
    8MOL   H399 6713   1.247   3.426   6.472  0.0658  1.0297 -0.2159
    8MOL   H400 6714   1.165   3.505   6.265 -3.0704  0.4960  0.4214
    8MOL   H401 6715   1.301   3.910   6.358  2.2199 -0.6716  1.0023
    8MOL   H402 6716   1.365   3.831   6.569 -0.0026 -1.5279  1.0450
    8MOL   H403 6717   0.985   3.627   6.183  0.7109  0.8299  1.1800
    8MOL   H404 6718   0.864   3.709   5.990 -0.2430 -0.5769  0.6696
    8MOL   H405 6719   1.185   3.965   5.878 -1.1904 -1.6771 -1.9645
    8MOL   H406 6720   1.298   3.912   6.095  0.3637 -0.3473  0.5492
    8MOL   C407 6721   0.948   3.817   5.697 -0.4301 -0.7215  0.5769
    8MOL   C408 6722   0.826   3.768   5.653 -0.0688  0.0390  0.7048
    8MOL   C409 6723   0.821   3.676   5.549  0.7652 -0.4961 -0.0616
    8MOL   C410 6724   0.939   3.626   5.487 -0.5311 -0.3582  0.7181
    8MOL   C411 6725   1.060   3.669   5.537 -0.9490  0.0304 -0.3656
    8MOL   C412 6726   1.069   3.769   5.638  0.9165 -0.4131  0.1425
    8MOL   S413 6727   0.929   3.497   5.367  0.0403  0.2037  0.1052
    8MOL   O414 6728   1.037   3.509   5.268 -0.2451  0.1017 -0.4284
    8MOL   O415 6729   0.786   3.479   5.320  0.3626 -0.1416  0.2271
    8MOL   C416 6730   0.963   3.340   5.463  0.3585 -0.7021  0.2656
    8MOL   C417 6731   1.018   3.349   5.600 -0.4239  0.1940  0.9856
    8MOL   C418 6732   1.064   3.230   5.663  0.1884  0.3697  0.0615
    8MOL   C419 6733   1.066   3.108   5.589  0.0205  0.1002 -0.5293
    8MOL   C420 6734   1.028   3.104   5.453 -0.0762 -0.1904  0.5988
    8MOL   C421 6735   0.972   3.219   5.394  0.2902 -0.2876  0.5336
    8MOL   O422 6736   1.096   2.989   5.654 -0.3994 -0.1892 -0.5634
    8MOL   C423 6737   1.002   2.925   5.733 -0.0879 -0.0833 -0.1105
    8MOL   C424 6738   1.049   2.849   5.839 -0.2852 -0.7676  0.2848
    8MOL   C425 6739   0.960   2.795   5.929 -0.4122 -0.2211 -0.9511
    8MOL   C426 6740   0.818   2.815   5.917  0.1045  0.5356 -0.0320
    8MOL   C427 6741   0.771   2.885   5.806  0.3796  0.3934  0.3252
    8MOL   C428 6742   0.864   2.938   5.719 -0.4879  0.4775 -0.3829
    8MOL   C429 6743   0.720   2.765   6.008  0.2837 -0.4037 -0.0067
    8MOL   C430 6744   0.722   2.802   6.147 -0.1207 -0.2049 -0.3519
    8MOL   C431 6745   0.629   2.749   6.239  0.0804 -0.0233  0.8051
    8MOL   C432 6746   0.523   2.669   6.192 -0.3417 -0.0058 -0.2708
    8MOL   C433 6747   0.517   2.637   6.057  0.2425  0.6257 -0.3424
    8MOL   C434 6748   0.611   2.684   5.964  0.0716  0.3891  0.5705
    8MOL   O435 6749   0.429   2.610   6.268 -0.1906 -0.0846  0.1946
    8MOL   H436 6750   0.736   3.810   5.696 -0.1775  1.5184 -0.9250
    8MOL   H437 6751   0.730   3.629   5.515 -1.2988  2.5930  0.9614
    8MOL   H438 6752   1.152   3.623   5.503 -1.7033 -2.3982  0.7924
    8MOL   H439 6753   1.165   3.802   5.676  0.2636  1.8071 -0.0553
    8MOL   H440 6754   1.026   3.440   5.658 -0.2858  1.2510 -0.6588
    8MOL   H441 6755   1.101   3.224   5.764  1.4469  0.2009 -0.4008
    8MOL   H442 6756   1.016   3.009   5.403 -1.1198  0.6923 -0.8427
    8MOL   H443 6757   0.933   3.213   5.293  0.1141  1.3218  0.4914
    8MOL   H444 6758   1.154   2.854   5.860 -0.3083  1.7391  0.0250
    8MOL   H445 6759   0.995   2.735   6.012  1.3042  0.8643 -0.8651
    8MOL   H446 6760   0.667   2.902   5.784  0.4830 -1.7293 -2.0738
    8MOL   H447 6761   0.840   2.996   5.630  1.9973 -0.5323 -1.7823
    8MOL   H448 6762   0.808   2.862   6.174 -0.4981  0.9967 -1.7561
    8MOL   H449 6763   0.622   2.782   6.342 -1.6206  1.6301  0.1801
    8MOL   H450 6764   0.445   2.568   6.015 -2.7993  2.5030  1.5977
    8MOL   H451 6765   0.613   2.658   5.859 -0.4364  0.3573  0.5683
    8MOL   C452 6766   0.433   2.642   6.399 -0.1180 -0.8391 -0.3750
    8MOL   C453 6767   0.524   2.573   6.488 -0.2037 -0.1724  0.0520
    8MOL   C454 6768   0.554   2.632   6.612  0.0751  0.0393  0.3748
    8MOL   C455 6769   0.479   2.740   6.659 -0.0392 -0.0415 -0.6298
    8MOL   C456 6770   0.385   2.807   6.573 -0.3645 -0.4327  0.4244
    8MOL   C457 6771   0.356   2.756   6.446 -0.5853  0.7506  0.6964
    8MOL   S458 6772   0.500   2.815   6.818 -0.0508 -0.1760  0.2047
    8MOL   O459 6773   0.368   2.813   6.884 -0.0136  0.2597 -0.5380
    8MOL   O460 6774   0.558   2.948   6.782 -0.7054  0.1121  0.2161
    8MOL   C461 6775   0.619   2.724   6.925  0.3642 -0.4447  0.3864
    8MOL   C462 6776   0.758   2.767   6.919  0.0266  0.2911 -0.8079
    8MOL   C463 6777   0.843   2.698   7.008 -0.4098 -0.2559  0.2345
    8MOL   C464 6778   0.798   2.592   7.086  0.2040  0.4052 -1.0188
    8MOL   C465 6779   0.661   2.554   7.086  0.0646  0.3640  0.4715
    8MOL   C466 6780   0.566   2.624   7.008 -0.7126 -0.5594 -0.5291
    8MOL   O467 6781   0.893   2.526   7.166  1.3200  0.4916 -0.1273
    8MOL   C468 6782   0.891   2.386   7.173 -0.5915 -0.5915  0.1802
    8MOL   C469 6783   0.933   2.331   7.294  1.0543  0.2200 -0.0947
    8MOL   C470 6784   0.949   2.188   7.309 -0.2581  0.0808  0.2820
    8MOL   C471 6785   0.918   2.108   7.199 -0.0992  0.0825 -0.2492
    8MOL   C472 6786   0.880   2.170   7.079 -0.0361  0.9192 -0.3884
    8MOL   C473 6787   0.867   2.306   7.065 -0.4315  0.0933 -0.7110
    8MOL   C474 6788   0.926   1.959   7.197  0.5407  0.3363  0.3873
    8MOL   C475 6789   0.902   1.892   7.325  0.2002  0.2789  0.1725
    8MOL   C476 6790   0.920   1.752   7.336 -0.0406  0.5215  0.3362
    8MOL   C477 6791   0.946   1.678   7.222 -0.6535  1.1013 -0.4685
    8MOL   C478 6792   0.972   1.742   7.099  0.7647  0.3046  0.4425
    8MOL   C479 6793   0.961   1.877   7.089  0.4889 -0.1860 -0.3578
    8MOL   O480 6794   0.956   1.541   7.231 -0.0797 -0.3365  0.3432
    8MOL   H481 6795   0.575   2.484   6.453  2.1757  0.8951  0.7044
    8MOL   H482 6796   0.627   2.588   6.678  0.7013 -0.1260 -0.4215
    8MOL   H483 6797   0.334   2.896   6.608  0.3936 -0.0883  0.6696
    8MOL   H484 6798   0.291   2.811   6.381  1.3528  3.5736  1.0469
    8MOL   H485 6799   0.789   2.848   6.855  0.8444 -0.3104 -1.1858
    8MOL   H486 6800   0.948   2.723   7.003 -0.9618  2.1363 -0.2191
    8MOL   H487 6801   0.635   2.468   7.146 -3.0516  0.3251 -0.8366
    8MOL   H488 6802   0.459   2.613   7.020 -0.5033 -2.7803 -0.4523
    8MOL   H489 6803   0.952   2.401   7.374 -1.2011 -0.2184  0.8567
    8MOL   H490 6804   0.995   2.148   7.398  0.5772  0.9869  0.2747
    8MOL   H491 6805   0.852   2.101   7.001  1.4314 -3.4525  2.7730
    8MOL   H492 6806   0.834   2.354   6.974 -2.0915 -1.3009 -0.8895
    8MOL   H493 6807   0.872   1.950   7.411  2.0289  0.1443  0.9304
    8MOL   H494 6808   0.890   1.703   7.428 -0.9282 -0.0758 -0.2676
    8MOL   H495 6809   1.009   1.687   7.014  0.7149  0.2145  0.4795
    8MOL   H496 6810   0.994   1.921   6.996  0.2800 -3.2343 -1.9329
    8MOL   C497 6811   0.913   1.453   7.135  0.0057  0.2585 -0.3870
    8MOL   C498 6812   0.965   1.324   7.131  0.8534 -0.0313 -0.1448
    8MOL   C499 6813   0.917   1.233   7.035  0.1407 -0.2014  0.1141
    8MOL   C500 6814   0.822   1.272   6.939  0.0003  0.7374  0.1170
    8MOL   C501 6815   0.762   1.401   6.946  0.8866 -0.0675  0.2011
    8MOL   C502 6816   0.814   1.491   7.037 -0.3847  0.7134 -0.2663
    8MOL   S503 6817   0.769   1.150   6.822  0.3469 -0.3687  0.5130
    8MOL   O504 6818   0.702   1.212   6.705  0.1256 -0.3369 -0.6595
    8MOL   O505 6819   0.694   1.051   6.899  0.3956  0.2208 -0.7728
    8MOL   C506 6820   0.907   1.071   6.755  0.0374  0.0715 -0.4661
    8MOL   C507 6821   0.957   0.956   6.813 -0.1482  0.0816 -0.5617
    8MOL   C508 6822   1.061   0.880   6.751 -0.7811  0.2560  0.0503
    8MOL   C509 6823   1.113   0.922   6.627 -0.2238  0.2594  0.2065
    8MOL   C510 6824   1.055   1.035   6.561  0.1342 -0.1687 -0.2599
    8MOL   C511 6825   0.960   1.116   6.628 -0.4847  1.3080 -0.4345
    8MOL   O512 6826   1.204   0.842   6.559 -0.0242 -0.1612  0.5170
    8MOL   C513 6827   1.331   0.886   6.530  0.6465  0.0272 -0.1792
    8MOL   C514 6828   1.359   0.916   6.398  0.2745  0.1199 -0.1703
    8MOL   C515 6829   1.488   0.960   6.363 -0.0863 -0.0816  0.3877
    8MOL   C516 6830   1.596   0.972   6.457 -0.1264 -0.3875  0.6415
    8MOL   C517 6831   1.569   0.930   6.585  0.3320 -0.0337 -0.1688
    8MOL   C518 6832   1.437   0.889   6.623  0.7717  0.8694 -0.3528
    8MOL   C519 6833   1.737   1.003   6.414  0.1043 -0.1069  0.1775
    8MOL   C520 6834   1.828   1.058   6.506 -0.1194  0.3862 -0.1161
    8MOL   C521 6835   1.966   1.080   6.468 -0.7335  0.1078  0.2254
    8MOL   C522 6836   2.009   1.046   6.341 -0.0115 -0.3328 -0.1685
    8MOL   C523 6837   1.923   0.980   6.253 -0.3129 -0.7203  0.6170
    8MOL   C524 6838   1.789   0.958   6.298 -0.3008  0.1809  0.5804
    8MOL   O525 6839   2.144   1.071   6.323 -0.1071  0.2108 -0.4508
    8MOL   H526 6840   1.032   1.290   7.209 -0.4718 -1.1639  0.5342
    8MOL   H527 6841   0.965   1.137   7.037  1.4700  0.4271 -0.7345
    8MOL   H528 6842   0.694   1.426   6.866  1.6010 -0.9953 -0.7214
    8MOL   H529 6843   0.770   1.589   7.032 -1.2997  0.2600 -1.5548
    8MOL   H530 6844   0.917   0.925   6.908 -1.5112  1.0471 -0.8170
    8MOL   H531 6845   1.094   0.793   6.804  2.4304 -0.1176 -2.3871
    8MOL   H532 6846   1.103   1.075   6.472  0.5233  2.3917  1.0585
    8MOL   H533 6847   0.933   1.214   6.591  1.4511  1.8644 -0.4445
    8MOL   H534 6848   1.280   0.900   6.327 -0.4676 -0.5030  0.7801
    8MOL   H535 6849   1.517   0.988   6.263 -1.6225  0.3708  0.0442
    8MOL   H536 6850   1.655   0.922   6.649  2.2781  1.1830 -2.5186
    8MOL   H537 6851   1.420   0.854   6.723  1.5942  0.2752 -0.4152
    8MOL   H538 6852   1.786   1.083   6.602 -1.1165  1.2313 -0.7538
    8MOL   H539 6853   2.037   1.134   6.529  0.4010 -1.2391  0.1220
    8MOL   H540 6854   1.949   0.948   6.153 -0.2532  1.2286 -0.0188
    8MOL   H541 6855   1.731   0.901   6.226  0.4413  0.6273 -0.3817
    8MOL   C542 6856   2.180   1.114   6.197  0.2505  0.1452 -0.0288
    8MOL   C543 6857   2.172   1.250   6.160 -0.1658  0.4269  0.0699
    8MOL   C544 6858   2.210   1.293   6.034  0.0940 -0.8540 -0.5514
    8MOL   C545 6859   2.260   1.205   5.940  0.1583 -0.8881  0.2934
    8MOL   C546 6860   2.262   1.069   5.970 -0.6043 -0.5648 -0.1786
    8MOL   C547 6861   2.223   1.024   6.096  0.5708 -0.0788 -0.6869
    8MOL   S548 6862   2.326   1.260   5.786 -0.0641 -0.1377  0.0547
    8MOL   O549 6863   2.404   1.156   5.719 -0.3292  0.3342  0.3166
    8MOL   O550 6864   2.386   1.394   5.808 -0.2634  0.3992  0.5359
    8MOL   C551 6865   2.182   1.296   5.689 -0.4503 -0.7897 -0.1667
    8MOL   C552 6866   2.092   1.195   5.665 -0.6520 -0.0121  0.2900
    8MOL   C553 6867   1.984   1.204   5.574 -0.3278  0.1127  0.3183
    8MOL   C554 6868   1.967   1.326   5.513 -0.4171 -0.0037 -0.0550
    8MOL   C555 6869   2.050   1.432   5.543  0.9597 -0.4666  0.6737
    8MOL   C556 6870   2.157   1.418   5.629  0.0497 -0.3722  0.2556
    8MOL   O557 6871   1.858   1.336   5.429  0.1380  0.2838 -0.1165
    8MOL   C558 6872   1.873   1.399   5.311 -0.9307 -0.4402 -0.1883
    8MOL   C559 6873   1.847   1.534   5.303 -0.8789 -0.6865 -0.2888
    8MOL   C560 6874   1.865   1.599   5.180  0.2948 -0.4067 -0.3129
    8MOL   C561 6875   1.907   1.531   5.062  0.1800  0.0719  0.4732
    8MOL   C562 6876   1.932   1.392   5.080 -0.2540 -0.8050  0.4389
    8MOL   C563 6877   1.921   1.329   5.199 -0.1583  0.0257  0.0779
    8MOL   C564 6878   1.926   1.594   4.933  0.1020  0.8323 -0.0810
    8MOL   C565 6879   2.038   1.572   4.850  0.2794 -0.4558 -0.4534
    8MOL   C566 6880   2.064   1.639   4.729  0.3410 -0.0748 -0.3591
    8MOL   C567 6881   1.964   1.733   4.683  0.3391 -0.3590  0.4343
    8MOL   C568 6882   1.842   1.743   4.755  0.5712 -0.2843  0.4442
    8MOL   C569 6883   1.825   1.679   4.881  0.0723  0.2556  0.6928
    8MOL   O570 6884   1.991   1.809   4.572  0.0757 -0.2568  0.0496
    8MOL   H571 6885   2.131   1.322   6.229  1.9581  0.8783  0.9090
    8MOL   H572 6886   2.207   1.398   6.006  2.6309 -1.0450 -1.6998
    8MOL   H573 6887   2.306   0.998   5.902 -0.7713 -0.3313 -0.5335
    8MOL   H574 6888   2.230   0.919   6.120  2.2710  0.8194  3.2407
    8MOL   H575 6889   2.117   1.096   5.701 -0.3776 -0.0821 -0.0898
    8MOL   H576 6890   1.918   1.120   5.556  2.2478 -2.1920  1.2143
    8MOL   H577 6891   2.032   1.529   5.499  0.8543 -0.5971  0.4295
    8MOL   H578 6892   2.215   1.507   5.651 -1.9832  0.8874  0.6191
    8MOL   H579 6893   1.812   1.588   5.390 -1.0994  1.7707 -1.8458
    8MOL   H580 6894   1.856   1.706   5.182  2.4737 -0.2063 -0.6192
    8MOL   H581 6895   1.962   1.339   4.991  0.4764 -0.2844  0.3622
    8MOL   H582 6896   1.941   1.223   5.207  2.8624  0.2938 -2.9966
    8MOL   H583 6897   2.109   1.502   4.890  0.6529  1.1130  1.7056
    8MOL   H584 6898   2.160   1.626   4.680 -0.3122 -0.7304 -1.4695
    8MOL   H585 6899   1.769   1.806   4.706  0.0375 -1.5679 -0.4829
    8MOL   H586 6900   1.731   1.690   4.932 -0.6183  0.6009 -0.6291
    8MOL   C587 6901   2.042   1.746   4.460 -0.2420  0.9454 -0.7048
    8MOL   C588 6902   1.976   1.639   4.401 -0.4753  0.1354  0.3170
    8MOL   C589 6903   2.021   1.589   4.279 -0.4931 -0.3432 -0.9246
    8MOL   C590 6904   2.139   1.647   4.228 -0.5475 -0.3407 -0.4516
    8MOL   C591 6905   2.209   1.754   4.295  0.1472 -0.2252  0.2899
    8MOL   C592 6906   2.156   1.803   4.412 -0.1186  0.6011  0.0005
    8MOL   S593 6907   2.206   1.594   4.072  0.1851  0.2939 -0.3041
    8MOL   O594 6908   2.351   1.626   4.067  0.0993 -0.2052  0.3612
    8MOL   O595 6909   2.118   1.649   3.967  0.1490  0.2333 -0.1884
    8MOL   C596 6910   2.184   1.416   4.068  0.2752  0.9746 -0.2566
    8MOL   C597 6911   2.106   1.352   3.971  0.0534  0.3793  0.1152
    8MOL   C598 6912   2.093   1.209   3.970 -0.3687 -0.1117  0.4341
    8MOL   C599 6913   2.159   1.138   4.071  0.5046 -0.2526 -0.1986
    8MOL   C600 6914   2.228   1.206   4.170 -0.3804 -0.0855  0.2689
    8MOL   C601 6915   2.247   1.340   4.166 -0.0439 -0.7835  0.1151
    8MOL   O602 6916   2.158   1.001   4.074 -0.2350 -0.4587  0.2888
    8MOL   C603 6917   2.061   0.953   4.156  0.4695  0.4062 -0.7405
    8MOL   C604 6918   1.941   0.895   4.101  0.1980 -0.6965  0.0424
    8MOL   C605 6919   1.842   0.839   4.177 -0.2505 -0.2168 -0.5101
    8MOL   C606 6920   1.856   0.828   4.319  0.5533 -0.0279  0.0221
    8MOL   C607 6921   1.967   0.880   4.378  0.3265 -0.5884 -0.2280
    8MOL   C608 6922   2.065   0.950   4.300  0.0772 -0.2394  0.0119
    8MOL   C609 6923   1.753   0.757   4.400  0.4927 -0.1848  0.0485
    8MOL   C610 6924   1.696   0.822   4.516 -0.4101 -0.6990  0.6495
    8MOL   C611 6925   1.611   0.755   4.601 -0.4597 -0.0077 -0.0822
    8MOL   C612 6926   1.577   0.623   4.569  0.2607  0.2667  0.4224
    8MOL   C613 6927   1.634   0.555   4.465  0.6766 -0.6325 -0.4605
    8MOL   C614 6928   1.722   0.620   4.378 -0.2665  0.3347 -0.1004
    8MOL   O615 6929   1.493   0.546   4.649  0.2236  0.1234  0.0543
    8MOL   H616 6930   1.879   1.603   4.434 -0.3823  0.0198  0.4611
    8MOL   H617 6931   1.971   1.508   4.228 -2.6637  1.0842 -1.1614
    8MOL   H618 6932   2.297   1.796   4.249 -0.9252  2.6429  0.7881
    8MOL   H619 6933   2.210   1.875   4.472 -0.0124 -0.5523  1.3017
    8MOL   H620 6934   2.049   1.410   3.900  1.1553  1.0168 -0.2514
    8MOL   H621 6935   2.034   1.154   3.898  1.4640 -1.5321 -0.0123
    8MOL   H622 6936   2.269   1.152   4.254  0.3611 -0.4593 -0.3404
    8MOL   H623 6937   2.296   1.391   4.247 -1.0311 -1.2507  1.0225
    8MOL   H624 6938   1.933   0.897   3.994  0.0116  2.3633  0.0624
    8MOL   H625 6939   1.759   0.789   4.129 -0.7145 -0.5018  0.5523
    8MOL   H626 6940   1.979   0.861   4.484 -1.4299  1.8793  0.4627
    8MOL   H627 6941   2.147   0.995   4.354 -0.3384 -0.5281  0.8872
    8MOL   H628 6942   1.717   0.925   4.540  1.5004 -0.6148 -1.2397
    8MOL   H629 6943   1.579   0.800   4.693 -0.5800 -1.7120  0.7371
    8MOL   H630 6944   1.600   0.454   4.452 -2.5593  0.3280  0.0211
    8MOL   H631 6945   1.760   0.566   4.292 -2.2079 -1.3911  0.0917
    8MOL   C632 6946   1.568   0.466   4.729 -0.1357 -0.5820 -0.2131
    8MOL   C633 6947   1.546   0.332   4.710 -0.0426  0.4564 -0.3111
    8MOL   C634 6948   1.605   0.235   4.793 -0.4763 -1.0590  0.6751
    8MOL   C635 6949   1.688   0.277   4.897  0.2305 -0.5711 -0.5676
    8MOL   C636 6950   1.712   0.415   4.916  0.1011  0.5484  0.2555
    8MOL   C637 6951   1.653   0.511   4.835 -0.2908 -0.7172  0.3254
    8MOL   S638 6952   1.776   0.155   4.997 -0.3825 -0.4861 -0.0545
    8MOL   O639 6953   1.771   0.023   4.933  0.1678  0.0967  0.4272
    8MOL   O640 6954   1.725   0.173   5.132 -0.0370 -0.3344 -0.0291
    8MOL   C641 6955   1.959   0.185   5.006  0.3572 -0.0276 -0.5675
    8MOL   C642 6956   2.037   0.125   5.107 -0.0183  0.3896  0.1134
    8MOL   C643 6957   2.176   0.153   5.122 -0.3684  0.7341  0.9488
    8MOL   C644 6958   2.231   0.254   5.044 -0.1967  0.3657  0.1255
    8MOL   C645 6959   2.151   0.327   4.950 -0.8474  0.3100 -0.2960
    8MOL   C646 6960   2.017   0.287   4.929 -0.0404 -1.3704  0.6541
    8MOL   O647 6961   2.362   0.287   5.063 -0.4546  0.6577 -0.6324
    8MOL   C648 6962   2.394   0.382   5.161  0.1088  0.2254  1.0959
    8MOL   C649 6963   2.339   0.513   5.167  0.3577  0.0605 -0.0241
    8MOL   C650 6964   2.397   0.607   5.254  0.7362  0.4386  0.2442
    8MOL   C651 6965   2.498   0.569   5.341 -0.1132 -0.3097 -0.2184
    8MOL   C652 6966   2.536   0.434   5.341  0.3561  0.7270  0.6649
    8MOL   C653 6967   2.488   0.337   5.253 -0.0079 -0.4680 -0.4230
    8MOL   C654 6968   2.566   0.679   5.423 -0.0850 -0.7850 -0.0847
    8MOL   C655 6969   2.505   0.805   5.456 -0.0060  0.1189 -0.1274
    8MOL   C656 6970   2.571   0.910   5.527 -0.5898  0.2244  0.4148
    8MOL   C657 6971   2.706   0.891   5.555  0.7127 -0.3433  0.2399
    8MOL   C658 6972   2.771   0.768   5.519  0.0255  0.4989 -0.4321
    8MOL   C659 6973   2.702   0.664   5.452  1.0054 -0.1228 -1.2966
    8MOL   O660 6974   2.779   0.986   5.627  0.3680  0.3741  0.1300
    8MOL   H661 6975   1.489   0.307   4.622 -1.1612  2.2326 -0.1256
    8MOL   H662 6976   1.591   0.130   4.777 -2.8629 -0.8776  1.3542
    8MOL   H663 6977   1.783   0.447   4.992 -0.3482  0.8043  0.5708
    8MOL   H664 6978   1.662   0.616   4.857 -0.4519 -0.9292  1.4258
    8MOL   H665 6979   1.985   0.066   5.182  0.4553  0.7955  0.7640
    8MOL   H666 6980   2.244   0.087   5.174 -0.2253 -1.2805 -1.6368
    8MOL   H667 6981   2.196   0.395   4.879 -1.7416  1.0648 -0.1486
    8MOL   H668 6982   1.963   0.337   4.850  1.7952  0.2411  0.3705
    8MOL   H669 6983   2.263   0.554   5.102 -0.8761 -0.2777  1.1972
    8MOL   H670 6984   2.366   0.710   5.254 -1.9922 -0.3053  2.2686
    8MOL   H671 6985   2.613   0.399   5.409 -0.4342 -1.0877  0.6448
    8MOL   H672 6986   2.534   0.239   5.249  3.4197  1.0104  0.3119
    8MOL   H673 6987   2.398   0.811   5.441 -0.0654  2.1094  0.9450
    8MOL   H674 6988   2.522   0.995   5.573  0.1779 -0.9193  3.4628
    8MOL   H675 6989   2.873   0.747   5.547 -0.4130 -1.0719  0.0357
    8MOL   H676 6990   2.752   0.571   5.429  1.4396 -0.3863  0.6194
    8MOL   C677 6991   2.862   1.063   5.542  0.0099  0.1739 -0.0336
    8MOL   C678 6992   2.976   1.019   5.468  0.1308 -0.0194  0.3946
    8MOL   C679 6993   3.053   1.105   5.390  0.2624 -0.3494  0.7136
    8MOL   C680 6994   3.021   1.246   5.390  0.0751  0.0323 -0.2305
    8MOL   C681 6995   2.906   1.287   5.460  0.3241 -0.3420 -0.2492
    8MOL   C682 6996   2.835   1.201   5.534  0.3943  0.2113 -0.2570
    8MOL   S683 6997   3.119   1.363   5.302  0.2583  0.1363  0.0693
    8MOL   O684 6998   3.236   1.284   5.271 -0.1589  0.4970  0.8052
    8MOL   O685 6999   3.140   1.483   5.389 -0.1750 -0.1260 -0.5141
    8MOL   C686 7000   3.026   1.396   5.158  0.1060  0.1529 -0.2538
    8MOL   C687 7001   3.038   1.515   5.091  0.8154 -0.5457  0.2366
    8MOL   C688 7002   2.971   1.548   4.968 -0.1513  0.2595  0.3198
    8MOL   C689 7003   2.897   1.445   4.909  0.6938  0.4705 -0.6893
    8MOL   C690 7004   2.891   1.314   4.971  0.6619  0.1237 -0.2941
    8MOL   C691 7005   2.957   1.293   5.090  0.4565 -0.2495 -0.7080
    8MOL   O692 7006   2.843   1.469   4.786  0.0900  0.2614 -0.1502
    8MOL   C693 7007   2.717   1.422   4.764  0.3826 -0.2905  0.4579
    8MOL   C694 7008   2.602   1.499   4.805 -0.1340 -0.4659  0.0926
    8MOL   C695 7009   2.471   1.456   4.779 -0.1071 -0.1086 -0.0413
    8MOL   C696 7010   2.451   1.344   4.700  0.4623 -0.0782  0.0119
    8MOL   C697 7011   2.560   1.266   4.664 -0.0348  0.6651 -0.1943
    8MOL   C698 7012   2.696   1.299   4.699 -0.7220 -0.9268 -0.5320
    8MOL   C699 7013   2.323   1.291   4.652 -0.0706 -0.9348  0.2136
    8MOL   C700 7014   2.284   1.155   4.684  0.1409  0.6370 -0.3016
    8MOL   C701 7015   2.157   1.109   4.649  0.0807  0.2834 -0.7074
    8MOL   C702 7016   2.064   1.188   4.576 -0.0591 -0.1093  0.0530
    8MOL   C703 7017   2.100   1.324   4.542  0.3831  0.0156 -0.1863
    8MOL   C704 7018   2.230   1.370   4.581  0.9523 -0.1697  0.2419
    8MOL   O705 7019   1.942   1.130   4.546  1.1117 -0.0277  0.0056
    8MOL   H706 7020   2.992   0.913   5.455  1.4536  0.5603 -3.4473
    8MOL   H707 7021   3.123   1.076   5.313 -0.4115 -1.8006  0.6340
    8MOL   H708 7022   2.877   1.388   5.487  1.7455 -0.1685  0.6947
    8MOL   H709 7023   2.754   1.238   5.596 -1.2979 -1.9453 -1.1037
    8MOL   H710 7024   3.104   1.592   5.129  0.4838 -0.5828  0.9078
    8MOL   H711 7025   2.982   1.645   4.921 -0.1736  0.7118  1.2318
    8MOL   H712 7026   2.834   1.234   4.926 -0.8634  1.7102 -1.2532
    8MOL   H713 7027   2.963   1.194   5.134 -1.3986  0.1307  0.4388
    8MOL   H714 7028   2.618   1.582   4.872  0.6621 -0.6464  0.1379
    8MOL   H715 7029   2.398   1.529   4.810 -0.7571 -0.2119 -1.2976
    8MOL   H716 7030   2.552   1.172   4.612  2.8826 -0.2317  0.8884
    8MOL   H717 7031   2.790   1.250   4.677  0.7160  0.8046  1.4871
    8MOL   H718 7032   2.355   1.082   4.720  1.0161  0.9755 -1.3409
    8MOL   H719 7033   2.123   1.010   4.676  3.1055 -1.0990 -1.6911
    8MOL   H720 7034   2.031   1.396   4.500  0.1689  0.5799  1.1009
    8MOL   H721 7035   2.254   1.473   4.557 -2.2007  0.6910  0.5619
    8MOL   C722 7036   1.833   1.207   4.558 -0.1102 -0.3465  0.4773
    8MOL   C723 7037   1.794   1.260   4.686  0.0333 -0.5639  0.2872
    8MOL   C724 7038   1.684   1.342   4.703 -0.0494  0.5998 -0.2685
    8MOL   C725 7039   1.612   1.381   4.590  0.5219 -0.1243 -0.1222
    8MOL   C726 7040   1.658   1.337   4.462 -0.0130  0.1488 -1.2727
    8MOL   C727 7041   1.759   1.244   4.443 -0.4823  0.0615  0.2077
    8MOL   S728 7042   1.481   1.500   4.604 -0.5519 -0.2120  0.3241
    8MOL   O729 7043   1.446   1.551   4.469  0.5011 -0.1088 -0.2484
    8MOL   O730 7044   1.522   1.597   4.703 -0.2825 -0.2272 -0.0575
    8MOL   C731 7045   1.340   1.416   4.670 -0.3325 -0.9354  0.3539
    8MOL   C732 7046   1.315   1.281   4.647  0.3944 -0.1160  0.4305
    8MOL   C733 7047   1.198   1.216   4.698  0.6823  0.5177  0.5196
    8MOL   C734 7048   1.094   1.301   4.754 -0.1268 -0.3112 -0.3299
    8MOL   C735 7049   1.116   1.435   4.780  0.0035  0.1250 -0.0403
    8MOL   C736 7050   1.244   1.486   4.747  0.2854 -0.7185  1.0094
    8MOL   O737 7051   0.973   1.247   4.789 -0.4704  0.3209  0.5557
    8MOL   C738 7052   0.949   1.193   4.911 -0.5165 -0.1072 -0.0157
    8MOL   C739 7053   0.825   1.226   4.971  0.2636  0.7672 -0.7197
    8MOL   C740 7054   0.812   1.185   5.107  0.1286 -0.0372 -0.1084
    8MOL   C741 7055   0.911   1.108   5.179 -0.4620  0.0490 -0.2986
    8MOL   C742 7056   1.021   1.059   5.104  1.1721  0.1440  0.2094
    8MOL   C743 7057   1.043   1.102   4.967 -0.3591  0.3613 -0.5124
    8MOL   C744 7058   0.896   1.067   5.324  0.1089 -0.6143 -0.1289
    8MOL   C745 7059   0.828   1.140   5.413  0.3773  0.3068  0.6653
    8MOL   C746 7060   0.810   1.114   5.550  0.1950  0.3386  0.4250
    8MOL   C747 7061   0.862   0.991   5.594  0.1102  0.7735 -0.1102
    8MOL   C748 7062   0.936   0.910   5.506  0.0584  0.1364 -0.4423
    8MOL   C749 7063   0.950   0.950   5.371  0.1920  0.4328  0.5817
    8MOL   O750 7064   0.871   0.961   5.727 -0.4324 -0.4046  0.0483
    8MOL   H751 7065   1.840   1.220   4.775  1.1246  0.4468  0.1936
    8MOL   H752 7066   1.664   1.373   4.805  2.8449 -0.5620  0.6890
    8MOL   H753 7067   1.595   1.366   4.380 -0.5535 -1.0517 -1.2860
    8MOL   H754 7068   1.774   1.200   4.346  0.1044 -1.8739  1.1578
    8MOL   H755 7069   1.391   1.234   4.587  0.5891  0.2594  0.3800
    8MOL   H756 7070   1.180   1.112   4.673 -1.8072  0.3861  2.7361
    8MOL   H757 7071   1.035   1.486   4.830 -0.3079  1.4471 -1.8302
    8MOL   H758 7072   1.269   1.589   4.765  0.7496 -0.5948 -0.3162
    8MOL   H759 7073   0.748   1.279   4.918  0.9503  0.4212 -2.0913
    8MOL   H760 7074   0.717   1.210   5.151 -0.4476  0.0133 -1.3471
    8MOL   H761 7075   1.095   0.990   5.144  0.0787 -1.0799  0.1429
    8MOL   H762 7076   1.133   1.077   4.913  0.6932 -1.0601  1.8412
    8MOL   H763 7077   0.785   1.235   5.382  0.8609  0.3532  0.1152
    8MOL   H764 7078   0.747   1.172   5.616  0.5919 -2.2632  3.2194
    8MOL   H765 7079   0.981   0.817   5.536  0.1939  0.3056 -0.1223
    8MOL   H766 7080   1.002   0.880   5.307  2.8752  1.2400  1.7988
    8MOL   C767 7081   0.760   0.904   5.782 -0.0414  0.1677  0.1856
    8MOL   C768 7082   0.743   0.768   5.740 -0.6208  0.4003  0.4377
    8MOL   C769 7083   0.623   0.704   5.769  0.2270 -0.3926  0.1544
    8MOL   C770 7084   0.530   0.764   5.845  0.2880 -0.2599 -0.0435
    8MOL   C771 7085   0.545   0.897   5.892 -0.3097 -0.4900 -0.2084
    8MOL   C772 7086   0.662   0.967   5.855 -0.4460 -0.1329  0.0003
    8MOL   S773 7087   0.388   0.664   5.907 -0.3688  0.2638 -0.0952
    8MOL   O774 7088   0.345   0.566   5.807 -0.7208  0.0958 -0.4904
    8MOL   O775 7089   0.289   0.750   5.978 -0.0209  0.4318  0.6869
    8MOL   C776 7090   0.468   0.567   6.040 -0.4427  0.0810 -0.0624
    8MOL   C777 7091   0.441   0.427   6.056 -0.3373 -0.9355  0.2219
    8MOL   C778 7092   0.507   0.347   6.152  0.2765 -0.2235 -0.0217
    8MOL   C779 7093   0.572   0.419   6.256 -0.5782  0.0380 -0.4239
    8MOL   C780 7094   0.605   0.551   6.238  0.7289 -0.6913 -0.2442
    8MOL   C781 7095   0.545   0.629   6.135 -0.2996  0.3099 -0.3827
    8MOL   O782 7096   0.626   0.343   6.361  0.2306  0.0311  0.0095
    8MOL   C783 7097   0.658   0.409   6.478  0.7412 -0.2993  0.8560
    8MOL   C784 7098   0.787   0.408   6.528  0.2691  0.2712 -0.0118
    8MOL   C785 7099   0.825   0.470   6.643  0.3480 -0.5294  0.4072
    8MOL   C786 7100   0.732   0.540   6.719  1.0044 -0.1619  0.2098
    8MOL   C787 7101   0.596   0.546   6.671  0.1273  0.3696  0.1930
    8MOL   C788 7102   0.560   0.478   6.555 -0.4206 -0.2474  0.0783
    8MOL   C789 7103   0.761   0.605   6.851  0.5128 -1.7464  0.2251
    8MOL   C790 7104   0.686   0.712   6.903 -0.5897 -0.4558  0.3256
    8MOL   C791 7105   0.710   0.763   7.028  0.4034  1.1097  0.6440
    8MOL   C792 7106   0.808   0.706   7.113 -0.1312 -0.3531 -0.4375
    8MOL   C793 7107   0.888   0.602   7.060 -0.4145 -0.1061  0.4235
    8MOL   C794 7108   0.867   0.553   6.930  0.1736  1.1301  0.4653
    8MOL   O795 7109   0.829   0.757   7.237  0.1855 -0.1614  0.0991
    8MOL   H796 7110   0.817   0.714   5.682 -1.5356 -1.2518  0.7919
    8MOL   H797 7111   0.602   0.601   5.744  0.4706 -0.4389  0.1331
    8MOL   H798 7112   0.463   0.938   5.950 -0.5133 -2.2538  0.8119
    8MOL   H799 7113   0.683   1.071   5.875  0.5930 -0.1656 -0.9078
    8MOL   H800 7114   0.371   0.374   5.992  0.8238  0.1707 -2.0130
    8MOL   H801 7115   0.496   0.240   6.157 -1.6817 -0.1533 -1.9548
    8MOL   H802 7116   0.684   0.581   6.305  1.9111 -1.2377 -1.3703
    8MOL   H803 7117   0.559   0.736   6.133 -2.7782  0.7154  1.4973
    8MOL   H804 7118   0.859   0.354   6.468 -0.8510 -0.8927 -0.3378
    8MOL   H805 7119   0.930   0.471   6.666  0.3146  0.8934  0.5808
    8MOL   H806 7120   0.513   0.582   6.729 -0.4102  0.8499 -0.8582
    8MOL   H807 7121   0.457   0.478   6.522 -0.2363  0.3384 -0.5283
    8MOL   H808 7122   0.601   0.756   6.854  0.4999 -0.0978 -1.2922
    8MOL   H809 7123   0.654   0.844   7.070  0.7002  1.4135  0.4642
    8MOL   H810 7124   0.958   0.556   7.129 -1.6387 -1.1544  0.9919
    8MOL   H811 7125   0.923   0.468   6.893 -0.0292  1.3014 -0.2522
    8MOL   C812 7126   0.833   0.658   7.336 -0.1965 -0.4968  0.1037
    8MOL   C813 7127   0.732   0.566   7.362 -0.2706 -0.0908 -0.7932
    8MOL   C814 7128   0.743   0.466   7.470  0.2656  0.0222  0.0443
    8MOL   C815 7129   0.850   0.473   7.558 -0.5572  0.2665  0.3280
    8MOL   C816 7130   0.949   0.570   7.535 -0.5305 -0.2687  0.0851
    8MOL   C817 7131   0.938   0.663   7.435  0.1850  0.0410  0.2327
    8MOL   S818 7132   0.877   0.355   7.684 -0.2210  0.3922 -0.0312
    8MOL   O819 7133   0.966   0.415   7.785 -0.1786  0.3419 -0.1767
    8MOL   O820 7134   0.933   0.237   7.613 -0.3223 -0.1312  0.1481
    8MOL   C821 7135   0.729   0.299   7.758 -0.1964 -0.1759  0.6057
    8MOL   C822 7136   0.742   0.182   7.827 -0.3911 -0.1759  0.7633
    8MOL   C823 7137   0.632   0.132   7.900 -0.1098  0.1778 -0.1253
    8MOL   C824 7138   0.510   0.197   7.904  0.5116  0.8200  0.3793
    8MOL   C825 7139   0.498   0.320   7.838 -0.3927  0.8419  0.2362
    8MOL   C826 7140   0.613   0.376   7.772 -0.3143 -0.5799 -0.0680
    8MOL   O827 7141   0.401   0.156   7.977 -0.6391  0.0917  0.6246
    8MOL   C828 7142   0.362   0.238   8.072  0.3255  0.0161 -0.3329
    8MOL   C829 7143   0.422   0.234   8.201  0.5071  0.7541 -0.1694
    8MOL   C830 7144   0.397   0.341   8.286 -0.0251  0.1482 -0.0111
    8MOL   C831 7145   0.304   0.445   8.258  0.4081 -0.3399 -0.7181
    8MOL   C832 7146   0.233   0.433   8.137 -0.2138  0.0816 -0.2404
    8MOL   C833 7147   0.264   0.339   8.047 -0.2968  0.5189 -0.2866
    8MOL   C834 7148   0.297   0.570   8.341  0.2193 -0.2224  0.4565
    8MOL   C835 7149   0.287   0.698   8.287 -0.1386 -0.4720 -0.0011
    8MOL   C836 7150   0.308   0.819   8.360 -0.6425 -0.3120 -0.1013
    8MOL   C837 7151   0.315   0.805   0.134 -0.3377 -0.2735  0.8268
    8MOL   C838 7152   0.326   0.679   0.193  0.0980 -0.1012  0.0498
    8MOL   C839 7153   0.316   0.560   0.115 -0.5459  0.0387 -0.0526
    8MOL   O840 7154   0.331   0.913   0.214 -0.3489 -0.2119 -0.0038
    8MOL   H841 7155   0.652   0.565   7.290  2.2101  1.4174 -3.7283
    8MOL   H842 7156   0.661   0.397   7.482  2.2044 -2.9309 -2.7519
    8MOL   H843 7157   1.029   0.580   7.607 -0.9857 -0.7768  0.6730
    8MOL   H844 7158   1.022   0.729   7.426 -0.3751  0.5007 -2.0175
    8MOL   H845 7159   0.834   0.127   7.817 -0.5910 -0.3223 -0.3495
    8MOL   H846 7160   0.652   0.044   7.959 -1.3912  2.1707  3.4620
    8MOL   H847 7161   0.408   0.378   7.851  0.0722  1.2826  1.5397
    8MOL   H848 7162   0.604   0.477   7.735  1.6841 -0.1397  0.6109
    8MOL   H849 7163   0.514   0.179   8.215 -0.2508 -0.1915  1.2152
    8MOL   H850 7164   0.463   0.356   0.005  0.6808  1.2438 -0.7414
    8MOL   H851 7165   0.159   0.504   8.102  0.6488  1.4175  0.6000
    8MOL   H852 7166   0.211   0.338   7.953  1.6019  1.5860 -1.3915
    8MOL   H853 7167   0.275   0.712   8.181  1.3531  3.0091  0.2017
    8MOL   H854 7168   0.295   0.916   8.315  1.1256  0.5439  1.1895
    8MOL   H855 7169   0.341   0.658   0.298  1.4108  0.7906  0.0417
    8MOL   H856 7170   0.327   0.460   0.156  1.3164  1.3850  2.9076
    8MOL   C857 7171   0.217   0.982   0.248  0.4309  0.5278 -0.7608
    8MOL   C858 7172   0.135   0.924   0.356 -0.2918 -0.1320 -0.1380
    8MOL   C859 7173   0.019   0.991   0.390  0.4325 -1.3590 -0.1620
    8MOL   C860 7174   8.354   1.118   0.332  0.7814  0.0255 -0.1481
    8MOL   C861 7175   0.076   1.168   0.233 -0.3048  0.7336 -1.2062
    8MOL   C862 7176   0.192   1.105   0.191 -0.0779  0.0086  0.1054
    8MOL   S863 7177   8.208   1.209   0.374 -0.0169 -0.5150 -0.5051
    8MOL   O864 7178   8.109   1.115   0.411  0.0577  0.3507 -0.4052
    8MOL   O865 7179   8.170   1.295   0.263 -0.5708 -0.0828 -0.3303
    8MOL   C866 7180   8.248   1.298   0.522  0.0153 -0.6874 -0.0158
    8MOL   C867 7181   8.307   1.225   0.634  0.1317 -0.6415  0.3846
    8MOL   C868 7182   8.325   1.291   0.752  0.0908 -0.3556 -0.3699
    8MOL   C869 7183   8.299   1.429   0.760 -0.2713 -0.2356 -0.1456
    8MOL   C870 7184   8.243   1.496   0.653 -0.5253 -0.4126 -0.2479
    8MOL   C871 7185   8.220   1.431   0.533 -0.1374  0.4393 -0.6693
    8MOL   O872 7186   8.319   1.491   0.881 -0.3739  0.3126 -0.3954
    8MOL   C873 7187   0.073   1.556   0.906 -0.9500  0.3017 -0.3374
    8MOL   C874 7188   0.166   1.507   0.996  0.1535  0.2971 -0.5818
    8MOL   C875 7189   0.287   1.580   1.023  0.1033  0.0282  0.3056
    8MOL   C876 7190   0.321   1.689   0.941  0.0095 -0.0527 -0.5154
    8MOL   C877 7191   0.235   1.728   0.830  0.5873 -0.8260  0.2861
    8MOL   C878 7192   0.114   1.660   0.813  0.5327  0.8479  0.0867
    8MOL   C879 7193   0.446   1.760   0.961 -0.8299  0.6412 -0.5153
    8MOL   C880 7194   0.503   1.791   1.091  0.0530 -0.0885  1.2754
    8MOL   C881 7195   0.617   1.870   1.102 -0.2895 -0.3850  0.2216
    8MOL   C882 7196   0.677   1.932   0.987 -0.0672 -0.4058 -1.0295
    8MOL   C883 7197   0.619   1.904   0.862 -0.5892 -0.3151  0.6350
    8MOL   C884 7198   0.514   1.814   0.851 -0.3018 -1.0808  0.3421
    8MOL   O885 7199   0.784   2.020   0.993  0.1240 -1.0436 -0.3905
    8MOL   H886 7200   0.165   0.826   0.392 -1.1360 -0.0667  0.7537
    8MOL   H887 7201   8.332   0.957   0.478 -0.2524  0.9351  0.3199
    8MOL   H888 7202   0.053   1.263   0.186 -2.3917  0.8303 -0.0311
    8MOL   H889 7203   0.261   1.154   0.124 -1.5357 -1.2116 -2.3613
    8MOL   H890 7204   8.344   1.125   0.617  1.9265  0.4901 -2.7602
    8MOL   H891 7205   0.015   1.237   0.827  0.3538 -1.3058 -1.2341
    8MOL   H892 7206   8.213   1.598   0.671  1.1949 -0.0030  0.3303
    8MOL   H893 7207   8.163   1.478   0.455 -0.8811 -1.0965 -1.0706
    8MOL   H894 7208   0.137   1.418   1.051 -0.7911  0.7884 -0.2757
    8MOL   H895 7209   0.347   1.542   1.104  0.3052  1.6707  0.9437
    8MOL   H896 7210   0.254   1.806   0.758 -0.7020 -1.5624 -0.8922
    8MOL   H897 7211   0.057   1.691   0.727 -0.3586  0.7266  0.6309
    8MOL   H898 7212   0.460   1.757   1.184 -2.5363  0.7857  0.4451
    8MOL   H899 7213   0.663   1.875   1.200 -1.0871 -1.4641  0.6608
    8MOL   H900 7214   0.655   1.949   0.771  0.9503  0.3395  1.5405
    8MOL   H901 7215   0.477   1.787   0.753  1.1293 -0.5030 -0.3716
    8MOL   H902 7216   0.801   2.090   0.932 -0.6118  0.5972  1.2158
    9MOL     C1 7217   5.214   0.622   7.676 -0.1950 -0.7253 -0.3850
    9MOL     C2 7218   5.078   0.647   7.677  0.7124  0.5805  0.0159
    9MOL     C3 7219   5.028   0.781   7.665  0.2747  0.0235 -0.4402
    9MOL     C4 7220   5.115   0.888   7.648  0.1260 -0.2984 -0.0681
    9MOL     C5 7221   5.255   0.857   7.646  0.2365  0.3622 -0.2068
    9MOL     C6 7222   5.309   0.724   7.654 -0.3889  0.0620 -0.8959
    9MOL     S7 7223   5.051   1.054   7.639 -0.1519 -0.2998  0.0498
    9MOL     O8 7224   4.913   1.037   7.587  0.7357 -0.1762  0.5138
    9MOL     O9 7225   5.154   1.131   7.574  0.2331 -0.6694  0.3491
    9MOL    C10 7226   5.039   1.130   7.797  0.7444  0.1971 -0.0917
    9MOL    C11 7227   5.095   1.073   7.913  0.1634 -0.3478 -0.1362
    9MOL    C12 7228   5.072   1.137   8.032 -0.4193 -1.4773 -0.5824
    9MOL    C13 7229   5.005   1.264   8.044  0.1124 -0.0630 -0.0016
    9MOL    C14 7230   4.972   1.333   7.925 -0.6767  0.0960  0.2831
    9MOL    C15 7231   4.994   1.262   7.803  0.4204  0.6219  0.3030
    9MOL    O16 7232   4.995   1.324   8.166 -0.1896 -0.0736  0.0806
    9MOL    C17 7233   4.870   1.333   8.216 -0.1115 -0.1231  0.4582
    9MOL    C18 7234   4.771   1.230   8.211  0.4351 -0.4272 -0.4091
    9MOL    C19 7235   4.647   1.242   8.261  0.8501 -0.1583  0.4778
    9MOL    C20 7236   4.602   1.366   8.315 -0.5049  0.3117 -0.1413
    9MOL    C21 7237   4.703   1.467   8.331  0.6016  0.2745  0.0316
    9MOL    C22 7238   4.836   1.450   8.274 -0.2443 -0.2294  0.2133
    9MOL    C23 7239   4.470   1.371   0.006  0.3935 -0.3174 -0.0671
    9MOL    C24 7240   4.444   1.441   0.126  0.1812 -0.7786  0.6179
    9MOL    C25 7241   4.313   1.448   0.185  0.4196  0.0237 -0.5846
    9MOL    C26 7242   4.202   1.397   0.118  0.2902 -0.1071 -0.9419
    9MOL    C27 7243   4.221   1.325   8.364 -0.2123  0.2996 -0.2004
    9MOL    C28 7244   4.352   1.316   8.310 -0.9828 -0.0352  0.2525
    9MOL    O29 7245   4.072   1.413   0.164 -0.9120  0.3841  0.5256
    9MOL    H30 7246   5.017   0.558   7.682  0.2566  0.8639 -0.5305
    9MOL    H31 7247   4.921   0.791   7.655  0.0178  0.1200  2.0048
    9MOL    H32 7248   5.331   0.933   7.648  1.3642 -0.7817  2.2546
    9MOL    H33 7249   5.411   0.696   7.634 -0.0095  0.1860  0.7763
    9MOL    H34 7250   5.145   0.977   7.916 -0.7161 -0.7614  2.2478
    9MOL    H35 7251   5.116   1.093   8.120  0.1366  1.1989  0.5265
    9MOL    H36 7252   4.931   1.433   7.930  0.4090  0.5058  1.1635
    9MOL    H37 7253   4.959   1.314   7.715 -2.0806  0.7592  1.3340
    9MOL    H38 7254   4.795   1.133   8.169 -2.5638 -1.6303  0.4813
    9MOL    H39 7255   4.573   1.164   8.252 -0.2481  0.8706  0.3339
    9MOL    H40 7256   4.666   1.556   0.014 -1.3143 -0.1045 -0.6641
    9MOL    H41 7257   4.907   1.531   8.285 -1.8105  0.9513  1.9359
    9MOL    H42 7258   4.523   1.488   0.183  0.3611  1.1615 -1.1827
    9MOL    H43 7259   4.290   1.507   0.272  1.2966  0.0841 -0.3922
    9MOL    H44 7260   4.141   1.291   8.300  1.4391  1.3972 -2.9808
    9MOL    H45 7261   4.367   1.274   8.211  0.9722 -0.1521  0.5653
    9MOL    H46 7262   5.251   0.521   7.683  0.4390 -0.4343  0.5931
    9MOL    C47 7263   4.019   1.321   0.250  0.0666  0.1052  0.0375
    9MOL    C48 7264   4.101   1.241   0.332  0.3251  0.4894  0.3549
    9MOL    C49 7265   4.043   1.151   0.416  0.0330  0.0406  0.1985
    9MOL    C50 7266   3.903   1.142   0.432  0.1852  0.1895 -0.7579
    9MOL    C51 7267   3.820   1.219   0.351 -0.5214  0.0386  0.1398
    9MOL    C52 7268   3.878   1.307   0.254 -0.0252 -0.0738 -1.0125
    9MOL    S53 7269   3.824   1.043   0.559 -0.3591 -0.0385 -0.1341
    9MOL    O54 7270   3.838   0.900   0.520  0.1046  0.6325 -0.0876
    9MOL    O55 7271   3.684   1.093   0.575 -0.0012 -0.4762  0.5674
    9MOL    C56 7272   3.917   1.071   0.710 -0.1669  0.0015 -0.3657
    9MOL    C57 7273   3.886   1.184   0.790  0.5708  0.0856 -0.5692
    9MOL    C58 7274   3.932   1.184   0.924  1.0999 -0.8340  0.0915
    9MOL    C59 7275   4.017   1.075   0.963 -0.3962  0.0842 -0.0124
    9MOL    C60 7276   4.067   0.975   0.874  0.5584  0.9548  0.2429
    9MOL    C61 7277   4.007   0.978   0.747  0.2593  0.1971 -0.1053
    9MOL    O62 7278   4.066   1.071   1.089 -0.5570 -0.2756 -0.2776
    9MOL    C63 7279   4.171   1.153   1.116 -0.3867 -1.3363  0.3454
    9MOL    C64 7280   4.176   1.233   1.230  0.6171  0.8205 -0.6444
    9MOL    C65 7281   4.285   1.320   1.258  0.6703 -0.1543  0.0185
    9MOL    C66 7282   4.395   1.325   1.165  0.3696 -0.0959 -0.0694
    9MOL    C67 7283   4.395   1.240   1.058  0.4679  0.0825  0.3013
    9MOL    C68 7284   4.284   1.154   1.030 -0.8048 -0.4541  0.2424
    9MOL    C69 7285   4.510   1.408   1.194 -0.3049 -0.5787 -0.2822
    9MOL    C70 7286   4.571   1.494   1.098 -0.1463  0.1784  0.2097
    9MOL    C71 7287   4.676   1.573   1.132 -0.6631 -0.3317 -0.2914
    9MOL    C72 7288   4.740   1.572   1.260  0.5106  0.3044 -0.4723
    9MOL    C73 7289   4.680   1.493   1.359  0.3392  0.3354  0.5216
    9MOL    C74 7290   4.570   1.407   1.323 -0.2926 -0.4203  0.1378
    9MOL    O75 7291   4.840   1.658   1.305 -0.2715  0.2357 -0.2086
    9MOL    H76 7292   4.209   1.248   0.327  0.2240  0.8640 -2.0885
    9MOL    H77 7293   4.097   1.084   0.481 -0.8407 -0.8335  0.0421
    9MOL    H78 7294   3.715   1.196   0.362 -1.3926  1.8709 -3.5780
    9MOL    H79 7295   3.822   1.374   0.191  2.8368  0.5271 -3.0519
    9MOL    H80 7296   3.814   1.257   0.757 -1.8488 -3.3325 -3.2532
    9MOL    H81 7297   3.918   1.268   0.990  1.6496  0.4307 -1.3548
    9MOL    H82 7298   4.132   0.896   0.906 -1.5168  0.4247  3.3703
    9MOL    H83 7299   4.022   0.884   0.696 -2.3401  0.1988 -0.9181
    9MOL    H84 7300   4.090   1.237   1.295 -0.3254  1.2094 -1.9121
    9MOL    H85 7301   4.286   1.375   1.351 -0.2833  0.4018 -0.2923
    9MOL    H86 7302   4.480   1.242   0.993 -0.0281 -1.5087 -0.4207
    9MOL    H87 7303   4.292   1.077   0.954 -2.9814  0.7627 -1.2653
    9MOL    H88 7304   4.533   1.499   0.997 -0.2334 -0.0513  0.2313
    9MOL    H89 7305   4.723   1.641   1.063 -1.7355  0.4798 -0.2433
    9MOL    H90 7306   4.729   1.493   1.456  0.5549  1.4298  0.4194
    9MOL    H91 7307   4.537   1.329   1.390 -1.6983  0.9403  1.0714
    9MOL    C92 7308   4.846   1.781   1.253  0.4587 -0.7386  0.8833
    9MOL    C93 7309   4.969   1.830   1.209 -0.3323  0.6799  0.1007
    9MOL    C94 7310   4.978   1.953   1.145 -0.4957  0.2353  0.9722
    9MOL    C95 7311   4.865   2.038   1.129  0.6126  0.2731  0.6085
    9MOL    C96 7312   4.738   1.999   1.183 -0.4503 -0.8553 -0.5920
    9MOL    C97 7313   4.732   1.868   1.241 -0.7540  0.4743 -0.0018
    9MOL    S98 7314   4.879   2.193   1.043 -0.2057  0.0420  0.2722
    9MOL    O99 7315   4.758   2.220   0.972  0.0261  0.3422  0.1799
    9MOL   O100 7316   5.011   2.196   0.975  0.1248  0.1526 -0.1601
    9MOL   C101 7317   4.889   2.311   1.183  0.8898 -0.3170 -0.4018
    9MOL   C102 7318   5.003   2.390   1.204  0.1627  0.5334  0.0982
    9MOL   C103 7319   5.024   2.463   1.327  0.0686  0.3798  0.4079
    9MOL   C104 7320   4.912   2.465   1.415 -0.4516  0.7253 -0.2494
    9MOL   C105 7321   4.786   2.401   1.386 -0.0237 -0.1502 -0.0237
    9MOL   C106 7322   4.784   2.320   1.274 -0.3987 -0.2437  0.4081
    9MOL   O107 7323   4.930   2.541   1.535 -0.1578  0.0482  0.3394
    9MOL   C108 7324   4.944   2.473   1.654 -0.1599 -0.2797  0.5119
    9MOL   C109 7325   4.855   2.374   1.702  0.0887  0.4105  0.3099
    9MOL   C110 7326   4.868   2.312   1.829 -0.6295  0.4939  0.9635
    9MOL   C111 7327   4.967   2.345   1.925 -0.0408  0.3733 -0.6235
    9MOL   C112 7328   5.051   2.453   1.881 -0.1525  0.4037 -0.1705
    9MOL   C113 7329   5.034   2.512   1.753 -0.2649  0.3572  0.0662
    9MOL   C114 7330   4.975   2.283   2.058  0.0760  0.4532 -0.0327
    9MOL   C115 7331   4.857   2.243   2.123 -0.1953 -0.5389  0.0517
    9MOL   C116 7332   4.856   2.169   2.239 -0.9196 -0.6303  0.9339
    9MOL   C117 7333   4.977   2.135   2.293  0.2323 -0.5098  0.2447
    9MOL   C118 7334   5.097   2.177   2.237  0.7913 -0.4141  0.3711
    9MOL   C119 7335   5.095   2.251   2.119  0.8970 -0.5421 -0.0253
    9MOL   O120 7336   4.975   2.047   2.396 -0.4524 -0.3193  0.2246
    9MOL   H121 7337   5.057   1.767   1.217  0.1192  1.2479 -0.3391
    9MOL   H122 7338   5.074   1.985   1.108 -1.3239  0.9676 -0.6363
    9MOL   H123 7339   4.652   2.062   1.166  0.5688  0.7546  0.1139
    9MOL   H124 7340   4.640   1.825   1.279 -0.0885  0.6196  1.7657
    9MOL   H125 7341   5.088   2.387   1.138  0.9929  3.7692  0.9434
    9MOL   H126 7342   5.108   2.518   1.367  1.8000 -0.9092 -1.4070
    9MOL   H127 7343   4.697   2.434   1.438  0.0614 -1.6897  1.1259
    9MOL   H128 7344   4.686   2.283   1.249 -0.5818  0.7241 -0.3650
    9MOL   H129 7345   4.775   2.335   1.640  0.2269  0.9631 -0.2247
    9MOL   H130 7346   4.803   2.227   1.836 -0.0071  0.0337  1.1815
    9MOL   H131 7347   5.135   2.479   1.943  0.8739  0.6757 -1.6558
    9MOL   H132 7348   5.089   2.602   1.728 -0.6822  0.6082  0.0468
    9MOL   H133 7349   4.762   2.262   2.075 -1.1984 -2.2651  1.2702
    9MOL   H134 7350   4.759   2.134   2.272 -1.4829 -0.8318 -0.8524
    9MOL   H135 7351   5.192   2.144   2.276  1.9860  1.6058 -0.7404
    9MOL   H136 7352   5.185   2.283   2.068 -0.3656  1.9549 -0.7801
    9MOL   C137 7353   4.950   2.091   2.523  0.2965  0.4726  0.5251
    9MOL   C138 7354   5.053   2.152   2.600 -1.4852  0.6649  0.3155
    9MOL   C139 7355   5.035   2.194   2.733  0.2908  0.3151 -0.1734
    9MOL   C140 7356   4.911   2.171   2.790 -0.0796 -0.3657  0.5112
    9MOL   C141 7357   4.804   2.110   2.715 -0.0172 -1.1080  0.8426
    9MOL   C142 7358   4.825   2.070   2.583 -0.3012 -0.0511 -0.5987
    9MOL   S143 7359   4.869   2.225   2.958 -0.1009  0.1275 -0.2940
    9MOL   O144 7360   4.723   2.209   2.986 -0.3699  0.4145 -0.3506
    9MOL   O145 7361   4.925   2.360   2.972 -0.3308  0.5203 -0.1607
    9MOL   C146 7362   4.952   2.118   3.074 -0.6288 -0.6606 -0.1848
    9MOL   C147 7363   5.061   2.042   3.031  0.3217 -0.3943  0.1588
    9MOL   C148 7364   5.127   1.959   3.114 -0.5270 -0.2750 -0.8259
    9MOL   C149 7365   5.069   1.930   3.245  0.2709 -0.0944 -0.1302
    9MOL   C150 7366   4.956   2.003   3.287  0.0900  0.2373  0.5299
    9MOL   C151 7367   4.898   2.105   3.208 -0.3922 -0.1204 -0.0127
    9MOL   O152 7368   5.130   1.827   3.310 -0.5161 -0.2713 -0.3777
    9MOL   C153 7369   5.048   1.721   3.341 -0.2785  0.2131  0.2712
    9MOL   C154 7370   4.962   1.665   3.244  0.6748 -0.3573  0.5722
    9MOL   C155 7371   4.895   1.547   3.273 -0.1345 -0.2628  0.7411
    9MOL   C156 7372   4.912   1.480   3.391 -0.3778  0.5099 -0.2719
    9MOL   C157 7373   4.990   1.538   3.487  0.1016 -0.3457  0.0038
    9MOL   C158 7374   5.061   1.654   3.466 -0.4724 -0.3905 -0.4403
    9MOL   C159 7375   4.832   1.357   3.413  0.5557  0.9411 -0.1595
    9MOL   C160 7376   4.705   1.341   3.343  0.0024  0.8683 -0.1292
    9MOL   C161 7377   4.639   1.221   3.356 -0.0338  0.0143 -0.0039
    9MOL   C162 7378   4.682   1.116   3.444 -0.8784 -0.0214 -0.2550
    9MOL   C163 7379   4.800   1.131   3.513 -0.2927 -0.3756 -0.0089
    9MOL   C164 7380   4.877   1.251   3.496  0.3595  0.2846 -0.1515
    9MOL   O165 7381   4.599   1.013   3.463  0.7211 -0.3352  0.0484
    9MOL   H166 7382   5.145   2.171   2.546 -2.6817  2.9306 -0.9974
    9MOL   H167 7383   5.115   2.245   2.784  0.5642  1.1649 -1.4180
    9MOL   H168 7384   4.710   2.114   2.767 -0.9793  1.4072 -0.9491
    9MOL   H169 7385   4.744   2.021   2.531 -0.9324 -1.0349  1.2640
    9MOL   H170 7386   5.101   2.055   2.931  2.1093 -1.4669  0.7008
    9MOL   H171 7387   5.223   1.923   3.079 -1.1435 -1.6691 -1.1322
    9MOL   H172 7388   4.917   1.992   3.387 -2.0552 -0.6785 -0.3855
    9MOL   H173 7389   4.817   2.168   3.242  0.0773  0.9986 -0.9561
    9MOL   H174 7390   4.938   1.716   3.152 -0.4327 -1.3421  0.2910
    9MOL   H175 7391   4.841   1.498   3.193  1.4334  0.7689 -0.9761
    9MOL   H176 7392   5.010   1.492   3.583  0.6648  0.7638  0.4349
    9MOL   H177 7393   5.131   1.692   3.539 -1.5628  1.7393 -0.4807
    9MOL   H178 7394   4.659   1.423   3.289 -0.0021  0.0084 -1.4702
    9MOL   H179 7395   4.539   1.207   3.315  0.1607  1.2797 -0.9364
    9MOL   H180 7396   4.825   1.051   3.581 -1.0307 -1.1181 -0.6009
    9MOL   H181 7397   4.973   1.252   3.546 -0.0572 -0.6839  0.6957
    9MOL   C182 7398   4.597   0.913   3.369  0.5168  0.3967 -0.1760
    9MOL   C183 7399   4.713   0.840   3.334  0.3139  0.3084 -0.8739
    9MOL   C184 7400   4.710   0.742   3.239  0.4609  0.1864  0.3064
    9MOL   C185 7401   4.592   0.717   3.170  0.5114  0.3207 -0.0980
    9MOL   C186 7402   4.474   0.780   3.208  0.1354 -0.0600  0.6980
    9MOL   C187 7403   4.474   0.882   3.311  0.1434  0.1376  0.2773
    9MOL   S188 7404   4.593   0.605   3.033  0.0553 -0.7021  0.3089
    9MOL   O189 7405   4.635   0.677   2.905 -0.3796  0.0631 -0.2631
    9MOL   O190 7406   4.459   0.543   3.024  0.1364  0.4593  0.2343
    9MOL   C191 7407   4.712   0.470   3.051 -0.1250 -0.7078  0.0157
    9MOL   C192 7408   4.830   0.475   2.977  0.6448  0.7250  0.6303
    9MOL   C193 7409   4.926   0.375   3.007 -0.1470 -0.2283  0.2306
    9MOL   C194 7410   4.890   0.260   3.081 -0.3824  0.7220  0.1375
    9MOL   C195 7411   4.765   0.254   3.146  0.5131 -0.0996  0.0825
    9MOL   C196 7412   4.671   0.358   3.122  0.3474  0.2595 -0.1664
    9MOL   O197 7413   4.984   0.165   3.111 -0.4310 -0.1818  0.2613
    9MOL   C198 7414   5.020   0.069   3.016 -0.0618  0.2943  0.4019
    9MOL   C199 7415   5.002   0.095   2.876  0.4445 -0.5368  0.2688
    9MOL   C200 7416   5.055   0.012   2.779  0.1578  0.3810  0.1846
    9MOL   C201 7417   5.126   8.259   2.820  0.4379  0.2435 -0.7593
    9MOL   C202 7418   5.146   8.240   2.958 -0.3317  0.6881 -0.0460
    9MOL   C203 7419   5.090   8.324   3.054  0.4426 -0.6431 -0.0068
    9MOL   C204 7420   5.174   8.167   2.720  0.6426 -0.0999 -0.2074
    9MOL   C205 7421   5.206   8.206   2.588  0.1626  0.2039  0.7216
    9MOL   C206 7422   5.267   8.120   2.495  0.5684 -0.2689  0.1581
    9MOL   C207 7423   5.290   7.989   2.531  0.9964  0.0460  0.1596
    9MOL   C208 7424   5.255   7.941   2.656 -0.1208 -0.0262  0.2325
    9MOL   C209 7425   5.201   8.034   2.753 -0.1018 -0.0981  0.2380
    9MOL   O210 7426   5.367   7.904   2.449  0.6236  0.5136 -0.2044
    9MOL   H211 7427   4.804   0.865   3.386  0.3553 -1.6178  0.0277
    9MOL   H212 7428   4.804   0.699   3.206  0.2225  1.6919 -2.4050
    9MOL   H213 7429   4.382   0.752   3.159  0.3453  1.9609 -0.8826
    9MOL   H214 7430   4.383   0.929   3.345 -0.7608 -2.0609  0.9416
    9MOL   H215 7431   4.857   0.561   2.917  0.0041 -0.8056 -1.9280
    9MOL   H216 7432   5.023   0.375   2.959  0.7836 -0.7222  2.0700
    9MOL   H217 7433   4.728   0.165   3.197 -0.5839  0.5280  0.4089
    9MOL   H218 7434   4.570   0.342   3.158  0.2010 -0.0835 -0.7281
    9MOL   H219 7435   4.937   0.174   2.842  1.9017  0.8912  0.7572
    9MOL   H220 7436   5.032   0.023   2.674  0.3896  1.5840  0.2540
    9MOL   H221 7437   5.213   8.162   2.989 -1.4446 -0.8673 -1.5149
    9MOL   H222 7438   5.112   8.312   3.159  2.4990  0.3853 -0.3007
    9MOL   H223 7439   5.195   8.308   2.552  0.1494  0.0274  0.2172
    9MOL   H224 7440   5.278   8.162   2.396 -0.7808  1.9872  0.9391
    9MOL   H225 7441   5.261   7.836   2.682  1.3446 -0.1809 -0.6634
    9MOL   H226 7442   5.170   7.998   2.850  0.9728  2.0437  1.4060
    9MOL   C227 7443   5.327   7.894   2.312 -0.5395  0.3177 -0.1914
    9MOL   C228 7444   5.425   7.890   2.211 -0.3087  0.2423  0.0906
    9MOL   C229 7445   5.390   7.866   2.077 -0.0760 -0.3068  0.3611
    9MOL   C230 7446   5.255   7.849   2.052  0.4550 -0.5031 -0.5827
    9MOL   C231 7447   5.151   7.855   2.148  0.3813  0.1652  0.1633
    9MOL   C232 7448   5.194   7.891   2.278 -0.1933 -0.6839 -0.0563
    9MOL   S233 7449   5.206   7.812   1.884  0.5438  0.0234  0.2686
    9MOL   O234 7450   5.318   7.828   1.791  0.2960 -0.3540 -0.3365
    9MOL   O235 7451   5.087   7.899   1.857 -0.2402 -0.3839  0.0854
    9MOL   C236 7452   5.151   7.643   1.872  0.3874  0.6406  0.2551
    9MOL   C237 7453   5.061   7.611   1.770 -0.6247  0.1319  0.2226
    9MOL   C238 7454   5.022   7.480   1.750 -0.3635  0.4829  0.2305
    9MOL   C239 7455   5.055   7.377   1.839 -0.0642 -0.5844 -0.4163
    9MOL   C240 7456   5.155   7.405   1.935  0.6855 -0.4142  0.7485
    9MOL   C241 7457   5.203   7.536   1.952 -0.3587 -0.0261  0.2831
    9MOL   O242 7458   5.013   7.246   1.821  0.4057  0.2856 -0.5771
    9MOL   C243 7459   5.103   7.145   1.776 -0.3986 -0.4534  0.0743
    9MOL   C244 7460   5.155   7.151   1.646 -0.3709 -0.4268  0.1483
    9MOL   C245 7461   5.249   7.052   1.608  0.1914  0.9405  0.5119
    9MOL   C246 7462   5.269   6.940   1.690  0.0051 -0.5132 -0.4093
    9MOL   C247 7463   5.221   6.942   1.824 -0.3567 -0.3143  0.1891
    9MOL   C248 7464   5.138   7.043   1.870 -0.3494  0.3927 -0.0063
    9MOL   C249 7465   5.358   6.831   1.653  0.4964  0.7557  0.0332
    9MOL   C250 7466   5.329   6.753   1.538  0.1504 -0.2274 -0.1033
    9MOL   C251 7467   5.417   6.645   1.495  0.4631 -0.2991 -0.0240
    9MOL   C252 7468   5.535   6.623   1.567 -0.0792  0.2992  0.1667
    9MOL   C253 7469   5.569   6.698   1.680  0.2574 -0.1838  0.0305
    9MOL   C254 7470   5.482   6.802   1.722  0.1491  0.5168 -0.2102
    9MOL   O255 7471   5.624   6.524   1.530  0.3839 -0.0855 -0.1448
    9MOL   H256 7472   5.527   7.899   2.244  0.4080 -0.6903 -1.7497
    9MOL   H257 7473   5.462   7.864   1.997  0.9858 -1.6049  1.3268
    9MOL   H258 7474   5.047   7.850   2.118  0.5051 -0.7915 -0.1049
    9MOL   H259 7475   5.127   7.906   2.361 -1.2979  3.7896 -1.6218
    9MOL   H260 7476   5.023   7.689   1.704  1.7408 -1.7229 -3.4742
    9MOL   H261 7477   4.958   7.450   1.668 -1.4992  0.1477  1.2088
    9MOL   H262 7478   5.180   7.314   1.986  3.0777 -1.3250 -1.9178
    9MOL   H263 7479   5.264   7.561   2.037 -1.2783 -0.4437  1.0741
    9MOL   H264 7480   5.117   7.236   1.591  2.1744  0.4753 -0.3218
    9MOL   H265 7481   5.290   7.039   1.508  0.8521  1.1043  0.7628
    9MOL   H266 7482   5.241   6.859   1.890 -1.4701 -0.4512  0.3562
    9MOL   H267 7483   5.110   7.045   1.974 -0.6486  0.3903 -0.0860
    9MOL   H268 7484   5.237   6.761   1.482 -0.0087 -2.8894 -0.2761
    9MOL   H269 7485   5.387   6.578   1.416  3.0812 -0.1640 -1.1808
    9MOL   H270 7486   5.663   6.679   1.730 -1.0611 -0.4544  2.5036
    9MOL   H271 7487   5.513   6.864   1.805 -1.7511  3.7351 -1.8396
    9MOL   C272 7488   5.736   6.556   1.452  1.1904  0.3678 -0.9061
    9MOL   C273 7489   5.763   6.684   1.398 -0.2966 -0.3601 -0.7318
    9MOL   C274 7490   5.881   6.703   1.314 -0.7840  0.5460 -0.3882
    9MOL   C275 7491   5.972   6.595   1.305  0.0137  0.3400 -0.3975
    9MOL   C276 7492   5.944   6.469   1.361  0.6427  0.1045 -0.6944
    9MOL   C277 7493   5.822   6.447   1.431  0.3716 -0.2175 -0.1186
    9MOL   S278 7494   6.118   6.613   1.212 -0.1855  0.6392  0.1672
    9MOL   O279 7495   6.110   6.520   1.099  0.0909  0.1128  0.2566
    9MOL   O280 7496   6.229   6.601   1.303 -0.2042 -0.1834 -0.3068
    9MOL   C281 7497   6.122   6.777   1.141  0.1013  0.2925 -0.1980
    9MOL   C282 7498   6.195   6.883   1.206  0.0054 -0.4600  0.0177
    9MOL   C283 7499   6.176   7.016   1.158 -0.2798 -0.4559 -0.7156
    9MOL   C284 7500   6.093   7.045   1.047  0.0229 -0.5633  0.5335
    9MOL   C285 7501   6.016   6.942   0.983 -0.4816 -0.1157  1.0029
    9MOL   C286 7502   6.040   6.804   1.029 -0.2015 -0.0799 -0.1401
    9MOL   O287 7503   6.067   7.181   1.009  0.3550  0.4765 -0.2502
    9MOL   C288 7504   6.017   7.265   1.097  0.8960 -0.6561 -0.4486
    9MOL   C289 7505   5.884   7.246   1.142 -0.5360 -0.2755  0.1866
    9MOL   C290 7506   5.815   7.343   1.216 -0.1828  0.2453  0.1432
    9MOL   C291 7507   5.883   7.454   1.266  0.3459 -0.0236 -0.4624
    9MOL   C292 7508   6.020   7.469   1.234 -0.2555  0.1067  0.2341
    9MOL   C293 7509   6.087   7.379   1.150  0.3548 -0.1207  0.2566
    9MOL   C294 7510   5.809   7.548   1.360 -0.6084  0.1822 -0.7688
    9MOL   C295 7511   5.694   7.508   1.420 -0.3565 -0.0339 -0.1360
    9MOL   C296 7512   5.624   7.592   1.509 -0.3967  0.0821  0.0226
    9MOL   C297 7513   5.672   7.719   1.542  0.2663  0.6899 -0.0860
    9MOL   C298 7514   5.789   7.768   1.483 -0.2722  0.2251 -0.0882
    9MOL   C299 7515   5.854   7.681   1.390  1.0590  0.0962 -0.0608
    9MOL   O300 7516   5.598   7.792   1.632  0.3040  0.0397  0.3414
    9MOL   H301 7517   5.690   6.761   1.413  1.1195  1.0588 -1.0609
    9MOL   H302 7518   5.891   6.803   1.274 -2.0217 -0.2833 -2.8872
    9MOL   H303 7519   6.008   6.382   1.355  1.8046  0.9703 -1.1467
    9MOL   H304 7520   5.804   6.356   1.486  1.5756  0.4925  1.4882
    9MOL   H305 7521   6.255   6.861   1.293 -0.4987  0.5663  0.6464
    9MOL   H306 7522   6.221   7.097   1.214 -2.1029 -1.2890  2.0621
    9MOL   H307 7523   5.944   6.953   0.903  1.5120 -1.3168 -1.0155
    9MOL   H308 7524   5.990   6.724   0.978  0.6893 -1.0394  0.4647
    9MOL   H309 7525   5.838   7.159   1.097  3.7056 -1.8983 -1.1858
    9MOL   H310 7526   5.710   7.326   1.238 -0.1570 -0.9002 -0.5923
    9MOL   H311 7527   6.071   7.554   1.278 -0.0148  0.3009 -0.4134
    9MOL   H312 7528   6.190   7.392   1.119  1.0282  0.2171  2.5063
    9MOL   H313 7529   5.653   7.408   1.417  2.5007 -1.2168 -1.6026
    9MOL   H314 7530   5.531   7.564   1.557 -1.6830  0.2130 -2.3472
    9MOL   H315 7531   5.834   7.864   1.505 -1.4074  0.7614 -0.0671
    9MOL   H316 7532   5.948   7.714   1.349  0.5060  0.4276 -1.0914
    9MOL   C317 7533   5.666   7.865   1.726  0.1252 -0.5485  0.3178
    9MOL   C318 7534   5.601   7.983   1.768 -0.2338  0.5106 -0.5216
    9MOL   C319 7535   5.657   8.070   1.857  0.3253 -0.1214 -0.5377
    9MOL   C320 7536   5.788   8.043   1.915 -0.7489  0.1589 -0.1853
    9MOL   C321 7537   5.854   7.919   1.887  0.6446 -0.4591  0.5678
    9MOL   C322 7538   5.796   7.837   1.784 -0.0850  0.3946 -0.2733
    9MOL   S323 7539   5.855   8.156   2.036  0.1582  0.0153 -0.0215
    9MOL   O324 7540   5.766   8.273   2.050  0.1668  0.4715 -0.1156
    9MOL   O325 7541   5.999   8.175   2.006  0.6677 -0.1120  0.0555
    9MOL   C326 7542   5.847   8.083   2.192  0.7250 -0.9848 -0.2164
    9MOL   C327 7543   5.784   7.959   2.222  0.0877  0.3673  0.0298
    9MOL   C328 7544   5.772   7.903   2.351  0.4048 -0.1153  0.5922
    9MOL   C329 7545   5.839   7.965   2.450 -0.7814 -1.2149 -0.6171
    9MOL   C330 7546   5.903   8.083   2.425 -0.0636 -0.0120 -0.2211
    9MOL   C331 7547   5.906   8.149   2.298  0.1166  0.1936  0.0870
    9MOL   O332 7548   5.827   7.919   2.582 -0.2392  0.0008 -0.2622
    9MOL   C333 7549   5.752   7.982   2.672  0.0232  0.3138 -0.3568
    9MOL   C334 7550   5.633   8.042   2.643 -0.4364  0.4687 -0.1132
    9MOL   C335 7551   5.567   8.114   2.745  0.4833  0.2457  0.3657
    9MOL   C336 7552   5.623   8.127   2.876  0.2573  0.0514 -0.2868
    9MOL   C337 7553   5.750   8.073   2.898 -0.2827  0.4362 -0.0689
    9MOL   C338 7554   5.814   8.003   2.796 -0.5215 -0.0171  1.1328
    9MOL   C339 7555   5.550   8.188   2.988 -0.1800 -0.0922  0.4697
    9MOL   C340 7556   5.503   8.321   2.969 -0.9623  0.1815 -0.2115
    9MOL   C341 7557   5.448   0.027   3.075  0.0339  0.4918 -0.1663
    9MOL   C342 7558   5.441   8.334   3.202 -0.7930 -0.1971 -0.3404
    9MOL   C343 7559   5.468   8.197   3.220  0.1432 -0.1710 -1.0752
    9MOL   C344 7560   5.526   8.127   3.111  0.2642  0.0219  0.4410
    9MOL   O345 7561   5.402   0.044   3.307  0.0871  0.0895  0.1441
    9MOL   H346 7562   5.506   8.000   1.719 -0.2097 -0.1094 -0.7894
    9MOL   H347 7563   5.621   8.166   1.888  1.6371  0.0277  0.5789
    9MOL   H348 7564   5.952   7.897   1.928  1.1453 -0.8400 -0.7981
    9MOL   H349 7565   5.847   7.749   1.748 -1.2500 -0.1256 -0.6608
    9MOL   H350 7566   5.748   7.895   2.142 -1.0771 -0.0575  0.8767
    9MOL   H351 7567   5.725   7.807   2.365 -0.8132  0.0857 -1.7756
    9MOL   H352 7568   5.938   8.142   2.509  0.7643  1.7101 -1.7330
    9MOL   H353 7569   5.938   8.252   2.291  0.8892  0.2366  3.5235
    9MOL   H354 7570   5.595   8.027   2.543  0.6772 -0.8861 -0.3415
    9MOL   H355 7571   5.466   8.151   2.732  0.5784 -0.0338 -1.3107
    9MOL   H356 7572   5.801   8.087   2.991  0.4147  0.9579 -0.5256
    9MOL   H357 7573   5.902   7.963   2.843  0.1204  0.4997  0.3956
    9MOL   H358 7574   5.524   0.002   2.874  2.5324 -1.1879 -0.2089
    9MOL   H359 7575   5.435   0.134   3.070  0.9785  0.6393  0.4197
    9MOL   H360 7576   5.460   8.150   3.316 -0.5052 -0.3425 -1.2126
    9MOL   H361 7577   5.557   8.024   3.126  2.3963  0.6104  0.3209
    9MOL   C362 7578   5.509   0.094   3.376 -0.1566 -0.0040  0.0041
    9MOL   C363 7579   5.565   0.217   3.346  0.2669  0.0622 -0.2161
    9MOL   C364 7580   5.678   0.265   3.412 -0.2301 -0.4164 -0.0138
    9MOL   C365 7581   5.743   0.194   3.512 -0.1500 -0.1999 -0.3501
    9MOL   C366 7582   5.690   0.071   3.543 -0.0723  0.2178 -0.1468
    9MOL   C367 7583   5.573   0.018   3.473 -0.1260 -0.1385 -0.8307
    9MOL   S368 7584   5.878   0.260   3.606 -0.2412  0.4339  0.0280
    9MOL   O369 7585   5.824   0.310   3.737 -1.5579  0.3079  0.2079
    9MOL   O370 7586   5.957   0.359   3.528  0.2267  0.1611  0.2742
    9MOL   C371 7587   5.977   0.115   3.632 -0.4186 -0.9746  0.2827
    9MOL   C372 7588   5.991   0.068   3.761  0.3418 -0.3921 -0.4064
    9MOL   C373 7589   6.083   8.327   3.793 -0.3432 -0.2223 -0.2059
    9MOL   C374 7590   6.146   8.257   3.687 -0.3297 -0.7062  0.4971
    9MOL   C375 7591   6.127   8.308   3.555  0.4068 -0.0500 -0.0930
    9MOL   C376 7592   6.056   0.062   3.523  0.2634  0.0840  0.0866
    9MOL   O377 7593   6.231   8.151   3.712 -0.1453 -0.4453 -0.1905
    9MOL   C378 7594   6.178   8.029   3.670 -0.6950  0.0173 -0.8769
    9MOL   C379 7595   6.249   7.956   3.571  0.8523  0.3348  0.1563
    9MOL   C380 7596   6.193   7.834   3.529  0.2868  0.0741  0.1031
    9MOL   C381 7597   6.086   7.771   3.591 -0.8386 -0.9593  0.4558
    9MOL   C382 7598   6.023   7.848   3.689 -0.0925 -0.3276 -0.7828
    9MOL   C383 7599   6.063   7.976   3.728  0.2873  0.3285 -0.2647
    9MOL   C384 7600   6.030   7.642   3.550 -0.2721  0.4750  0.5457
    9MOL   C385 7601   5.950   7.560   3.637 -0.4180 -0.0885 -0.9944
    9MOL   C386 7602   5.895   7.436   3.597  0.1593  0.0766  0.0102
    9MOL   C387 7603   5.903   7.402   3.458  0.4943 -0.1713  0.7787
    9MOL   C388 7604   5.969   7.487   3.367  0.0356  0.7655 -0.1200
    9MOL   C389 7605   6.034   7.604   3.411  0.2203  0.2342  0.3498
    9MOL   O390 7606   5.837   7.288   3.413 -0.2076  0.7371  0.2330
    9MOL   H391 7607   5.526   0.283   3.269 -2.5123  0.0256  1.0847
    9MOL   H392 7608   5.719   0.362   3.390 -0.7110  0.0514  1.1238
    9MOL   H393 7609   5.735   0.010   3.621 -0.5523 -0.2533 -0.2405
    9MOL   H394 7610   5.540   8.285   3.499 -1.2981  0.4000 -0.2661
    9MOL   H395 7611   5.939   0.117   3.842 -1.3807 -2.3541 -0.2767
    9MOL   H396 7612   6.085   8.305   3.898  0.1121 -1.7363 -0.5125
    9MOL   H397 7613   6.177   8.257   3.474  1.6659 -0.1825  0.7506
    9MOL   H398 7614   6.049   0.096   3.421 -0.3170  0.9794  0.4244
    9MOL   H399 7615   6.329   8.004   3.517  1.7636 -1.1869  0.1146
    9MOL   H400 7616   6.232   7.780   3.444  1.8700  1.2622  0.0359
    9MOL   H401 7617   5.929   7.812   3.728 -0.0448 -1.6509 -1.8248
    9MOL   H402 7618   6.007   8.030   3.804  1.1961  2.6862 -1.2096
    9MOL   H403 7619   5.930   7.592   3.738  0.9798  1.1495 -1.0901
    9MOL   H404 7620   5.850   7.372   3.673 -0.3996  0.6874  0.2022
    9MOL   H405 7621   5.971   7.445   3.268 -0.8510  1.2376 -0.3383
    9MOL   H406 7622   6.085   7.662   3.335 -0.3378 -0.5360 -0.6319
    9MOL   C407 7623   5.701   7.278   3.449 -0.1957 -0.0917 -0.4194
    9MOL   C408 7624   5.667   7.164   3.517 -0.1588  0.2870 -0.6309
    9MOL   C409 7625   5.541   7.154   3.567  0.1021 -0.0654 -0.1266
    9MOL   C410 7626   5.449   7.260   3.569  0.3658 -0.1494  0.2865
    9MOL   C411 7627   5.482   7.380   3.495 -0.7011 -0.5768 -0.4692
    9MOL   C412 7628   5.612   7.381   3.439  0.4002 -0.5176  0.1046
    9MOL   S413 7629   5.295   7.256   3.665  0.1721  0.2424  0.4998
    9MOL   O414 7630   5.305   7.136   3.751  0.1723  0.0946  0.4920
    9MOL   O415 7631   5.175   7.278   3.581 -0.1095  0.5055 -0.0730
    9MOL   C416 7632   5.299   7.401   3.771 -0.1091  0.3094  0.1735
    9MOL   C417 7633   5.182   7.433   3.848  0.2165 -0.2456  0.4026
    9MOL   C418 7634   5.187   7.534   3.947  0.3373  0.1594  0.3816
    9MOL   C419 7635   5.303   7.605   3.961 -0.5275  0.1891  0.1929
    9MOL   C420 7636   5.419   7.580   3.890 -0.1344  0.3887 -0.6565
    9MOL   C421 7637   5.419   7.476   3.797  0.3730 -0.2442 -0.4249
    9MOL   O422 7638   5.321   7.695   4.066  0.4029 -0.4347 -0.9620
    9MOL   C423 7639   5.218   7.753   4.132 -0.3194 -0.6470 -0.3639
    9MOL   C424 7640   5.135   7.849   4.075 -0.1328  0.1841 -0.1077
    9MOL   C425 7641   5.037   7.922   4.146  0.1583 -0.0391 -0.3439
    9MOL   C426 7642   5.022   7.911   4.287 -0.5503  0.3194 -0.4285
    9MOL   C427 7643   5.096   7.800   4.337 -0.9428  0.0624  0.3364
    9MOL   C428 7644   5.190   7.723   4.264 -0.0173  0.4226 -0.0883
    9MOL   C429 7645   4.924   7.982   4.372  0.2694 -0.7742  0.5662
    9MOL   C430 7646   4.954   7.995   4.509  0.0968 -0.3691 -0.0132
    9MOL   C431 7647   4.862   8.063   4.591  0.4436 -0.7617  0.4239
    9MOL   C432 7648   4.746   8.128   4.546  0.2488  0.3804 -0.4270
    9MOL   C433 7649   4.721   8.121   4.406  0.0073 -0.9980  0.7442
    9MOL   C434 7650   4.809   8.049   4.319  0.4668  0.0139  0.1657
    9MOL   O435 7651   4.663   8.195   4.633 -0.5089 -0.4381 -0.4876
    9MOL   H436 7652   5.738   7.087   3.542 -0.4214  0.1638 -0.2584
    9MOL   H437 7653   5.518   7.062   3.620  1.6357  0.3608  1.2976
    9MOL   H438 7654   5.420   7.468   3.492 -1.6514 -1.2494 -1.0493
    9MOL   H439 7655   5.650   7.477   3.407 -1.9461  0.5172  0.3616
    9MOL   H440 7656   5.094   7.377   3.820  1.1362 -1.7509  0.4604
    9MOL   H441 7657   5.101   7.550   4.011 -0.4776 -1.5249 -0.2674
    9MOL   H442 7658   5.510   7.637   3.897 -1.3816  2.1586  2.3201
    9MOL   H443 7659   5.511   7.448   3.747  0.2509 -1.0290 -0.2262
    9MOL   H444 7660   5.145   7.864   3.969 -1.3172  0.9867 -0.1103
    9MOL   H445 7661   4.982   7.991   4.083 -0.2238 -0.5460 -0.5642
    9MOL   H446 7662   5.079   7.778   4.441 -1.8439  0.6222  0.3209
    9MOL   H447 7663   5.247   7.642   4.308  0.6574 -0.5216 -2.6001
    9MOL   H448 7664   5.035   7.945   4.559  0.3591 -0.0413 -0.1082
    9MOL   H449 7665   4.878   8.069   4.697 -1.1163  0.6056  0.5922
    9MOL   H450 7666   4.637   8.174   4.365  1.4558 -0.7060 -1.9144
    9MOL   H451 7667   4.790   8.056   4.213 -1.1853  0.6932  0.5003
    9MOL   C452 7668   4.530   8.163   4.645  0.1235  0.0896 -0.0359
    9MOL   C453 7669   4.479   8.031   4.646 -0.1225 -0.4036 -0.2519
    9MOL   C454 7670   4.342   8.010   4.652  0.1152 -0.0037  0.4800
    9MOL   C455 7671   4.254   8.116   4.670  0.8273 -0.5120 -0.3059
    9MOL   C456 7672   4.299   8.246   4.678  0.5728 -0.7286 -0.0781
    9MOL   C457 7673   4.437   8.271   4.662 -0.7756 -0.0895 -0.0385
    9MOL   S458 7674   4.075   8.081   4.680  0.0189  0.1045 -0.1135
    9MOL   O459 7675   4.039   7.998   4.565 -0.2744 -0.5977 -0.4212
    9MOL   O460 7676   4.010   8.212   4.705 -0.2278  0.1417 -0.3802
    9MOL   C461 7677   4.047   7.981   4.828 -0.1505  0.0164 -0.5156
    9MOL   C462 7678   3.981   7.858   4.825 -0.2678  0.2959  0.5044
    9MOL   C463 7679   3.966   7.775   4.938 -0.8839  0.1885  0.9569
    9MOL   C464 7680   4.005   7.829   5.061  0.0162  0.5567  0.4304
    9MOL   C465 7681   4.065   7.953   5.067 -0.2617  0.6033 -0.1204
    9MOL   C466 7682   4.094   8.027   4.949 -0.2550 -0.3709 -0.3463
    9MOL   O467 7683   3.991   7.759   5.176  0.2544 -0.2304 -0.4086
    9MOL   C468 7684   3.976   7.623   5.179 -0.6209 -0.5131 -0.1754
    9MOL   C469 7685   4.084   7.540   5.199  0.0833  0.1009 -0.2072
    9MOL   C470 7686   4.058   7.404   5.209 -0.1340 -0.1076  0.7553
    9MOL   C471 7687   3.928   7.352   5.214 -0.3795 -0.2522 -0.0550
    9MOL   C472 7688   3.818   7.442   5.195  0.2613  0.6596 -0.6505
    9MOL   C473 7689   3.845   7.577   5.168 -0.1639  0.2710  0.2686
    9MOL   C474 7690   3.907   7.205   5.235 -0.1144 -0.2301  0.5183
    9MOL   C475 7691   3.845   7.124   5.139  0.2348  0.2104  0.6810
    9MOL   C476 7692   3.813   6.993   5.174  0.4620 -0.2797 -0.0074
    9MOL   C477 7693   3.867   6.931   5.296 -0.4976 -0.2006  1.0569
    9MOL   C478 7694   3.941   7.009   5.387  0.3006 -0.1030 -0.3410
    9MOL   C479 7695   3.961   7.146   5.352 -0.9060  0.0785  0.7385
    9MOL   O480 7696   3.839   6.800   5.327  0.2604  0.2451  0.7212
    9MOL   H481 7697   4.538   7.941   4.646  1.7055  0.7619  0.0217
    9MOL   H482 7698   4.304   7.909   4.642 -1.7882  0.7814 -0.6052
    9MOL   H483 7699   4.231   8.328   4.693  0.1588 -1.1085  0.1430
    9MOL   H484 7700   4.475   0.006   4.659 -0.6424 -0.1691 -1.5078
    9MOL   H485 7701   3.941   7.821   4.731 -0.5340  2.3986 -0.2300
    9MOL   H486 7702   3.927   7.674   4.932 -1.7452  0.5878 -0.5342
    9MOL   H487 7703   4.103   7.993   5.160 -0.2888 -0.0243  0.1660
    9MOL   H488 7704   4.158   8.114   4.945 -2.4113  1.2398 -0.2668
    9MOL   H489 7705   4.186   7.578   5.196  0.4447 -0.9370 -1.6025
    9MOL   H490 7706   4.142   7.336   5.214 -1.0411 -1.2546  0.7524
    9MOL   H491 7707   3.717   7.405   5.195  0.8094 -0.9781 -3.5194
    9MOL   H492 7708   3.765   7.645   5.142  0.8071  0.3066 -2.8787
    9MOL   H493 7709   3.816   7.169   5.044  0.5373  1.4289  1.1536
    9MOL   H494 7710   3.774   6.927   5.098  0.7165 -0.4322 -0.0052
    9MOL   H495 7711   3.982   6.963   5.475 -2.2550  0.5133  1.2228
    9MOL   H496 7712   4.009   7.213   5.422 -1.0947 -0.2783  1.2115
    9MOL   C497 7713   3.951   6.716   5.323  0.3852 -0.0481 -0.0605
    9MOL   C498 7714   4.053   6.738   5.224  0.5758 -0.4040 -0.0484
    9MOL   C499 7715   4.156   6.644   5.207  0.5290 -0.1265  0.3296
    9MOL   C500 7716   4.148   6.525   5.283 -0.0445  0.9239  0.6512
    9MOL   C501 7717   4.054   6.506   5.391  0.0824 -0.0173 -0.3110
    9MOL   C502 7718   3.950   6.601   5.406 -0.1214 -0.0436  0.5886
    9MOL   S503 7719   4.282   6.405   5.275  0.3206  0.1714 -0.5224
    9MOL   O504 7720   4.225   6.273   5.305 -0.3972 -0.5914  0.0116
    9MOL   O505 7721   4.378   6.457   5.369 -0.2974 -0.6188  0.3249
    9MOL   C506 7722   4.343   6.408   5.107  1.3956  0.5192 -0.1243
    9MOL   C507 7723   4.480   6.374   5.073  0.2949  0.7861 -0.4834
    9MOL   C508 7724   4.520   6.360   4.942  0.9768  0.0772 -0.1084
    9MOL   C509 7725   4.426   6.372   4.840  0.2168  0.3225 -0.4318
    9MOL   C510 7726   4.290   6.404   4.873 -0.3552  0.4948 -0.4627
    9MOL   C511 7727   4.248   6.422   5.001 -0.2906  0.5037  0.3471
    9MOL   O512 7728   4.455   6.342   4.712  0.3095 -0.1750 -0.0986
    9MOL   C513 7729   4.516   6.434   4.633  0.6384 -0.6397 -0.0163
    9MOL   C514 7730   4.450   6.481   4.519  0.0116 -0.6559  0.0259
    9MOL   C515 7731   4.513   6.573   4.434  0.1508  0.1887  0.2661
    9MOL   C516 7732   4.647   6.610   4.454 -0.0185 -0.5036 -0.6501
    9MOL   C517 7733   4.717   6.570   4.568  0.5169 -0.7584  0.0362
    9MOL   C518 7734   4.647   6.476   4.659 -0.1130  0.1081  0.2954
    9MOL   C519 7735   4.708   6.700   4.355 -0.2592  0.3431 -0.4624
    9MOL   C520 7736   4.846   6.699   4.333 -0.6742  0.7996  0.2773
    9MOL   C521 7737   4.913   6.787   4.245  0.1138  0.4031 -0.5722
    9MOL   C522 7738   4.837   6.876   4.171 -0.1425 -0.1376  0.2577
    9MOL   C523 7739   4.696   6.889   4.194 -1.1337 -1.0212 -0.7150
    9MOL   C524 7740   4.631   6.799   4.283 -0.3552 -0.0510  0.6606
    9MOL   O525 7741   4.895   6.955   4.080 -0.2579 -0.4307 -0.6661
    9MOL   H526 7742   4.048   6.821   5.156  1.0430 -0.9539 -0.7570
    9MOL   H527 7743   4.235   6.661   5.134 -0.9085 -0.2418 -1.2790
    9MOL   H528 7744   4.065   6.413   5.445  1.2797  0.6941  0.7025
    9MOL   H529 7745   3.870   6.587   5.477  0.6482 -1.0639  1.2590
    9MOL   H530 7746   4.553   6.372   5.153 -1.8954 -0.4774  1.5626
    9MOL   H531 7747   4.619   6.349   4.901  0.2935  1.1479 -2.0833
    9MOL   H532 7748   4.215   6.415   4.796 -0.1885  1.9704 -0.4176
    9MOL   H533 7749   4.144   6.443   5.019 -0.1124  1.2116  0.5536
    9MOL   H534 7750   4.345   6.461   4.501 -1.1137  3.3820  1.4055
    9MOL   H535 7751   4.457   6.624   4.357  2.8240 -1.0551 -2.5844
    9MOL   H536 7752   4.816   6.610   4.580 -1.1434  3.2389  1.2788
    9MOL   H537 7753   4.711   6.434   4.735 -2.1187 -0.5796  1.6250
    9MOL   H538 7754   4.910   6.631   4.387  0.4037  0.2802 -1.6309
    9MOL   H539 7755   5.021   6.786   4.234  0.1595 -1.3242 -0.1759
    9MOL   H540 7756   4.639   6.966   4.146 -1.8824 -1.1917 -0.1173
    9MOL   H541 7757   4.529   6.820   4.311 -1.0343 -0.2251 -1.5505
    9MOL   C542 7758   5.000   7.038   4.111  0.2038  0.5783  0.3983
    9MOL   C543 7759   5.109   7.059   4.022  0.7866  0.2965  0.5420
    9MOL   C544 7760   5.218   7.136   4.057 -0.5400 -0.2288  0.4189
    9MOL   C545 7761   5.221   7.193   4.187  0.2518  0.0994  0.4452
    9MOL   C546 7762   5.114   7.176   4.274  0.2867 -0.9654 -0.8463
    9MOL   C547 7763   5.010   7.092   4.245  0.2256 -0.0419  0.2448
    9MOL   S548 7764   5.364   7.294   4.237  0.4313 -0.0528 -0.3451
    9MOL   O549 7765   5.320   7.395   4.335 -0.1335  0.5006 -0.7851
    9MOL   O550 7766   5.432   7.345   4.112  0.3773  0.4553 -0.3490
    9MOL   C551 7767   5.484   7.178   4.318 -0.2619 -0.4552  0.0355
    9MOL   C552 7768   5.557   7.220   4.432  0.6040  0.3589 -0.1622
    9MOL   C553 7769   5.669   7.144   4.476  0.5049 -0.1939 -0.7211
    9MOL   C554 7770   5.692   7.019   4.418  0.1731 -0.6724 -0.4357
    9MOL   C555 7771   5.607   6.974   4.309  0.0237 -0.2343 -0.1889
    9MOL   C556 7772   5.514   7.061   4.252  0.0947  0.6067  0.1115
    9MOL   O557 7773   5.798   6.947   4.474  0.4061  0.1079  1.1729
    9MOL   C558 7774   5.867   6.862   4.387  0.0965 -0.2993  0.3563
    9MOL   C559 7775   5.893   6.729   4.427  0.0382 -0.1009 -0.0974
    9MOL   C560 7776   5.953   6.640   4.342  0.2043 -0.3191 -0.0273
    9MOL   C561 7777   6.005   6.683   4.216  0.2085  0.1175 -0.8049
    9MOL   C562 7778   5.970   6.813   4.169 -0.3335 -0.2277 -0.3260
    9MOL   C563 7779   5.906   6.906   4.260  0.2538  0.7112  0.0154
    9MOL   C564 7780   6.083   6.589   4.132 -0.1417 -1.0210  0.2300
    9MOL   C565 7781   6.208   6.624   4.084 -0.2387  0.8227  0.9050
    9MOL   C566 7782   6.299   6.537   4.025 -0.1863  0.1961  0.6078
    9MOL   C567 7783   6.257   6.407   3.999  0.5568  0.3526 -0.0251
    9MOL   C568 7784   6.125   6.374   4.027  0.3081  0.1063  0.2283
    9MOL   C569 7785   6.036   6.464   4.096  0.7219  0.2002  0.1556
    9MOL   O570 7786   6.339   6.325   3.925  0.0608 -0.0701  0.1727
    9MOL   H571 7787   5.112   7.016   3.923 -1.9481  1.3577 -0.0412
    9MOL   H572 7788   5.297   7.154   3.985 -1.1665 -1.3274 -0.5532
    9MOL   H573 7789   5.126   7.229   4.367 -3.3219  2.0991 -1.9937
    9MOL   H574 7790   4.931   7.079   4.317 -1.9493 -1.9241 -2.3767
    9MOL   H575 7791   5.541   7.313   4.484 -1.8567  0.3313 -0.7871
    9MOL   H576 7792   5.732   7.175   4.558  0.3390  0.1185 -0.7083
    9MOL   H577 7793   5.618   6.875   4.267  2.7150 -0.9588  2.0730
    9MOL   H578 7794   5.462   7.034   4.161 -0.5458  0.9314  0.3828
    9MOL   H579 7795   5.871   6.712   4.531 -0.2143 -0.8678 -0.2731
    9MOL   H580 7796   5.973   6.539   4.374 -1.2553 -1.1080 -1.4940
    9MOL   H581 7797   5.988   6.847   4.068  0.5798 -1.7195 -0.6797
    9MOL   H582 7798   5.884   7.002   4.217  0.9258  1.6921  1.8243
    9MOL   H583 7799   6.240   6.725   4.105 -0.0876  0.4511  2.4934
    9MOL   H584 7800   6.387   6.578   3.978  0.4599 -1.8822 -0.0520
    9MOL   H585 7801   6.089   6.275   4.007  0.9313  0.1765 -1.3326
    9MOL   H586 7802   5.942   6.423   4.131  2.2163 -3.2077  0.3814
    9MOL   C587 7803   6.282   6.210   3.871  0.4400  0.2884  0.3600
    9MOL   C588 7804   6.274   6.096   3.949  0.0098  0.3014 -0.2356
    9MOL   C589 7805   6.213   5.976   3.904  0.2195 -0.9548 -0.1771
    9MOL   C590 7806   6.163   5.975   3.774 -0.4708 -0.2523 -1.0995
    9MOL   C591 7807   6.166   6.091   3.696  0.2561 -0.2522 -0.6064
    9MOL   C592 7808   6.225   6.212   3.744 -0.4024 -0.0527  0.0509
    9MOL   S593 7809   6.077   5.832   3.704 -0.1326 -0.1866 -0.4051
    9MOL   O594 7810   5.946   5.882   3.657  0.1096  0.3481 -0.2623
    9MOL   O595 7811   6.082   5.726   3.803  0.5483  0.6061 -0.1487
    9MOL   C596 7812   6.156   5.757   3.556 -0.3844 -1.0019 -0.5251
    9MOL   C597 7813   6.299   5.776   3.543  0.5967  0.5320 -0.6039
    9MOL   C598 7814   6.363   5.707   3.432  0.4556  0.2296 -0.1899
    9MOL   C599 7815   6.280   5.629   3.349 -0.0794  0.9714  0.5446
    9MOL   C600 7816   6.143   5.627   3.365 -0.5106 -0.3646  0.0159
    9MOL   C601 7817   6.079   5.689   3.465  0.4435  0.0159  0.7768
    9MOL   O602 7818   6.330   5.546   3.254 -0.3078  0.2132 -0.0377
    9MOL   C603 7819   6.304   5.411   3.263  0.4532  0.0632  0.4552
    9MOL   C604 7820   6.214   5.348   3.179 -0.1328 -0.3777  0.3698
    9MOL   C605 7821   6.187   5.212   3.196  0.1407 -0.0928  0.1884
    9MOL   C606 7822   6.249   5.138   3.301  0.1340  0.3642 -0.5991
    9MOL   C607 7823   6.338   5.210   3.390  0.0752  0.6272  0.6655
    9MOL   C608 7824   6.367   5.343   3.367  0.3072  0.1945 -0.1778
    9MOL   C609 7825   6.227   4.995   3.314 -0.4529  0.1897  0.4060
    9MOL   C610 7826   6.202   4.919   3.195 -0.8713 -0.2121  0.0117
    9MOL   C611 7827   6.182   4.776   3.202 -0.8493 -0.4424 -0.3417
    9MOL   C612 7828   6.180   4.712   3.326  0.0373 -0.1659  0.0824
    9MOL   C613 7829   6.195   4.789   3.450  0.1217  0.6799  0.7996
    9MOL   C614 7830   6.229   4.924   3.435 -0.0216 -0.4087 -0.4796
    9MOL   O615 7831   6.168   4.576   3.348  1.0117  0.4992  0.0640
    9MOL   H616 7832   6.309   6.112   4.050  0.4165  2.9879 -0.7689
    9MOL   H617 7833   6.196   5.884   3.958  2.1245 -1.6687 -0.7503
    9MOL   H618 7834   6.120   6.103   3.599  0.1980 -1.1779 -0.6988
    9MOL   H619 7835   6.240   6.302   3.685  2.0536  0.3965  1.2768
    9MOL   H620 7836   6.347   5.834   3.620 -2.0206  2.3529 -0.2796
    9MOL   H621 7837   6.470   5.708   3.416  0.0570  2.4788 -3.4035
    9MOL   H622 7838   6.080   5.579   3.292  1.3526  1.7912 -3.1224
    9MOL   H623 7839   5.974   5.671   3.482  0.5558 -0.6912  0.7315
    9MOL   H624 7840   6.163   5.408   3.105  1.1108  0.8555  0.4933
    9MOL   H625 7841   6.117   5.164   3.128  1.6211 -1.4701 -0.3680
    9MOL   H626 7842   6.373   5.163   3.480 -0.3811  0.5367  0.7998
    9MOL   H627 7843   6.424   5.397   3.441  0.1630 -0.9397  0.7735
    9MOL   H628 7844   6.203   4.953   3.093  1.7879  0.3553  0.1829
    9MOL   H629 7845   6.167   4.718   3.111 -3.4740  0.3216 -0.4440
    9MOL   H630 7846   6.190   4.742   3.547  0.9423 -1.3722 -0.1183
    9MOL   H631 7847   6.246   4.979   3.527 -1.7636 -1.5553  0.5541
    9MOL   C632 7848   6.151   4.500   3.245  0.2168 -0.5808  0.3500
    9MOL   C633 7849   6.253   4.419   3.192  0.8897 -0.9080  0.0080
    9MOL   C634 7850   6.217   4.337   3.086 -0.3164  0.2448 -0.2469
    9MOL   C635 7851   6.084   4.329   3.040 -0.3482  0.4737  0.2445
    9MOL   C636 7852   5.987   4.408   3.097  0.6824  0.6031 -0.2406
    9MOL   C637 7853   6.018   4.495   3.201  0.7118 -0.0644 -0.7302
    9MOL   S638 7854   6.043   4.215   2.909  0.0865 -0.0153  0.3246
    9MOL   O639 7855   6.093   4.085   2.951 -0.1918  0.3105 -0.1959
    9MOL   O640 7856   6.103   4.265   2.788 -0.3717  0.6141  0.1110
    9MOL   C641 7857   5.859   4.210   2.883 -0.6139  0.3468  0.3534
    9MOL   C642 7858   5.790   4.310   2.816  0.0689  0.4856 -0.0158
    9MOL   C643 7859   5.650   4.304   2.799 -0.3644 -0.1755 -0.5237
    9MOL   C644 7860   5.582   4.190   2.850  0.2437 -0.2790  0.3593
    9MOL   C645 7861   5.651   4.085   2.912 -0.3358  0.5074 -0.6273
    9MOL   C646 7862   5.791   4.095   2.921 -0.6505  0.1768 -0.4187
    9MOL   O647 7863   5.443   4.171   2.833 -0.7844 -0.2342 -0.0154
    9MOL   C648 7864   5.352   4.273   2.869 -1.0331  0.2981  0.2713
    9MOL   C649 7865   5.335   4.317   3.000 -0.0449 -0.4125 -0.0017
    9MOL   C650 7866   5.255   4.428   3.029 -0.1623 -0.3691  0.5358
    9MOL   C651 7867   5.199   4.501   2.922 -0.5621 -0.0609 -0.1654
    9MOL   C652 7868   5.226   4.457   2.790 -1.1693 -0.1262  0.2375
    9MOL   C653 7869   5.294   4.343   2.766  0.3954 -0.2334  0.0823
    9MOL   C654 7870   5.128   4.630   2.941 -0.5219  0.3751 -0.2425
    9MOL   C655 7871   5.037   4.645   3.050  0.6428  0.5848  0.5884
    9MOL   C656 7872   4.971   4.765   3.076 -0.4792  0.5330  0.3664
    9MOL   C657 7873   4.988   4.871   2.985  0.0605  0.5628  0.3320
    9MOL   C658 7874   5.085   4.859   2.886 -0.0925 -0.0286  0.3266
    9MOL   C659 7875   5.154   4.741   2.860 -0.1845 -0.5172  1.1562
    9MOL   O660 7876   4.905   4.980   3.005  0.1025  0.1036 -0.2537
    9MOL   H661 7877   6.353   4.418   3.231  0.0698 -2.0251  2.1655
    9MOL   H662 7878   6.297   4.278   3.042 -0.7826  0.3645 -1.2729
    9MOL   H663 7879   5.886   4.398   3.060 -0.6376  1.9673  2.7988
    9MOL   H664 7880   5.953   4.571   3.243 -0.4568  0.6049 -3.6339
    9MOL   H665 7881   5.843   4.398   2.780  2.4907 -0.3303  1.4359
    9MOL   H666 7882   5.596   4.385   2.754  0.3698  1.7874  1.9944
    9MOL   H667 7883   5.606   3.994   2.951 -0.8003  1.6707  1.5988
    9MOL   H668 7884   5.843   4.011   2.964  1.1226  0.2146 -2.3733
    9MOL   H669 7885   5.388   4.267   3.080  0.1514  2.3603  1.6638
    9MOL   H670 7886   5.240   4.463   3.130  3.0931  1.4286  0.4636
    9MOL   H671 7887   5.184   4.507   2.703 -1.1856  0.2658  0.4694
    9MOL   H672 7888   5.317   4.313   2.664  0.6108 -0.2228  0.1291
    9MOL   H673 7889   5.000   4.557   3.100  0.8338  0.4531  0.4996
    9MOL   H674 7890   4.903   4.768   3.160 -1.9041 -0.3877 -0.7113
    9MOL   H675 7891   5.118   4.940   2.822 -2.4627  0.2430 -0.5880
    9MOL   H676 7892   5.224   4.737   2.778 -1.2227 -2.9732  0.3436
    9MOL   C677 7893   4.962   5.103   2.998 -0.2401 -0.8810 -0.1710
    9MOL   C678 7894   4.899   5.205   2.922  0.2699  0.3454  0.2015
    9MOL   C679 7895   4.944   5.339   2.925  0.3230  0.8406  0.3597
    9MOL   C680 7896   5.045   5.370   3.017 -0.2730 -0.0435  0.4360
    9MOL   C681 7897   5.102   5.272   3.102  0.1953 -0.2634  0.2269
    9MOL   C682 7898   5.065   5.139   3.088 -0.1160 -0.0311  0.6641
    9MOL   S683 7899   5.084   5.547   3.023  0.2000 -0.1777 -0.1342
    9MOL   O684 7900   5.007   5.594   3.139  0.0963  0.0930  0.4943
    9MOL   O685 7901   5.058   5.595   2.887 -0.8035  0.2389  0.5775
    9MOL   C686 7902   5.256   5.557   3.059  0.7032 -0.2169 -0.4349
    9MOL   C687 7903   5.309   5.546   3.190 -0.2010 -0.2395 -0.3360
    9MOL   C688 7904   5.444   5.570   3.222 -0.0975 -0.2711  0.7909
    9MOL   C689 7905   5.532   5.602   3.117 -0.6536  0.1398 -0.9836
    9MOL   C690 7906   5.486   5.603   2.983 -0.1239 -0.1313 -0.5145
    9MOL   C691 7907   5.353   5.578   2.953  0.1189  0.7154  0.3985
    9MOL   O692 7908   5.665   5.618   3.134 -0.7564 -0.4951  0.1329
    9MOL   C693 7909   5.699   5.747   3.169 -0.2267  0.3691  0.1362
    9MOL   C694 7910   5.756   5.772   3.289  0.3185  0.0419  0.2367
    9MOL   C695 7911   5.792   5.900   3.324  0.1268 -0.9723 -0.3783
    9MOL   C696 7912   5.774   6.008   3.237  0.2509  0.3695 -0.2934
    9MOL   C697 7913   5.704   5.987   3.110  0.0774 -0.0424 -0.0482
    9MOL   C698 7914   5.671   5.855   3.077 -0.0187  0.9978 -0.4214
    9MOL   C699 7915   5.833   6.142   3.280 -0.1903  0.5779  0.7539
    9MOL   C700 7916   5.950   6.154   3.355 -0.0869 -0.2259  0.2301
    9MOL   C701 7917   6.002   6.271   3.407 -0.0432  0.1515 -0.3408
    9MOL   C702 7918   5.926   6.389   3.384  0.4070  1.4717 -0.2398
    9MOL   C703 7919   5.810   6.381   3.300  0.3549 -0.8860  0.5118
    9MOL   C704 7920   5.767   6.260   3.249 -0.4973  0.1462 -0.0882
    9MOL   O705 7921   5.973   6.505   3.446  0.6646  1.0356  0.1376
    9MOL   H706 7922   4.814   5.182   2.861  1.5930 -1.5746 -0.9819
    9MOL   H707 7923   4.898   5.418   2.868  2.1261  2.6752  1.3725
    9MOL   H708 7924   5.172   5.302   3.179  0.6877  0.2158 -0.4020
    9MOL   H709 7925   5.103   5.062   3.153 -2.4483 -0.3342  1.7520
    9MOL   H710 7926   5.240   5.526   3.271  1.0228 -0.0329  0.7792
    9MOL   H711 7927   5.472   5.556   3.326 -2.2774 -0.1582  1.4095
    9MOL   H712 7928   5.563   5.615   2.907 -1.3207  0.7191 -1.6203
    9MOL   H713 7929   5.315   5.567   2.852  1.8979  0.5752 -0.2713
    9MOL   H714 7930   5.767   5.694   3.363  0.1961  1.8406  2.1838
    9MOL   H715 7931   5.840   5.921   3.419 -0.2063  1.5038 -0.7086
    9MOL   H716 7932   5.679   6.064   3.038 -1.3450 -1.6339 -1.3011
    9MOL   H717 7933   5.639   5.824   2.979  0.2612  0.2988 -0.2951
    9MOL   H718 7934   6.003   6.061   3.369 -1.2457 -0.6464  2.0688
    9MOL   H719 7935   6.094   6.282   3.462  1.4766 -0.1070 -2.7456
    9MOL   H720 7936   5.757   6.473   3.282  0.6264 -0.8171  0.0776
    9MOL   H721 7937   5.683   6.255   3.181  0.4831 -0.9526 -1.2246
    9MOL   C722 7938   5.881   6.566   3.525 -0.4612  0.5018  0.1716
    9MOL   C723 7939   5.808   6.677   3.487 -0.5171  0.3384 -0.7080
    9MOL   C724 7940   5.727   6.741   3.581  0.1757  0.6578  0.9161
    9MOL   C725 7941   5.715   6.695   3.709 -0.1220 -0.3874  0.5126
    9MOL   C726 7942   5.784   6.570   3.746  0.0961 -0.6757 -0.1001
    9MOL   C727 7943   5.865   6.509   3.653 -0.0657 -0.6412  0.3339
    9MOL   S728 7944   5.624   6.799   3.830 -0.0199  0.1518 -0.2848
    9MOL   O729 7945   5.644   6.729   3.957  0.2018  0.5718  0.2631
    9MOL   O730 7946   5.484   6.816   3.777  0.5184  0.0656  0.5036
    9MOL   C731 7947   5.704   6.961   3.849  0.4561  0.4868 -0.1967
    9MOL   C732 7948   5.846   6.980   3.843 -0.2130  0.6212 -0.0994
    9MOL   C733 7949   5.900   7.105   3.876  0.7461  0.5255 -0.5454
    9MOL   C734 7950   5.810   7.210   3.904  1.2837 -0.1570  0.0254
    9MOL   C735 7951   5.667   7.201   3.905 -0.0830 -0.0511 -0.2895
    9MOL   C736 7952   5.615   7.074   3.876 -0.2003 -0.3921 -0.3523
    9MOL   O737 7953   5.862   7.336   3.923 -0.8773  0.2984 -0.2682
    9MOL   C738 7954   5.816   7.411   4.028 -0.1491 -0.4217  0.0818
    9MOL   C739 7955   5.732   7.525   4.002  0.0475  0.4564 -0.3810
    9MOL   C740 7956   5.679   7.606   4.107  0.2780  0.1739  0.0036
    9MOL   C741 7957   5.716   7.574   4.238  0.0709 -0.0116 -0.0410
    9MOL   C742 7958   5.803   7.463   4.262  0.2619 -0.1049 -0.1366
    9MOL   C743 7959   5.862   7.385   4.161 -0.6151  0.7482 -0.3052
    9MOL   C744 7960   5.676   7.662   4.344 -0.1346  0.0299 -0.4510
    9MOL   C745 7961   5.540   7.668   4.391 -0.7157 -0.8866 -0.0528
    9MOL   C746 7962   5.502   7.763   4.492 -0.6653 -0.1314  0.1166
    9MOL   C747 7963   5.585   7.863   4.538  0.1543  0.3746  0.2039
    9MOL   C748 7964   5.709   7.866   4.481  0.5103  0.3419  0.2596
    9MOL   C749 7965   5.759   7.767   4.390  0.3554  0.5393 -0.3153
    9MOL   O750 7966   5.551   7.966   4.617 -0.1022  0.1195 -0.1124
    9MOL   H751 7967   5.812   6.720   3.388  0.7012 -0.3218 -0.9516
    9MOL   H752 7968   5.680   6.832   3.546  1.3444  1.0865  0.3994
    9MOL   H753 7969   5.771   6.531   3.846 -0.6270  1.4253  0.6560
    9MOL   H754 7970   5.927   6.422   3.675  0.0207 -0.5022  0.6391
    9MOL   H755 7971   5.910   6.896   3.817 -0.1230  1.4283 -2.6351
    9MOL   H756 7972   6.007   7.110   3.869  0.7239  0.6951 -0.7561
    9MOL   H757 7973   5.619   7.297   3.921  1.3817  0.8181 -0.9469
    9MOL   H758 7974   5.507   7.069   3.879 -0.2101  0.0620  0.1514
    9MOL   H759 7975   5.693   7.533   3.902  0.4902 -2.1627 -0.8197
    9MOL   H760 7976   5.601   7.678   4.090  1.6099  1.6281 -0.0524
    9MOL   H761 7977   5.813   7.435   4.366 -1.6179 -0.9938 -0.1784
    9MOL   H762 7978   5.943   7.317   4.182 -0.4020  1.7739  2.3420
    9MOL   H763 7979   5.468   7.594   4.358 -1.0099 -0.2412 -0.8828
    9MOL   H764 7980   5.398   7.756   4.520 -0.2378 -1.2543  1.4578
    9MOL   H765 7981   5.781   7.943   4.505  0.8982  0.0087  0.1807
    9MOL   H766 7982   5.860   7.778   4.352  0.3515 -3.1607 -1.5624
    9MOL   C767 7983   5.509   7.940   4.746 -0.5481 -0.1328  0.4012
    9MOL   C768 7984   5.576   7.838   4.816  0.1051  0.3007  1.0521
    9MOL   C769 7985   5.548   7.805   4.950  0.6562  0.2520 -0.1395
    9MOL   C770 7986   5.450   7.880   5.016 -0.2053 -0.5608 -0.1885
    9MOL   C771 7987   5.382   7.986   4.951 -0.0712  0.0777 -0.6503
    9MOL   C772 7988   5.417   8.016   4.818  0.2161 -0.4248  0.3425
    9MOL   S773 7989   5.427   7.842   5.187  0.2552 -0.0392 -0.2606
    9MOL   O774 7990   5.296   7.892   5.223  0.0963 -0.2470  0.3451
    9MOL   O775 7991   5.550   7.870   5.265 -0.1139  0.0052  0.5989
    9MOL   C776 7992   5.407   7.663   5.185  0.1456  0.5292  0.1497
    9MOL   C777 7993   5.315   7.609   5.095  0.5356 -0.2843  0.4748
    9MOL   C778 7994   5.290   7.468   5.098  0.2848 -0.2907 -0.5938
    9MOL   C779 7995   5.368   7.383   5.184  0.4561 -0.3954  0.1477
    9MOL   C780 7996   5.461   7.443   5.275  0.3753  0.2196  0.3807
    9MOL   C781 7997   5.486   7.583   5.264 -0.1667  0.0037  0.3758
    9MOL   O782 7998   5.353   7.246   5.189 -0.4814  0.5669  0.0632
    9MOL   C783 7999   5.457   7.168   5.143  0.3951 -0.4925 -0.0104
    9MOL   C784 8000   5.482   7.159   5.010 -0.1791  0.4221  0.6290
    9MOL   C785 8001   5.594   7.086   4.958  0.0311  0.0378  0.0428
    9MOL   C786 8002   5.680   7.018   5.041 -0.0716  0.3920 -0.2670
    9MOL   C787 8003   5.652   7.029   5.181 -0.5076  0.1573 -0.3792
    9MOL   C788 8004   5.539   7.092   5.230 -0.0233 -0.0206 -0.1929
    9MOL   C789 8005   5.795   6.940   4.992  0.3485  0.1453 -0.6657
    9MOL   C790 8006   5.851   6.836   5.073 -0.2094 -0.2793  0.4602
    9MOL   C791 8007   5.966   6.768   5.035  0.1936  0.0855  0.1851
    9MOL   C792 8008   6.023   6.798   4.913  0.9344  0.1149 -0.0914
    9MOL   C793 8009   5.968   6.898   4.825 -0.4174 -1.2971  0.5663
    9MOL   C794 8010   5.857   6.966   4.868 -0.0285  0.7393 -0.2930
    9MOL   O795 8011   6.131   6.732   4.877  0.0966 -0.2545  0.6607
    9MOL   H796 8012   5.646   7.772   4.766 -0.2385  0.4262  0.4019
    9MOL   H797 8013   5.600   7.728   5.005  2.3174  0.6665 -1.0700
    9MOL   H798 8014   5.304   8.036   5.007  0.8458 -0.9311  1.6098
    9MOL   H799 8015   5.363   8.089   4.760 -1.2068 -1.8423 -0.1683
    9MOL   H800 8016   5.261   7.672   5.025  0.6654  0.8029  1.3406
    9MOL   H801 8017   5.213   7.424   5.037 -0.8472  0.2196  0.4397
    9MOL   H802 8018   5.519   7.390   5.349  0.9137 -0.7797 -0.7465
    9MOL   H803 8019   5.565   7.624   5.326  0.5523  0.6690 -0.9648
    9MOL   H804 8020   5.416   7.209   4.940 -1.8068  0.3231  2.0759
    9MOL   H805 8021   5.615   7.078   4.852 -1.8648 -1.8708 -0.2165
    9MOL   H806 8022   5.716   6.985   5.256 -1.0461 -0.0911 -0.0628
    9MOL   H807 8023   5.511   7.090   5.335  1.4678 -1.1139  0.2005
    9MOL   H808 8024   5.807   6.795   5.162 -2.6313  2.3537  0.5457
    9MOL   H809 8025   6.003   6.682   5.090  1.6811  1.0527  0.7318
    9MOL   H810 8026   6.003   6.924   4.726 -3.6372  1.0624 -0.0294
    9MOL   H811 8027   5.828   7.049   4.805 -0.6472 -0.7782 -2.0590
    9MOL   C812 8028   6.256   6.744   4.950  0.8616 -0.4133  0.3336
    9MOL   C813 8029   6.363   6.663   4.908  0.0212 -0.3454  1.5170
    9MOL   C814 8030   6.487   6.665   4.967  0.0486  0.2417 -0.2947
    9MOL   C815 8031   6.507   6.756   5.073  0.1093  0.5619 -0.8798
    9MOL   C816 8032   6.406   6.852   5.104  0.1472  0.8602 -0.3134
    9MOL   C817 8033   6.280   6.843   5.048 -0.2488 -0.0057  0.3293
    9MOL   S818 8034   6.672   6.772   5.137 -0.2671  0.0590 -0.1567
    9MOL   O819 8035   6.761   6.708   5.040  0.0108  0.1131  0.1162
    9MOL   O820 8036   6.670   6.723   5.275 -0.8946 -0.1232 -0.5853
    9MOL   C821 8037   6.704   6.947   5.133 -0.2531 -0.1517  0.4302
    9MOL   C822 8038   6.714   7.016   5.012  0.3996  0.0742 -0.1781
    9MOL   C823 8039   6.731   7.153   5.022  0.1651 -0.2864  0.2982
    9MOL   C824 8040   6.718   7.224   5.144 -0.6956  0.0222 -0.3436
    9MOL   C825 8041   6.696   7.156   5.266  0.3544  0.0830 -0.1772
    9MOL   C826 8042   6.706   7.013   5.258 -0.2071 -0.1440  0.5005
    9MOL   O827 8043   6.725   7.363   5.147 -0.2244 -0.3674  0.3808
    9MOL   C828 8044   6.607   7.422   5.175 -0.5039  0.1197  0.0577
    9MOL   C829 8045   6.502   7.428   5.086  0.9600  0.4019 -0.3586
    9MOL   C830 8046   6.376   7.479   5.122 -0.1885  0.0011  0.1859
    9MOL   C831 8047   6.353   7.523   5.251  0.0825 -0.3667 -0.0028
    9MOL   C832 8048   6.459   7.522   5.345  0.4917 -0.4302  0.1699
    9MOL   C833 8049   6.585   7.482   5.300  0.3928  0.4890  0.6393
    9MOL   C834 8050   6.218   7.556   5.292 -0.0695 -0.0978  0.4447
    9MOL   C835 8051   6.196   7.687   5.325 -0.3915  0.2082  0.4150
    9MOL   C836 8052   6.069   7.726   5.368 -0.0807 -0.1319 -1.1363
    9MOL   C837 8053   5.966   7.630   5.379  0.3385  0.0312  0.3050
    9MOL   C838 8054   5.991   7.496   5.344  0.0399  0.0256  0.3113
    9MOL   C839 8055   6.117   7.459   5.301  0.9195 -0.1349 -0.3218
    9MOL   O840 8056   5.839   7.670   5.417  0.0145 -0.3625 -0.0294
    9MOL   H841 8057   6.332   6.581   4.845  1.8067  0.8766 -1.0212
    9MOL   H842 8058   6.564   6.594   4.944 -0.4851 -0.6058  0.5039
    9MOL   H843 8059   6.426   6.933   5.173  0.8121  1.9006 -1.7208
    9MOL   H844 8060   6.203   6.917   5.066  0.5916  0.7697  0.7718
    9MOL   H845 8061   6.710   6.968   4.915 -1.2802 -2.2790  0.9971
    9MOL   H846 8062   6.744   7.217   4.936 -2.4274 -0.6198 -0.3711
    9MOL   H847 8063   6.668   7.211   5.355  1.2547 -1.3370  1.0057
    9MOL   H848 8064   6.690   6.961   5.351 -1.9001 -0.2586  0.1536
    9MOL   H849 8065   6.517   7.379   4.991  1.0896  2.3984 -1.4017
    9MOL   H850 8066   6.297   7.477   5.048 -1.4348 -0.8118  1.5018
    9MOL   H851 8067   6.450   7.564   5.444 -1.1296  0.0478 -0.1718
    9MOL   H852 8068   6.663   7.484   5.375  0.9377  1.1813  0.0543
    9MOL   H853 8069   6.272   7.763   5.320 -0.6723  0.3844 -1.2309
    9MOL   H854 8070   6.037   7.829   5.376 -1.1984 -0.4323 -1.5354
    9MOL   H855 8071   5.912   7.425   5.365  0.9406 -0.1883  3.1381
    9MOL   H856 8072   6.124   7.356   5.268  2.2492 -0.3647  0.6472
    9MOL   C857 8073   5.814   7.698   5.547  0.2035  0.4212  0.6441
    9MOL   C858 8074   5.703   7.777   5.584 -0.1078  0.2856 -0.1918
    9MOL   C859 8075   5.672   7.817   5.717 -0.4922 -0.0960 -0.9431
    9MOL   C860 8076   5.756   7.762   5.819  0.1510  0.1211  0.4701
    9MOL   C861 8077   5.873   7.683   5.787 -0.4668  0.3131  0.0341
    9MOL   C862 8078   5.892   7.642   5.652 -0.2657  0.5508  0.2259
    9MOL   S863 8079   5.732   7.798   5.988 -0.1511  0.3170 -0.2161
    9MOL   O864 8080   5.657   7.918   5.999  0.1169 -0.0780 -0.2519
    9MOL   O865 8081   5.866   7.791   6.054 -0.0376  0.2960 -0.0418
    9MOL   C866 8082   5.633   7.664   6.052  0.0931  0.6234 -0.1657
    9MOL   C867 8083   5.679   7.532   6.042  0.2388 -0.0406 -0.3885
    9MOL   C868 8084   5.603   7.429   6.097 -0.0569 -0.6763  0.2426
    9MOL   C869 8085   5.485   7.457   6.172 -0.5213 -0.1305 -0.0915
    9MOL   C870 8086   5.443   7.590   6.192 -0.5425 -0.1852  0.2353
    9MOL   C871 8087   5.515   7.694   6.125 -0.2864  0.5146  0.0470
    9MOL   O872 8088   5.399   7.360   6.214 -0.4834  0.1721 -0.2844
    9MOL   C873 8089   5.293   7.322   6.134 -0.4121 -0.4711 -0.0507
    9MOL   C874 8090   5.309   7.215   6.042  0.3884  0.0725 -0.8286
    9MOL   C875 8091   5.191   7.183   5.973 -0.9719  0.0942  0.0833
    9MOL   C876 8092   5.065   7.247   5.985 -0.5282 -0.5305 -0.1028
    9MOL   C877 8093   5.064   7.354   6.078  0.4645  0.4323  0.0433
    9MOL   C878 8094   5.179   7.396   6.152  0.5024  0.5828  0.0212
    9MOL   C879 8095   4.951   7.209   5.903 -0.4250  0.1590 -0.1353
    9MOL   C880 8096   4.965   7.167   5.771 -0.5086  0.0656  0.0367
    9MOL   C881 8097   4.856   7.133   5.687 -0.7531 -0.1960  0.6442
    9MOL   C882 8098   4.728   7.144   5.742  0.5187  0.3682  0.7792
    9MOL   C883 8099   4.713   7.192   5.875 -0.2709 -0.2181 -0.1531
    9MOL   C884 8100   4.821   7.221   5.956  0.0308  0.0868 -0.3057
    9MOL   O885 8101   4.614   7.103   5.669  0.6392  0.2943  0.6807
    9MOL   H886 8102   5.638   7.813   5.505  0.1173 -0.4212 -0.6950
    9MOL   H887 8103   5.594   7.886   5.745 -0.2215 -0.4977  0.8738
    9MOL   H888 8104   5.949   7.648   5.856 -2.3987 -1.4552  1.3050
    9MOL   H889 8105   5.981   7.593   5.616  0.2062  0.2729  1.7027
    9MOL   H890 8106   5.774   7.521   5.991 -0.8062 -3.6451 -1.6963
    9MOL   H891 8107   5.627   7.324   6.089 -0.2120 -0.8501  1.8093
    9MOL   H892 8108   5.356   7.613   6.251 -1.0426  2.1514 -1.3513
    9MOL   H893 8109   5.489   7.794   6.155 -0.2446  1.2132 -2.1193
    9MOL   H894 8110   5.400   7.159   6.024 -0.2257 -0.9470 -0.8048
    9MOL   H895 8111   5.204   7.102   5.902 -2.0581 -0.3761  0.4156
    9MOL   H896 8112   4.965   7.390   6.101 -0.3638 -0.9041 -1.2645
    9MOL   H897 8113   5.174   7.468   6.232 -1.6024 -1.5702  1.9188
    9MOL   H898 8114   5.064   7.176   5.729 -0.3531 -1.9686 -0.0992
    9MOL   H899 8115   4.880   7.094   5.589 -0.1783 -1.0116  1.1041
    9MOL   H900 8116   4.620   7.201   5.930  0.1835  0.6896  0.4829
    9MOL   H901 8117   4.799   7.253   6.057  0.4288  0.6061 -0.3769
    9MOL   H902 8118   4.539   7.088   5.725  0.6118 -1.6322  0.1611
   10MOL     C1 8119   0.832   8.096   0.968 -0.0491 -0.0587  0.0069
   10MOL     C2 8120   0.892   8.140   1.090  0.9365 -0.5214 -0.7404
   10MOL     C3 8121   0.907   8.275   1.130 -0.6117  0.2968 -0.2484
   10MOL     C4 8122   0.858   0.006   1.041  0.2813 -0.4925 -0.2601
   10MOL     C5 8123   0.795   8.332   0.922 -0.5703 -0.6388 -0.0441
   10MOL     C6 8124   0.781   8.195   0.885 -0.5875  0.1635 -0.3977
   10MOL     S7 8125   0.857   0.181   1.083 -0.1015  0.2314 -0.0343
   10MOL     O8 8126   0.793   0.182   1.216 -0.4202  0.3157 -0.5955
   10MOL     O9 8127   0.782   0.257   0.978  0.1426  0.2168  0.1328
   10MOL    C10 8128   1.017   0.245   1.096  0.2252 -0.0567  0.2369
   10MOL    C11 8129   1.130   0.169   1.060 -0.0675  0.1058 -0.1414
   10MOL    C12 8130   1.254   0.238   1.046 -0.1435 -0.6233 -0.1833
   10MOL    C13 8131   1.262   0.376   1.048  0.9776 -0.1142 -0.6576
   10MOL    C14 8132   1.147   0.451   1.091  0.3399 -0.5806  0.9665
   10MOL    C15 8133   1.029   0.383   1.127  0.3219  0.1983 -0.0239
   10MOL    O16 8134   1.379   0.445   1.023 -0.1686 -0.2006 -0.7233
   10MOL    C17 8135   1.370   0.553   0.939 -0.1119  0.3534  0.1682
   10MOL    C18 8136   1.355   0.687   0.986  0.2426  0.1657 -0.3550
   10MOL    C19 8137   1.357   0.796   0.898  0.3953 -0.7412  0.0006
   10MOL    C20 8138   1.371   0.777   0.761 -0.2659  0.4915  0.3990
   10MOL    C21 8139   1.388   0.642   0.712 -0.1155 -0.2089  0.1194
   10MOL    C22 8140   1.394   0.533   0.804  0.2265 -0.3703 -0.2478
   10MOL    C23 8141   1.356   0.886   0.670 -0.6290  0.2353  0.2207
   10MOL    C24 8142   1.424   0.884   0.548 -1.1226 -0.2310  0.7333
   10MOL    C25 8143   1.407   0.989   0.455 -0.2679 -0.1390  0.0118
   10MOL    C26 8144   1.335   1.112   0.493  0.5523  0.0048  0.0969
   10MOL    C27 8145   1.264   1.116   0.614  0.0431 -0.8756 -0.9606
   10MOL    C28 8146   1.269   0.998   0.691  0.2075  0.3548  0.1466
   10MOL    O29 8147   1.334   1.221   0.412 -0.1879 -0.3892 -0.2456
   10MOL    H30 8148   0.935   8.060   1.149  1.7352  0.4455  0.0047
   10MOL    H31 8149   0.962   8.304   1.219 -0.7723 -0.9707  0.2829
   10MOL    H32 8150   0.751   0.046   0.863 -0.3316  0.3320  1.0791
   10MOL    H33 8151   0.738   8.180   0.787  1.6028 -1.9566 -1.0681
   10MOL    H34 8152   1.119   0.062   1.056 -2.0557  0.3126 -0.3975
   10MOL    H35 8153   1.342   0.180   1.024  0.4514  1.0089 -2.2148
   10MOL    H36 8154   1.153   0.559   1.102 -1.6976 -0.1748 -1.2875
   10MOL    H37 8155   0.939   0.434   1.157 -0.2288 -1.4954  1.2210
   10MOL    H38 8156   1.337   0.701   1.092  3.3191  2.4256 -0.0489
   10MOL    H39 8157   1.342   0.894   0.941 -1.0246 -1.1976  0.5774
   10MOL    H40 8158   1.401   0.622   0.607 -1.5606  2.8275 -0.7049
   10MOL    H41 8159   1.414   0.432   0.773 -0.5793 -0.5111 -0.3145
   10MOL    H42 8160   1.481   0.803   0.506 -0.9675  0.3393 -0.1903
   10MOL    H43 8161   1.454   0.989   0.358  0.4906  0.4336  0.3690
   10MOL    H44 8162   1.196   1.196   0.637  1.3572 -0.0485  0.1214
   10MOL    H45 8163   1.195   0.997   0.770 -1.2229  1.2507 -1.1549
   10MOL    H46 8164   0.832   7.995   0.930 -0.1960 -0.1992  0.3713
   10MOL    C47 8165   1.245   1.233   0.307  0.3943  0.1131  0.4865
   10MOL    C48 8166   1.239   1.356   0.238 -0.0297 -0.0948  0.7417
   10MOL    C49 8167   1.146   1.373   0.134  0.1757  0.4074 -0.6361
   10MOL    C50 8168   1.064   1.270   0.093 -0.3538 -0.4549  0.5823
   10MOL    C51 8169   1.077   1.141   0.147  0.4362  0.5816 -0.7385
   10MOL    C52 8170   1.173   1.121   0.252  0.2476  0.0723  0.6165
   10MOL    S53 8171   0.957   1.306   8.323 -0.0497  0.0363  0.3150
   10MOL    O54 8172   1.010   1.412   8.238 -0.2417 -0.5775  0.6454
   10MOL    O55 8173   0.829   1.332   0.023  0.4598  0.0894  0.6264
   10MOL    C56 8174   0.946   1.168   8.216  0.0945  0.4575 -0.0594
   10MOL    C57 8175   0.819   1.124   8.163 -0.0360 -0.3421  0.2801
   10MOL    C58 8176   0.814   1.010   8.081 -0.9505 -0.5441 -0.8212
   10MOL    C59 8177   0.936   0.942   8.044 -0.3886  0.6471 -0.6156
   10MOL    C60 8178   1.052   0.990   8.097  0.9957 -0.1264  0.6616
   10MOL    C61 8179   1.061   1.103   8.177  0.1906 -0.0545  0.3927
   10MOL    O62 8180   0.931   0.831   7.969 -0.1849 -0.0147 -0.0550
   10MOL    C63 8181   0.841   0.819   7.866  0.6845  0.3931  0.4702
   10MOL    C64 8182   0.726   0.742   7.895 -0.1517  0.1670 -0.2088
   10MOL    C65 8183   0.619   0.740   7.798 -0.2163 -0.2402  0.7905
   10MOL    C66 8184   0.638   0.804   7.675 -0.1655  0.4874 -0.4135
   10MOL    C67 8185   0.754   0.875   7.652 -0.7067  0.2315 -0.2496
   10MOL    C68 8186   0.853   0.885   7.747 -0.4118 -0.2982  0.2794
   10MOL    C69 8187   0.522   0.817   7.583  1.0108 -0.0710 -0.0437
   10MOL    C70 8188   0.483   0.939   7.523  1.0826  0.3123  0.4340
   10MOL    C71 8189   0.367   0.940   7.441  1.2546 -0.3663 -0.4596
   10MOL    C72 8190   0.290   0.834   7.405  0.3267  0.4336  0.0131
   10MOL    C73 8191   0.326   0.712   7.472  0.3799  0.3426 -0.1207
   10MOL    C74 8192   0.435   0.708   7.559 -0.2598  0.2721 -0.2689
   10MOL    O75 8193   0.182   0.840   7.326  0.3259 -0.3051  0.4345
   10MOL    H76 8194   1.294   1.443   0.270 -2.2795  1.5910  0.1808
   10MOL    H77 8195   1.140   1.471   0.088 -1.4321  0.4597 -0.3223
   10MOL    H78 8196   1.014   1.062   0.109  0.1737  1.2387 -1.7006
   10MOL    H79 8197   1.191   1.019   0.282 -0.2926 -0.0454  0.5438
   10MOL    H80 8198   0.732   1.181   8.195  1.1840  2.3652 -1.0888
   10MOL    H81 8199   0.722   0.965   8.047 -1.9895  0.2884  0.8038
   10MOL    H82 8200   1.145   0.940   8.072  0.6639 -1.0984  1.3163
   10MOL    H83 8201   1.161   1.129   8.208  0.8027 -0.5921 -1.0475
   10MOL    H84 8202   0.721   0.685   7.986 -1.5435 -1.6001 -1.3561
   10MOL    H85 8203   0.528   0.684   7.811 -1.2233  0.9029 -1.1125
   10MOL    H86 8204   0.776   0.930   7.562  2.5051 -0.5316 -0.0133
   10MOL    H87 8205   0.938   0.946   7.723  1.0321 -2.3473  0.0547
   10MOL    H88 8206   0.532   1.034   7.543 -1.4163  1.6772  0.3051
   10MOL    H89 8207   0.343   1.035   7.397  2.0630 -0.0378 -0.2068
   10MOL    H90 8208   0.281   0.618   7.445  1.9019 -0.5899  0.5068
   10MOL    H91 8209   0.452   0.611   7.603  1.7003 -0.2586 -2.1288
   10MOL    C92 8210   0.193   0.788   7.199  0.0228  0.4173 -0.0481
   10MOL    C93 8211   0.311   0.746   7.135  0.3854  0.1900 -0.0488
   10MOL    C94 8212   0.313   0.707   6.999  0.4266  0.5941  0.1908
   10MOL    C95 8213   0.195   0.713   6.924  0.1797  0.3129 -0.1931
   10MOL    C96 8214   0.076   0.746   6.988 -0.3826  0.5619 -0.0290
   10MOL    C97 8215   0.071   0.779   7.124  0.4129 -0.1283  0.9164
   10MOL    S98 8216   0.194   0.668   6.753  0.0944 -0.2621 -0.1358
   10MOL    O99 8217   0.053   0.680   6.705 -0.2752 -0.5788 -0.4321
   10MOL   O100 8218   0.267   0.538   6.738  0.3209  0.3554  0.0450
   10MOL   C101 8219   0.278   0.779   6.655 -1.3872  0.2935 -0.6439
   10MOL   C102 8220   0.292   0.753   6.514 -0.6046  0.2301 -0.3613
   10MOL   C103 8221   0.366   0.842   6.437 -0.6847 -0.9803  0.2159
   10MOL   C104 8222   0.433   0.953   6.492  0.0985 -0.4602  0.1859
   10MOL   C105 8223   0.419   0.975   6.629  0.1967 -0.4475 -0.1062
   10MOL   C106 8224   0.338   0.894   6.712 -1.0839 -0.0442 -0.2744
   10MOL   O107 8225   0.527   1.022   6.428 -0.4582 -0.4941  0.2756
   10MOL   C108 8226   0.634   0.944   6.377  0.0327  0.0424 -0.1164
   10MOL   C109 8227   0.715   0.860   6.455  1.0836 -0.0855  0.6091
   10MOL   C110 8228   0.828   0.801   6.407  0.2091 -0.1452 -0.4435
   10MOL   C111 8229   0.873   0.814   6.273  1.1110  0.3914 -0.1120
   10MOL   C112 8230   0.785   0.881   6.187 -0.6999 -0.2487 -0.6747
   10MOL   C113 8231   0.665   0.944   6.235 -0.0908 -0.4130 -0.2632
   10MOL   C114 8232   0.983   0.734   6.229  0.1059 -0.6984  0.3419
   10MOL   C115 8233   0.989   0.591   6.251  0.2160 -0.5966 -0.6724
   10MOL   C116 8234   1.116   0.529   6.252  0.6833  0.2567 -0.2249
   10MOL   C117 8235   1.231   0.597   6.219  0.0619  0.0589 -0.3653
   10MOL   C118 8236   1.223   0.731   6.171 -0.2700  0.3630 -0.3777
   10MOL   C119 8237   1.102   0.800   6.184  0.5986 -0.2734  0.2838
   10MOL   O120 8238   1.353   0.538   6.208 -0.5555 -0.0509  0.1954
   10MOL   H121 8239   0.406   0.742   7.187  0.6552  0.9058 -0.4842
   10MOL   H122 8240   0.403   0.673   6.950  0.1903  3.3470 -2.2831
   10MOL   H123 8241   8.350   0.744   6.933  0.9920 -0.2199 -2.3631
   10MOL   H124 8242   8.343   0.821   7.155  0.7615  1.5412 -0.2008
   10MOL   H125 8243   0.242   0.664   6.477  1.9077 -1.5732  0.3832
   10MOL   H126 8244   0.373   0.815   6.333  0.9886  1.5558 -0.3868
   10MOL   H127 8245   0.471   1.058   6.675 -0.7448  0.3746 -0.5041
   10MOL   H128 8246   0.340   0.912   6.818  1.8313 -1.7937  0.0426
   10MOL   H129 8247   0.685   0.845   6.558  1.4615 -0.9593  0.5911
   10MOL   H130 8248   0.889   0.748   6.480  0.0184  0.1990 -0.0345
   10MOL   H131 8249   0.800   0.891   6.081 -1.9084  0.1435 -0.8175
   10MOL   H132 8250   0.600   1.008   6.176  0.4299 -3.5830 -4.4805
   10MOL   H133 8251   0.894   0.546   6.275  0.8522 -1.1394  0.8630
   10MOL   H134 8252   1.122   0.421   6.247  0.0742  0.2777 -1.7137
   10MOL   H135 8253   1.315   0.783   6.149 -0.9825  1.2896 -1.2208
   10MOL   H136 8254   1.123   0.903   6.162  1.8295 -1.0906 -2.6406
   10MOL   C137 8255   1.452   0.559   6.301 -0.4144  0.0725 -0.1407
   10MOL   C138 8256   1.420   0.583   6.434 -0.1951 -0.1476 -0.2386
   10MOL   C139 8257   1.523   0.589   6.534 -0.7783 -0.1642  0.0010
   10MOL   C140 8258   1.657   0.571   6.495 -0.4412 -0.0116 -0.1890
   10MOL   C141 8259   1.691   0.564   6.357  0.4254 -0.2763  0.9516
   10MOL   C142 8260   1.588   0.553   6.258 -0.1941  0.1970  0.6632
   10MOL   S143 8261   1.776   0.565   6.628 -0.3767 -0.0035  0.0871
   10MOL   O144 8262   1.761   0.442   6.704 -0.3422  0.2203 -0.1053
   10MOL   O145 8263   1.752   0.691   6.701 -0.2602  0.3457  0.0460
   10MOL   C146 8264   1.943   0.574   6.553 -0.4625  0.2841 -0.1360
   10MOL   C147 8265   2.037   0.473   6.583  0.9232 -0.2308 -0.6918
   10MOL   C148 8266   2.170   0.488   6.537 -0.1013 -0.3033 -0.0632
   10MOL   C149 8267   2.206   0.601   6.461  0.4367  0.4641 -0.1143
   10MOL   C150 8268   2.108   0.693   6.416  0.4593 -0.1701 -0.0682
   10MOL   C151 8269   1.977   0.687   6.474 -0.2169  0.5744  0.4353
   10MOL   O152 8270   2.342   0.607   6.435  1.0153  0.3115  0.1258
   10MOL   C153 8271   2.392   0.704   6.352  0.0293 -0.1606 -0.2554
   10MOL   C154 8272   2.467   0.667   6.242 -0.4805  0.0144  0.0209
   10MOL   C155 8273   2.536   0.764   6.162  0.6347 -0.7371  0.1278
   10MOL   C156 8274   2.538   0.900   6.200  0.4452 -0.0741 -0.1493
   10MOL   C157 8275   2.472   0.931   6.327 -0.1395 -0.3833  0.3471
   10MOL   C158 8276   2.392   0.837   6.396  0.0721 -0.1307 -0.0371
   10MOL   C159 8277   2.621   0.990   6.122 -0.1888  0.2192 -0.2756
   10MOL   C160 8278   2.721   1.075   6.183 -0.5259  0.2950  0.0913
   10MOL   C161 8279   2.801   1.163   6.106  0.1013 -0.5816 -0.4580
   10MOL   C162 8280   2.772   1.182   5.968  0.3526  0.3361  0.2740
   10MOL   C163 8281   2.674   1.094   5.909  0.4973 -0.0339  0.8657
   10MOL   C164 8282   2.595   1.002   5.984 -0.2955 -0.0186  0.1878
   10MOL   O165 8283   2.843   1.270   5.894  0.0272  0.4789  0.4023
   10MOL   H166 8284   1.319   0.601   6.466  0.1201  1.0695  0.1077
   10MOL   H167 8285   1.497   0.616   6.636 -4.3341 -1.1723 -0.5731
   10MOL   H168 8286   1.790   0.558   6.315  0.2509  2.6372  0.0456
   10MOL   H169 8287   1.608   0.539   6.153 -1.2411 -0.5838  0.5628
   10MOL   H170 8288   2.019   0.395   6.656  0.9195 -0.2406 -0.7028
   10MOL   H171 8289   2.232   0.409   6.577 -1.1852 -0.2595  1.7650
   10MOL   H172 8290   2.141   0.771   6.349 -1.2566 -0.6597 -1.5320
   10MOL   H173 8291   1.905   0.765   6.455 -1.4962 -1.2472 -2.5362
   10MOL   H174 8292   2.477   0.561   6.224  1.8643  0.1058  0.6345
   10MOL   H175 8293   2.598   0.722   6.085 -2.9347 -0.1260 -3.2312
   10MOL   H176 8294   2.476   1.034   6.360  1.1920 -0.2125 -0.3001
   10MOL   H177 8295   2.328   0.859   6.481 -0.6855 -2.5350  0.0488
   10MOL   H178 8296   2.750   1.059   6.286  1.5309 -0.5341 -0.5802
   10MOL   H179 8297   2.878   1.213   6.164 -1.5795 -1.6078  2.7604
   10MOL   H180 8298   2.666   1.101   5.801  1.8453 -2.1851  0.5748
   10MOL   H181 8299   2.518   0.945   5.934 -1.3729 -0.5587  2.4014
   10MOL   C182 8300   2.794   1.399   5.911  1.0062 -0.1060 -0.0017
   10MOL   C183 8301   2.847   1.497   5.997  0.3126 -0.1356  0.1038
   10MOL   C184 8302   2.794   1.628   6.019  0.1079  0.2293 -0.1199
   10MOL   C185 8303   2.681   1.665   5.943  0.0628  0.2020  0.1849
   10MOL   C186 8304   2.632   1.571   5.855 -0.4285  0.1534  0.6579
   10MOL   C187 8305   2.690   1.443   5.828  0.0316  0.1477 -0.5556
   10MOL   S188 8306   2.601   1.815   5.986 -0.4197  0.4226 -0.6107
   10MOL   O189 8307   2.647   1.928   5.906  0.1569 -0.1505 -0.3267
   10MOL   O190 8308   2.592   1.830   6.126 -0.4712  0.9241 -0.3180
   10MOL   C191 8309   2.428   1.797   5.941  0.2011  0.0165 -0.0843
   10MOL   C192 8310   2.383   1.804   5.804  0.2159  0.4231  0.2197
   10MOL   C193 8311   2.252   1.759   5.771  0.7880  0.9026 -0.0188
   10MOL   C194 8312   2.163   1.708   5.868 -0.2458 -1.1079  0.1120
   10MOL   C195 8313   2.211   1.698   6.000  0.7360  0.5447  0.1738
   10MOL   C196 8314   2.339   1.746   6.038 -0.3621  0.5893 -0.0342
   10MOL   O197 8315   2.039   1.672   5.823  0.0525 -0.6914  0.4728
   10MOL   C198 8316   1.935   1.760   5.854 -0.4509 -0.0437 -0.4487
   10MOL   C199 8317   1.871   1.835   5.757 -0.5717  0.2208  0.3759
   10MOL   C200 8318   1.771   1.933   5.787 -0.3063  0.1708 -0.3524
   10MOL   C201 8319   1.740   1.954   5.926 -0.3251 -1.2043  0.0252
   10MOL   C202 8320   1.796   1.874   6.023  0.4513 -0.0554 -0.2296
   10MOL   C203 8321   1.897   1.783   5.985 -0.2511 -0.5552  0.0390
   10MOL   C204 8322   1.648   2.063   5.961  0.0290 -0.5216 -0.6599
   10MOL   C205 8323   1.682   2.153   6.063 -0.0176 -0.2109 -0.7571
   10MOL   C206 8324   1.601   2.261   6.098 -0.0211 -0.7369  0.1853
   10MOL   C207 8325   1.478   2.277   6.033 -0.7503 -0.5912 -0.9629
   10MOL   C208 8326   1.443   2.192   5.927  0.1021 -0.6191 -0.3338
   10MOL   C209 8327   1.522   2.077   5.895  0.2182 -0.2533  0.7187
   10MOL   O210 8328   1.404   2.388   6.062 -0.0573 -0.0147  0.4865
   10MOL   H211 8329   2.942   1.469   6.041  1.7677  1.1767 -2.1156
   10MOL   H212 8330   2.837   1.699   6.087 -0.0365 -0.2620  0.4949
   10MOL   H213 8331   2.546   1.598   5.795 -0.1841 -0.8554 -0.1620
   10MOL   H214 8332   2.647   1.377   5.754 -1.7397  0.1377  0.4501
   10MOL   H215 8333   2.453   1.830   5.727 -0.8059 -1.5130 -1.4250
   10MOL   H216 8334   2.219   1.765   5.668  2.2866 -0.5197 -0.6050
   10MOL   H217 8335   2.152   1.656   6.080  1.5015 -1.6058 -0.3589
   10MOL   H218 8336   2.363   1.733   6.142 -3.0133  2.1732  0.8245
   10MOL   H219 8337   1.902   1.825   5.654 -2.1334 -2.3584  0.1225
   10MOL   H220 8338   1.736   2.000   5.710 -0.5043  0.2450 -0.1961
   10MOL   H221 8339   1.792   1.890   6.130  1.3169  0.1010 -0.2145
   10MOL   H222 8340   1.941   1.729   6.068 -1.2490  0.6812  1.3885
   10MOL   H223 8341   1.776   2.139   6.116 -1.2088  0.4174  1.6004
   10MOL   H224 8342   1.626   2.331   6.177 -0.9853  2.2610 -2.0484
   10MOL   H225 8343   1.349   2.216   5.881 -0.1657  0.2372  0.6136
   10MOL   H226 8344   1.482   2.014   5.818 -1.6272  0.9227  0.6827
   10MOL   C227 8345   1.294   2.379   6.141  0.5470 -0.6412 -0.1064
   10MOL   C228 8346   1.220   2.492   6.153  0.8038 -0.1341 -0.0031
   10MOL   C229 8347   1.097   2.499   6.225  0.0406  0.6443  0.7730
   10MOL   C230 8348   1.062   2.389   6.303  0.1619 -0.4066 -0.1917
   10MOL   C231 8349   1.139   2.270   6.298 -0.6261 -0.1867 -0.3073
   10MOL   C232 8350   1.257   2.264   6.219  0.1206  0.1216 -0.2353
   10MOL   S233 8351   0.908   2.399   6.390 -0.2368  0.1868 -0.4182
   10MOL   O234 8352   0.838   2.273   6.374  0.2822  0.1527  0.0009
   10MOL   O235 8353   0.843   2.523   6.352  0.2439  0.2187 -0.4825
   10MOL   C236 8354   0.962   2.403   6.568 -0.0777 -0.1668  0.6126
   10MOL   C237 8355   0.953   2.524   6.644 -0.3144 -0.3384 -0.2248
   10MOL   C238 8356   1.016   2.529   6.770  0.0971  0.9137 -0.4801
   10MOL   C239 8357   1.083   2.412   6.821 -0.6619 -0.9791  1.4403
   10MOL   C240 8358   1.092   2.298   6.738 -0.2247 -0.4724  0.0315
   10MOL   C241 8359   1.034   2.291   6.613 -0.0092  1.0733 -0.1124
   10MOL   O242 8360   1.150   2.414   6.942  0.4939  1.2768 -0.2396
   10MOL   C243 8361   1.247   2.518   6.968  0.3125  0.9520 -0.0559
   10MOL   C244 8362   1.243   2.580   7.089 -0.0963 -0.2755  0.3379
   10MOL   C245 8363   1.328   2.691   7.112 -0.4543  0.2614  0.0587
   10MOL   C246 8364   1.425   2.737   7.017 -0.4307 -0.1473 -0.2908
   10MOL   C247 8365   1.429   2.665   6.895 -0.6635  1.3139 -0.0573
   10MOL   C248 8366   1.338   2.560   6.871  1.1630  0.9236 -0.1002
   10MOL   C249 8367   1.521   2.844   7.047  0.5954 -0.4798 -0.0459
   10MOL   C250 8368   1.538   2.952   6.958  0.4696 -0.5044  0.1647
   10MOL   C251 8369   1.631   3.053   6.981  0.5243  0.4388  0.4260
   10MOL   C252 8370   1.717   3.041   7.088  1.3765  0.3465  0.2324
   10MOL   C253 8371   1.705   2.937   7.181  0.4650 -0.2484 -0.3533
   10MOL   C254 8372   1.612   2.839   7.155  0.3195 -0.4453 -0.2549
   10MOL   O255 8373   1.813   3.139   7.106 -0.0332 -0.3049 -0.2051
   10MOL   H256 8374   1.259   2.577   6.099 -0.7732 -0.4779 -1.7163
   10MOL   H257 8375   1.046   2.594   6.232  0.1123  0.5039  3.9592
   10MOL   H258 8376   1.119   2.180   6.355 -0.2683  0.0788  0.2369
   10MOL   H259 8377   1.305   2.168   6.207 -0.2435  0.0628 -1.2092
   10MOL   H260 8378   0.898   2.608   6.604 -3.3497  0.1266  4.5544
   10MOL   H261 8379   1.004   2.614   6.836  1.0302  1.2980 -0.7977
   10MOL   H262 8380   1.141   2.213   6.783  0.2050  0.4193  1.2511
   10MOL   H263 8381   1.039   2.199   6.557 -0.3304  1.7906 -1.3253
   10MOL   H264 8382   1.165   2.548   7.158  0.2529  1.0193  1.3606
   10MOL   H265 8383   1.306   2.735   7.209  2.8126  0.8896  0.5629
   10MOL   H266 8384   1.510   2.683   6.826  1.1541  0.1132  1.7278
   10MOL   H267 8385   1.346   2.505   6.779  1.2386 -0.3315  0.6446
   10MOL   H268 8386   1.474   2.970   6.873 -1.2389 -1.1002  1.2810
   10MOL   H269 8387   1.632   3.137   6.913  2.8336 -0.0201 -0.1599
   10MOL   H270 8388   1.775   2.931   7.263  0.1050 -0.3940 -0.0511
   10MOL   H271 8389   1.610   2.766   7.235 -1.8094  0.8143  0.8760
   10MOL   C272 8390   1.766   3.252   7.166 -0.4634  0.7550  0.4148
   10MOL   C273 8391   1.768   3.251   7.311  0.7839 -0.1877  0.5183
   10MOL   C274 8392   1.712   3.372   7.369  0.3149  0.4499  0.3749
   10MOL   C275 8393   1.660   3.479   7.291 -0.6907 -0.2502 -0.3596
   10MOL   C276 8394   1.664   3.466   7.154 -0.5857  0.1663  0.5672
   10MOL   C277 8395   1.708   3.349   7.090 -0.4291 -0.8869  0.6851
   10MOL   S278 8396   1.583   3.625   7.365 -0.0219  0.3055  0.5091
   10MOL   O279 8397   1.541   3.593   7.505  0.3070 -0.2969  0.0757
   10MOL   O280 8398   1.488   3.680   7.265 -0.0637  0.1133 -0.1674
   10MOL   C281 8399   1.719   3.742   7.390 -0.1942 -0.1230 -0.1654
   10MOL   C282 8400   1.829   3.741   7.300  0.6682 -0.0689  0.9205
   10MOL   C283 8401   1.929   3.835   7.317  0.1747  0.6183 -0.4033
   10MOL   C284 8402   1.924   3.923   7.429  0.1004 -0.1272  0.0247
   10MOL   C285 8403   1.821   3.919   7.523  0.1076  0.8108 -0.1099
   10MOL   C286 8404   1.716   3.828   7.501  0.0730 -0.1401 -0.0862
   10MOL   O287 8405   2.031   4.004   7.455  0.4075 -0.3349  0.5053
   10MOL   C288 8406   2.072   4.071   7.347 -0.1704  1.0574  0.5777
   10MOL   C289 8407   1.983   4.163   7.285  0.4703  0.5379  0.5755
   10MOL   C290 8408   2.023   4.243   7.175 -0.2975  0.2880  0.1083
   10MOL   C291 8409   2.155   4.236   7.121 -0.4652  0.3658  0.2211
   10MOL   C292 8410   2.240   4.140   7.179 -0.6015 -1.0499  0.0619
   10MOL   C293 8411   2.204   4.064   7.296 -0.0958  0.0617  1.0965
   10MOL   C294 8412   2.206   4.320   7.011 -0.3008 -0.5102  0.4435
   10MOL   C295 8413   2.298   4.272   6.914 -0.3172  0.2676 -0.2495
   10MOL   C296 8414   2.346   4.355   6.813  0.1186 -0.4772 -0.0447
   10MOL   C297 8415   2.297   4.490   6.797 -0.3642  0.0689  0.6996
   10MOL   C298 8416   2.198   4.534   6.888  0.0156 -0.6549 -0.0819
   10MOL   C299 8417   2.154   4.453   6.991 -0.0763  0.6885 -0.2686
   10MOL   O300 8418   2.342   4.565   6.691  0.0564 -0.2230  0.5941
   10MOL   H301 8419   1.811   3.171   7.370 -0.5448 -3.2516 -2.5726
   10MOL   H302 8420   1.695   3.392   7.474  2.0728  1.8613  0.4285
   10MOL   H303 8421   1.617   3.544   7.098 -0.8303  1.2881  2.2879
   10MOL   H304 8422   1.701   3.341   6.983 -0.1999 -0.9279  0.6731
   10MOL   H305 8423   1.843   3.661   7.229  0.7513  1.4031 -0.7757
   10MOL   H306 8424   2.023   3.839   7.265  1.9380  2.3363  2.7570
   10MOL   H307 8425   1.815   3.993   7.601 -0.5814  1.4715 -0.7737
   10MOL   H308 8426   1.642   3.814   7.578 -0.1003  1.2685  0.0324
   10MOL   H309 8427   1.886   4.180   7.330 -0.3533  1.7814 -1.5745
   10MOL   H310 8428   1.948   4.309   7.135 -2.8348 -2.9703 -0.7547
   10MOL   H311 8429   2.342   4.141   7.141 -0.2552 -1.3296  0.9744
   10MOL   H312 8430   2.276   3.995   7.338 -1.0634 -1.0660  0.9153
   10MOL   H313 8431   2.334   4.170   6.911 -0.8103  0.0656  0.6933
   10MOL   H314 8432   2.414   4.317   6.739 -0.2956 -0.9773 -0.1765
   10MOL   H315 8433   2.149   4.629   6.872  1.7260  0.3820  0.6368
   10MOL   H316 8434   2.088   4.497   7.064 -1.2652 -2.7170  0.8240
   10MOL   C317 8435   2.381   4.505   6.573  0.8468 -0.0642  0.1308
   10MOL   C318 8436   2.283   4.461   6.481 -0.8096  0.0138  0.4453
   10MOL   C319 8437   2.330   4.439   6.349 -0.1930 -0.5704 -1.0826
   10MOL   C320 8438   2.469   4.441   6.316 -0.0470  0.2582 -0.6219
   10MOL   C321 8439   2.561   4.468   6.418  0.4236 -0.6397  0.3730
   10MOL   C322 8440   2.517   4.496   6.548 -0.5442  0.5107  0.5504
   10MOL   S323 8441   2.522   4.406   6.149 -0.2643  0.0498  0.1120
   10MOL   O324 8442   2.671   4.416   6.136 -0.2738 -0.1768  0.3873
   10MOL   O325 8443   2.435   4.492   6.065 -0.3598  0.3393 -0.0852
   10MOL   C326 8444   2.481   4.240   6.113  0.5003  0.5491 -0.0898
   10MOL   C327 8445   2.453   4.205   5.976  0.0459 -0.2445 -0.7234
   10MOL   C328 8446   2.415   4.077   5.948  0.0135  0.7892 -0.3453
   10MOL   C329 8447   2.414   3.984   6.052 -0.7161 -0.0980 -0.7388
   10MOL   C330 8448   2.447   4.017   6.181 -0.1463 -0.3792 -0.4934
   10MOL   C331 8449   2.469   4.148   6.217 -0.6103  0.4827 -0.0796
   10MOL   O332 8450   2.395   3.860   6.005  0.2403 -0.4707  0.0679
   10MOL   C333 8451   2.274   3.801   6.026  0.0052  0.4071 -0.4225
   10MOL   C334 8452   2.273   3.720   6.138 -0.2642 -0.6961 -0.3187
   10MOL   C335 8453   2.158   3.654   6.186  0.2749 -0.4074  0.0587
   10MOL   C336 8454   2.042   3.671   6.117  0.0902  0.1137  0.3837
   10MOL   C337 8455   2.040   3.750   5.997 -0.3234 -0.2366  0.9274
   10MOL   C338 8456   2.157   3.817   5.954  0.3920 -0.2903 -0.1308
   10MOL   C339 8457   1.914   3.608   6.168 -0.4943 -0.4457 -0.8704
   10MOL   C340 8458   1.870   3.632   6.299  1.0044  0.6466  0.2566
   10MOL   C341 8459   1.753   3.566   6.341  0.1172  0.4874 -0.2115
   10MOL   C342 8460   1.682   3.476   6.254 -0.0423 -0.3780 -0.0543
   10MOL   C343 8461   1.729   3.457   6.119  0.3768 -0.1897  0.2418
   10MOL   C344 8462   1.846   3.522   6.080  0.8957  0.0913 -0.4762
   10MOL   O345 8463   1.560   3.417   6.301  0.0457 -0.5717 -1.0153
   10MOL   H346 8464   2.178   4.458   6.507 -0.9650 -1.6931 -0.2882
   10MOL   H347 8465   2.270   4.421   6.262  0.4768 -2.9407 -1.0834
   10MOL   H348 8466   2.667   4.455   6.399  0.8142 -1.3009  2.8350
   10MOL   H349 8467   2.580   4.542   6.622 -1.7527  0.5303  1.5707
   10MOL   H350 8468   2.448   4.282   5.901 -0.7037 -0.8431 -1.3040
   10MOL   H351 8469   2.379   4.045   5.852  0.9408 -1.8230  0.1369
   10MOL   H352 8470   2.454   3.931   6.247 -1.5621  0.2199  0.4652
   10MOL   H353 8471   2.502   4.171   6.317 -0.4989 -2.3743  0.5775
   10MOL   H354 8472   2.365   3.720   6.194  0.0434  4.3911 -0.5637
   10MOL   H355 8473   2.156   3.594   6.275 -3.0436  1.0284  1.0382
   10MOL   H356 8474   1.943   3.774   5.955  0.4727  1.6217  0.1216
   10MOL   H357 8475   2.162   3.881   5.867  0.1514  0.0722  0.1202
   10MOL   H358 8476   1.910   3.701   6.372 -1.6621  1.4090  1.0776
   10MOL   H359 8477   1.715   3.576   6.441 -1.1831  0.9579 -0.7386
   10MOL   H360 8478   1.681   3.384   6.057  0.6349  0.2226 -0.4534
   10MOL   H361 8479   1.884   3.519   5.979 -1.5616  0.0496 -1.4321
   10MOL   C362 8480   1.531   3.286   6.269 -0.0513 -0.0104  0.0258
   10MOL   C363 8481   1.629   3.187   6.282 -0.5453  0.0592  0.1866
   10MOL   C364 8482   1.602   3.055   6.250 -0.9462  0.1061 -0.4531
   10MOL   C365 8483   1.475   3.027   6.190  0.5497 -0.3024 -0.4350
   10MOL   C366 8484   1.381   3.131   6.170  0.2752 -0.3629 -0.0675
   10MOL   C367 8485   1.409   3.261   6.215  0.6221 -0.0263  0.6036
   10MOL   S368 8486   1.444   2.858   6.135  0.2121  0.4132  0.3491
   10MOL   O369 8487   1.529   2.835   6.017  0.4297 -0.4683 -0.3239
   10MOL   O370 8488   1.300   2.843   6.115 -0.3145 -0.2312  0.3847
   10MOL   C371 8489   1.493   2.744   6.274  0.4200 -0.9727  0.5797
   10MOL   C372 8490   1.606   2.662   6.286 -0.0419 -0.2004  1.3979
   10MOL   C373 8491   1.625   2.570   6.393 -0.0538 -0.3425 -1.0963
   10MOL   C374 8492   1.526   2.561   6.490 -0.3066  1.2496 -0.7104
   10MOL   C375 8493   1.416   2.644   6.484 -0.4350 -0.1150 -0.5696
   10MOL   C376 8494   1.394   2.736   6.376 -0.5940 -0.5255  0.4167
   10MOL   O377 8495   1.535   2.476   6.599  0.1599 -0.3447  0.0533
   10MOL   C378 8496   1.545   2.345   6.573  0.1675  0.0711  0.6993
   10MOL   C379 8497   1.431   2.265   6.553 -0.1756  0.9379  0.4292
   10MOL   C380 8498   1.443   2.129   6.525 -0.9118  0.2741  0.3087
   10MOL   C381 8499   1.571   2.067   6.515 -0.0931 -0.4972 -0.4412
   10MOL   C382 8500   1.683   2.148   6.536 -0.2348 -0.6072  0.5920
   10MOL   C383 8501   1.674   2.281   6.566  0.1288 -0.9497 -0.6092
   10MOL   C384 8502   1.594   1.926   6.498 -0.0996  0.0179  0.8433
   10MOL   C385 8503   1.676   1.881   6.391 -0.0913  0.6555 -0.3319
   10MOL   C386 8504   1.718   1.749   6.391  0.1467  0.0230  0.7162
   10MOL   C387 8505   1.670   1.655   6.483 -0.4032  0.0449 -0.5296
   10MOL   C388 8506   1.576   1.696   6.575  0.4831  0.9139  0.3522
   10MOL   C389 8507   1.552   1.831   6.590  0.1096 -0.6029 -0.5285
   10MOL   O390 8508   1.710   1.522   6.490 -0.6869  0.3379  0.4536
   10MOL   H391 8509   1.728   3.213   6.317 -0.7692  0.0868  0.8085
   10MOL   H392 8510   1.684   2.984   6.252 -1.3537 -0.3832 -0.9390
   10MOL   H393 8511   1.297   3.104   6.108 -3.1090  2.9470  2.7785
   10MOL   H394 8512   1.346   3.349   6.203 -1.1115 -1.3620 -0.2646
   10MOL   H395 8513   1.679   2.662   6.207 -0.5441 -0.9643  0.9356
   10MOL   H396 8514   1.714   2.509   6.402 -0.5727 -1.0826 -1.0133
   10MOL   H397 8515   1.341   2.648   6.561 -0.2667 -1.1886 -0.3529
   10MOL   H398 8516   1.305   2.797   6.373 -0.3618 -0.2161 -4.1292
   10MOL   H399 8517   1.331   2.306   6.557 -0.8856 -0.4813 -1.6876
   10MOL   H400 8518   1.361   2.059   6.513  0.4340 -1.0718 -1.1929
   10MOL   H401 8519   1.779   2.100   6.543 -0.8145 -1.9708 -0.6837
   10MOL   H402 8520   1.768   2.332   6.581  0.1408 -1.9221  3.1545
   10MOL   H403 8521   1.711   1.962   6.328 -2.2197  0.4666 -1.7971
   10MOL   H404 8522   1.799   1.724   6.324  1.8134  2.3442  1.7536
   10MOL   H405 8523   1.530   1.627   6.645  1.9892 -0.1971  0.2664
   10MOL   H406 8524   1.490   1.863   6.672  0.7304  1.6116 -0.8750
   10MOL   C407 8525   1.737   1.451   6.372 -0.8872  0.2587 -0.2420
   10MOL   C408 8526   1.847   1.474   6.288  0.1888  0.0996 -0.0848
   10MOL   C409 8527   1.858   1.401   6.165  0.3686 -0.0144 -0.4862
   10MOL   C410 8528   1.763   1.300   6.136  0.3151  0.1070  0.2283
   10MOL   C411 8529   1.655   1.277   6.221  0.1535 -0.1724 -0.8566
   10MOL   C412 8530   1.649   1.350   6.342 -0.1917  0.3485 -0.1892
   10MOL   S413 8531   1.777   1.197   5.989  0.1556  0.1680 -0.9300
   10MOL   O414 8532   1.688   1.082   6.000 -0.7024  0.2220  0.1248
   10MOL   O415 8533   1.918   1.178   5.960 -0.3002  0.4470  0.1296
   10MOL   C416 8534   1.720   1.318   5.868 -0.1730  0.5313 -0.9473
   10MOL   C417 8535   1.814   1.401   5.807 -0.3330  0.6116  0.3962
   10MOL   C418 8536   1.767   1.499   5.716 -0.5144 -0.6909 -0.5133
   10MOL   C419 8537   1.630   1.515   5.694 -0.0700  0.4689 -0.8474
   10MOL   C420 8538   1.540   1.427   5.746 -0.1352 -0.8702 -0.4858
   10MOL   C421 8539   1.584   1.329   5.831 -0.3106 -0.8017  0.2217
   10MOL   O422 8540   1.592   1.618   5.613 -0.4222 -0.0297  0.0028
   10MOL   C423 8541   1.465   1.670   5.614 -0.0513  0.7730  0.1844
   10MOL   C424 8542   1.379   1.633   5.511  0.6529  0.2003 -0.5283
   10MOL   C425 8543   1.248   1.680   5.519 -0.5232  0.2492  1.1626
   10MOL   C426 8544   1.196   1.750   5.631 -0.1270 -0.1861 -0.3671
   10MOL   C427 8545   1.288   1.778   5.737  0.2597 -0.2540 -0.3298
   10MOL   C428 8546   1.422   1.748   5.724 -0.3413  0.2828  0.1631
   10MOL   C429 8547   1.051   1.779   5.641 -0.7917  0.0954 -0.4338
   10MOL   C430 8548   0.986   1.836   5.528 -0.1778  0.5924 -0.1887
   10MOL   C431 8549   0.853   1.876   5.541  0.0650  0.3149  0.4273
   10MOL   C432 8550   0.782   1.866   5.662  0.0444  0.0989 -0.7653
   10MOL   C433 8551   0.854   1.827   5.780 -0.0272 -0.8569 -0.1273
   10MOL   C434 8552   0.985   1.788   5.770 -0.3529 -0.4210 -0.0696
   10MOL   O435 8553   0.647   1.903   5.677 -0.3370  0.3803 -0.2447
   10MOL   H436 8554   1.903   1.564   6.304 -0.2919  0.2692  0.6889
   10MOL   H437 8555   1.941   1.430   6.103  0.4033 -0.4389 -0.6400
   10MOL   H438 8556   1.587   1.194   6.206  1.3076 -1.3671  0.3603
   10MOL   H439 8557   1.568   1.327   6.410 -1.0423 -1.1276 -1.6766
   10MOL   H440 8558   1.917   1.402   5.841 -0.0196 -2.0660 -0.3947
   10MOL   H441 8559   1.834   1.574   5.675  0.8812 -1.9758 -0.6318
   10MOL   H442 8560   1.433   1.437   5.728  0.1264 -1.2719 -2.4063
   10MOL   H443 8561   1.526   1.251   5.876 -1.2634  0.4549  1.2183
   10MOL   H444 8562   1.407   1.573   5.425  0.4818 -0.6411  0.0001
   10MOL   H445 8563   1.177   1.658   5.441  0.2154  1.1189  0.2285
   10MOL   H446 8564   1.242   1.821   5.825 -2.2066  0.8456 -2.0857
   10MOL   H447 8565   1.487   1.774   5.806 -0.6889 -0.6064  0.7358
   10MOL   H448 8566   1.038   1.840   5.434  0.8556  0.8488  0.3850
   10MOL   H449 8567   0.797   1.898   5.451 -1.6821  2.3479  1.9443
   10MOL   H450 8568   0.797   1.822   5.872  0.2546 -0.6838  0.0567
   10MOL   H451 8569   1.046   1.756   5.853  1.9398  0.8408 -1.2043
   10MOL   C452 8570   0.613   2.036   5.665  0.0609 -0.4857  0.2420
   10MOL   C453 8571   0.530   2.077   5.558  0.1686 -0.5405  0.0536
   10MOL   C454 8572   0.460   2.202   5.562 -0.5144  0.1276 -0.0005
   10MOL   C455 8573   0.483   2.294   5.663  0.1292 -0.3720  0.4798
   10MOL   C456 8574   0.567   2.261   5.769 -0.2843 -0.3751  0.4992
   10MOL   C457 8575   0.629   2.133   5.773  0.1425 -0.5891  0.5440
   10MOL   S458 8576   0.401   2.450   5.651 -0.2174 -0.0938 -0.1617
   10MOL   O459 8577   0.376   2.498   5.790 -0.0070  0.1696 -0.1739
   10MOL   O460 8578   0.292   2.431   5.554  0.1161 -0.2030  0.0419
   10MOL   C461 8579   0.528   2.556   5.577 -0.3357 -0.1006  1.3485
   10MOL   C462 8580   0.528   2.690   5.610  0.2596  0.6023  0.0827
   10MOL   C463 8581   0.609   2.780   5.539  0.4224 -0.3994 -0.7157
   10MOL   C464 8582   0.705   2.732   5.448  0.3772 -0.2435  0.4123
   10MOL   C465 8583   0.702   2.601   5.412  0.0901 -0.7442  0.2586
   10MOL   C466 8584   0.607   2.514   5.468  0.4400  0.2214  0.2437
   10MOL   O467 8585   0.784   2.819   5.383 -0.1620 -0.5174 -0.6192
   10MOL   C468 8586   0.721   2.898   5.292 -0.0199 -0.4602  0.3803
   10MOL   C469 8587   0.671   3.025   5.327 -0.5588  0.4514 -0.7959
   10MOL   C470 8588   0.615   3.100   5.220  0.1552  0.2701 -0.4812
   10MOL   C471 8589   0.630   3.062   5.084 -0.1814  0.3555  0.2649
   10MOL   C472 8590   0.681   2.936   5.055 -0.1104 -0.4118  0.4874
   10MOL   C473 8591   0.723   2.849   5.159 -0.2073 -0.1569 -0.3957
   10MOL   C474 8592   0.578   3.154   4.980  0.6773  0.1139  0.0691
   10MOL   C475 8593   0.526   3.106   4.855  0.2413 -0.0745  0.7657
   10MOL   C476 8594   0.472   3.196   4.761  0.1355  0.1518  0.4897
   10MOL   C477 8595   0.477   3.331   4.775 -0.6433  0.2968  0.4136
   10MOL   C478 8596   0.536   3.376   4.893  0.2999 -0.2994  0.4907
   10MOL   C479 8597   0.585   3.295   4.996  0.0772  0.5967  0.2944
   10MOL   O480 8598   0.432   3.419   4.679  0.8026  0.1818  0.1061
   10MOL   H481 8599   0.517   2.006   5.477 -1.1595  0.3421 -0.5195
   10MOL   H482 8600   0.396   2.228   5.479 -0.7298 -0.3422  0.0160
   10MOL   H483 8601   0.576   2.327   5.854 -0.8211 -0.3288  0.5198
   10MOL   H484 8602   0.672   2.092   5.863 -0.4664 -1.1016  0.6097
   10MOL   H485 8603   0.461   2.730   5.685 -1.8101 -1.9795 -0.3043
   10MOL   H486 8604   0.609   2.883   5.570 -0.1134 -0.5856 -0.1001
   10MOL   H487 8605   0.774   2.571   5.337  2.3742  1.2624  1.5892
   10MOL   H488 8606   0.599   2.411   5.437 -0.1553  0.1861  0.5047
   10MOL   H489 8607   0.671   3.054   5.431 -0.8881 -0.5324 -0.5244
   10MOL   H490 8608   0.556   3.189   5.236  0.0938  0.0740  0.4428
   10MOL   H491 8609   0.675   2.905   4.952 -1.2382  0.4180  0.2973
   10MOL   H492 8610   0.756   2.748   5.140 -2.5829 -0.6413 -2.0815
   10MOL   H493 8611   0.516   3.000   4.836 -2.4596  0.2746  0.0755
   10MOL   H494 8612   0.422   3.159   4.673 -0.6025  1.4784  0.3292
   10MOL   H495 8613   0.520   3.483   4.895 -0.7843 -0.4658  0.9412
   10MOL   H496 8614   0.623   3.341   5.086  0.1703  2.8589 -0.8510
   10MOL   C497 8615   0.446   3.398   4.549 -0.5849  0.3184  0.1820
   10MOL   C498 8616   0.349   3.450   4.462  0.3282  0.1354  0.3306
   10MOL   C499 8617   0.369   3.431   4.322  1.0283  0.8987  0.7419
   10MOL   C500 8618   0.482   3.362   4.276 -0.2178 -0.0132 -0.7614
   10MOL   C501 8619   0.569   3.303   4.362 -0.1785  0.2433 -0.7805
   10MOL   C502 8620   0.554   3.321   4.502 -0.3240  0.4954 -0.0952
   10MOL   S503 8621   0.512   3.358   4.107  0.3168 -0.3516 -0.1093
   10MOL   O504 8622   0.386   3.393   4.039 -0.3009  0.0822  0.2834
   10MOL   O505 8623   0.578   3.232   4.071  0.3461  0.2577 -0.2979
   10MOL   C506 8624   0.632   3.494   4.090  0.0944  0.9299 -0.1324
   10MOL   C507 8625   0.706   3.502   3.966 -0.4081 -0.1696  0.0862
   10MOL   C508 8626   0.789   3.611   3.942 -0.2526  0.1414 -0.0681
   10MOL   C509 8627   0.791   3.723   4.027 -0.1774  0.3012 -0.4792
   10MOL   C510 8628   0.722   3.711   4.148  0.0996  0.5948 -0.4264
   10MOL   C511 8629   0.645   3.598   4.185 -0.4410  0.5890  1.3801
   10MOL   O512 8630   0.862   3.834   3.996 -0.2154  0.2132 -0.1982
   10MOL   C513 8631   0.995   3.815   3.972 -0.3429  0.0167  0.3316
   10MOL   C514 8632   1.093   3.768   4.064  0.0887  0.1023 -0.0756
   10MOL   C515 8633   1.224   3.742   4.033 -0.0575 -0.0401  0.1459
   10MOL   C516 8634   1.265   3.781   3.908 -1.0284  0.6305 -0.7932
   10MOL   C517 8635   1.176   3.831   3.813  0.3110  0.3286  0.3693
   10MOL   C518 8636   1.044   3.850   3.849  0.4496 -0.3880  0.7501
   10MOL   C519 8637   1.409   3.772   3.871  0.0436  0.1000  0.2106
   10MOL   C520 8638   1.472   3.869   3.790 -0.1695 -0.0152  0.7281
   10MOL   C521 8639   1.612   3.868   3.770  1.0056 -0.2567  0.2088
   10MOL   C522 8640   1.688   3.766   3.826  1.2759 -0.1668 -0.0516
   10MOL   C523 8641   1.626   3.661   3.892 -0.0957 -0.2826 -0.2537
   10MOL   C524 8642   1.489   3.661   3.917  0.2280 -0.5107 -0.0957
   10MOL   O525 8643   1.825   3.778   3.821 -0.4891  0.3080 -0.1308
   10MOL   H526 8644   0.262   3.497   4.506 -0.0608 -0.7814  0.5553
   10MOL   H527 8645   0.300   3.477   4.253  0.1961 -0.7419  0.4691
   10MOL   H528 8646   0.659   3.261   4.321 -0.1841  1.4364 -2.0785
   10MOL   H529 8647   0.634   3.295   4.570  1.5917  1.9840 -1.7003
   10MOL   H530 8648   0.710   3.414   3.903 -0.4030  1.1217 -1.7507
   10MOL   H531 8649   0.847   3.599   3.852 -0.6277  0.8268 -0.4079
   10MOL   H532 8650   0.719   3.801   4.208 -1.8907 -0.3409  0.9450
   10MOL   H533 8651   0.578   3.599   4.270 -1.3438  1.3992  0.6703
   10MOL   H534 8652   1.055   3.747   4.163  3.6051  0.1718  1.3565
   10MOL   H535 8653   1.294   3.698   4.103  0.9270  0.3709 -0.5616
   10MOL   H536 8654   1.211   3.861   3.715 -2.9576 -0.7339 -1.1964
   10MOL   H537 8655   0.989   3.900   3.771 -1.4945 -1.2287  1.5642
   10MOL   H538 8656   1.419   3.948   3.739  1.5362 -0.4982 -1.8819
   10MOL   H539 8657   1.656   3.956   3.723 -2.5980  0.5874 -1.7874
   10MOL   H540 8658   1.691   3.579   3.917  2.5681  2.1978  1.2466
   10MOL   H541 8659   1.444   3.586   3.981  0.0509 -0.3567 -0.0355
   10MOL   C542 8660   1.886   3.888   3.876  0.2750 -0.4911 -0.5724
   10MOL   C543 8661   1.837   3.943   3.995  0.9342  0.6194  0.7782
   10MOL   C544 8662   1.889   4.054   4.060  0.5587  0.5476  0.5290
   10MOL   C545 8663   2.002   4.114   3.999  0.4500  0.0859  0.2727
   10MOL   C546 8664   2.051   4.061   3.878  0.0868 -0.6266 -0.3258
   10MOL   C547 8665   1.999   3.944   3.812  0.1265 -0.9765  0.0417
   10MOL   S548 8666   2.093   4.249   4.072  0.0568 -0.1096 -0.1365
   10MOL   O549 8667   2.203   4.287   3.986 -0.3494 -0.3477  0.1063
   10MOL   O550 8668   2.116   4.209   4.214  0.2388  0.2419  0.2013
   10MOL   C551 8669   1.983   4.393   4.080 -0.1316  0.2616  0.5001
   10MOL   C552 8670   2.036   4.513   4.132  0.2729  0.8430  0.5034
   10MOL   C553 8671   1.960   4.629   4.139  0.4276 -0.3793  0.2185
   10MOL   C554 8672   1.825   4.627   4.086 -0.3092  0.4161  0.0957
   10MOL   C555 8673   1.767   4.507   4.048  0.0152 -0.5381 -0.4584
   10MOL   C556 8674   1.849   4.393   4.050 -0.2945  0.6953 -0.9811
   10MOL   O557 8675   1.740   4.740   4.086 -0.5717  0.9571 -0.2122
   10MOL   C558 8676   1.782   4.862   4.127  0.1394  0.8727  0.3485
   10MOL   C559 8677   1.791   4.898   4.264 -0.0023 -0.3914  0.0331
   10MOL   C560 8678   1.830   5.031   4.303  0.3733  0.2135 -0.3748
   10MOL   C561 8679   1.874   5.124   4.202  0.8680 -0.2224 -0.2740
   10MOL   C562 8680   1.875   5.080   4.069 -0.1163  0.1470 -0.6033
   10MOL   C563 8681   1.834   4.952   4.036  0.3353 -0.5971  0.4177
   10MOL   C564 8682   1.917   5.265   4.243 -0.2813 -0.1141  0.4320
   10MOL   C565 8683   2.008   5.286   4.345  0.4657  0.1773  0.2357
   10MOL   C566 8684   2.038   5.418   4.385 -0.5132  0.0614 -0.4714
   10MOL   C567 8685   1.989   5.529   4.318 -0.2853 -0.1905  0.1500
   10MOL   C568 8686   1.887   5.511   4.219 -0.3814  0.2091 -0.1258
   10MOL   C569 8687   1.852   5.382   4.190  0.0224 -0.1936  0.7195
   10MOL   O570 8688   2.022   5.660   4.346  0.5913  0.1123 -0.1313
   10MOL   H571 8689   1.746   3.898   4.029  0.4468 -0.6768 -2.0553
   10MOL   H572 8690   1.847   4.096   4.151 -1.7814 -1.0339  0.2432
   10MOL   H573 8691   2.131   4.117   3.831  0.6003 -1.0482  0.0342
   10MOL   H574 8692   2.020   3.907   3.713  1.9098  0.0840  0.0011
   10MOL   H575 8693   2.133   4.514   4.179  0.2227 -0.9642  0.6720
   10MOL   H576 8694   2.011   4.713   4.184  3.4342 -3.1640  2.1764
   10MOL   H577 8695   1.670   4.505   4.001 -0.5809  0.2704  0.7333
   10MOL   H578 8696   1.797   4.300   4.029 -0.9445  0.4702  1.4442
   10MOL   H579 8697   1.753   4.822   4.331  0.7727 -0.4696  0.3884
   10MOL   H580 8698   1.823   5.056   4.408 -0.4652 -2.2285  0.1574
   10MOL   H581 8699   1.929   5.142   3.998  0.6189 -0.0696 -0.2421
   10MOL   H582 8700   1.854   4.925   3.933 -1.8934 -1.0385  0.0756
   10MOL   H583 8701   2.044   5.197   4.395  0.4972  0.3440  0.5126
   10MOL   H584 8702   2.111   5.438   4.461  0.2721  1.4491 -1.5757
   10MOL   H585 8703   1.827   5.588   4.173 -0.3065 -0.0512 -0.6602
   10MOL   H586 8704   1.775   5.360   4.117  0.9147  1.1972 -0.6745
   10MOL   C587 8705   2.158   5.684   4.334  0.1178 -0.3781 -0.8087
   10MOL   C588 8706   2.214   5.693   4.203 -0.4782  0.1698  0.3770
   10MOL   C589 8707   2.352   5.728   4.186  0.6349 -0.0003  0.4805
   10MOL   C590 8708   2.433   5.749   4.298 -0.6197 -0.6811  0.7713
   10MOL   C591 8709   2.377   5.737   4.422 -0.3415  0.2302  0.0666
   10MOL   C592 8710   2.242   5.711   4.443  0.2648 -0.2194  0.0128
   10MOL   S593 8711   2.594   5.820   4.275  0.2521 -0.5081  0.0734
   10MOL   O594 8712   2.635   5.901   4.391 -0.6335 -0.0063  0.0557
   10MOL   O595 8713   2.599   5.886   4.138 -0.0971 -0.5825  0.5178
   10MOL   C596 8714   2.701   5.679   4.277  0.3144 -0.3285  0.2107
   10MOL   C597 8715   2.818   5.685   4.201  0.6346  0.0093  0.2086
   10MOL   C598 8716   2.907   5.577   4.203  0.3666  0.2158  0.2054
   10MOL   C599 8717   2.874   5.454   4.265  0.3683  0.2647  0.4557
   10MOL   C600 8718   2.753   5.444   4.337  0.2304  0.4695 -0.5291
   10MOL   C601 8719   2.667   5.560   4.349  0.4702 -0.9278 -0.1246
   10MOL   O602 8720   2.970   5.356   4.271 -0.2881 -0.1541  0.2322
   10MOL   C603 8721   2.941   5.247   4.197  0.2165 -0.4208  0.4841
   10MOL   C604 8722   2.898   5.127   4.260 -0.1415  0.5706  0.7120
   10MOL   C605 8723   2.884   5.007   4.183  0.1575 -0.3166  0.2208
   10MOL   C606 8724   2.919   5.008   4.045  0.6808  0.2599 -0.0681
   10MOL   C607 8725   2.953   5.130   3.984 -0.0399 -0.3700  0.4618
   10MOL   C608 8726   2.965   5.249   4.059 -0.0197  0.4593 -0.3425
   10MOL   C609 8727   2.902   4.881   3.967  0.3897  0.4159 -0.1821
   10MOL   C610 8728   2.935   4.754   4.020  0.0471 -0.9889  0.0825
   10MOL   C611 8729   2.913   4.637   3.946 -1.1942  0.3114  0.0813
   10MOL   C612 8730   2.859   4.642   3.820 -0.2639 -0.1215  0.6209
   10MOL   C613 8731   2.811   4.763   3.773  0.1053  0.7888 -0.1084
   10MOL   C614 8732   2.833   4.883   3.844  0.9032  0.0643  0.2663
   10MOL   O615 8733   2.826   4.532   3.751 -0.3016 -0.1930  0.0141
   10MOL   H616 8734   2.144   5.682   4.121  0.1880  2.2488 -0.4958
   10MOL   H617 8735   2.385   5.753   4.086  0.1556 -0.4002  0.2211
   10MOL   H618 8736   2.432   5.757   4.513 -1.3180 -0.0187  0.7153
   10MOL   H619 8737   2.198   5.693   4.540 -0.9351  1.1334 -0.2643
   10MOL   H620 8738   2.838   5.771   4.139 -1.3887  0.7994  0.5834
   10MOL   H621 8739   3.005   5.575   4.157  0.0607  2.4263 -0.6012
   10MOL   H622 8740   2.724   5.353   4.387  0.6432  0.1265 -0.9087
   10MOL   H623 8741   2.579   5.559   4.412  0.7600 -1.7291  0.2716
   10MOL   H624 8742   2.860   5.120   4.361  1.3296 -0.4601  1.2079
   10MOL   H625 8743   2.838   4.926   4.237  0.9144 -1.0620 -0.2445
   10MOL   H626 8744   2.967   5.138   3.877 -1.9185 -0.3817  0.1922
   10MOL   H627 8745   3.003   5.336   4.006 -0.5652  0.0362 -1.4453
   10MOL   H628 8746   2.975   4.747   4.120 -1.6258 -0.0497  0.8406
   10MOL   H629 8747   2.938   4.537   3.980 -0.7081 -0.0626 -1.3421
   10MOL   H630 8748   2.762   4.765   3.677  2.2713  0.5992 -1.2334
   10MOL   H631 8749   2.795   4.975   3.801 -2.3082 -0.0955  2.6054
   10MOL   C632 8750   2.885   4.515   3.628  0.3237 -0.1017 -0.1341
   10MOL   C633 8751   2.817   4.551   3.509 -1.0783  0.7725 -0.2548
   10MOL   C634 8752   2.879   4.542   3.381  0.2584  0.5817  0.2638
   10MOL   C635 8753   2.999   4.469   3.363  0.3500 -0.7854  0.0894
   10MOL   C636 8754   3.070   4.433   3.476  0.0684  0.0409  0.2120
   10MOL   C637 8755   3.017   4.459   3.607  0.2928  0.1220 -0.2858
   10MOL   S638 8756   3.061   4.436   3.201  0.0053  0.2554 -0.2058
   10MOL   O639 8757   3.210   4.452   3.198 -0.6838 -0.6005 -0.0716
   10MOL   O640 8758   2.977   4.509   3.103  0.3186 -0.3662 -0.3421
   10MOL   C641 8759   3.009   4.264   3.183  0.5007 -0.4514  1.4915
   10MOL   C642 8760   3.097   4.160   3.217  0.6290  0.6514 -0.3639
   10MOL   C643 8761   3.057   4.023   3.200  1.0061 -0.2502 -0.6450
   10MOL   C644 8762   2.932   3.998   3.135  0.0523  0.8508 -0.0392
   10MOL   C645 8763   2.847   4.103   3.099 -0.7148 -0.1936  0.0318
   10MOL   C646 8764   2.879   4.236   3.126  0.1644  0.5925 -0.0082
   10MOL   O647 8765   2.900   3.865   3.128 -0.3823  0.2202  0.3330
   10MOL   C648 8766   2.835   3.819   3.013 -0.0622  0.1556 -0.3398
   10MOL   C649 8767   2.724   3.737   3.032 -0.0348  0.4842 -0.1296
   10MOL   C650 8768   2.656   3.687   2.917 -0.0085 -0.2069  0.4035
   10MOL   C651 8769   2.698   3.704   2.785 -0.7785  0.7667  0.1952
   10MOL   C652 8770   2.802   3.799   2.772  0.2145  0.4486 -1.1560
   10MOL   C653 8771   2.877   3.850   2.882  0.9453 -0.8957  1.2592
   10MOL   C654 8772   2.636   3.640   2.674 -0.6173  0.0453 -0.5609
   10MOL   C655 8773   2.608   3.502   2.675  0.5491 -0.0946  0.5469
   10MOL   C656 8774   2.544   3.446   2.566  0.7746  1.1970 -0.6476
   10MOL   C657 8775   2.493   3.519   2.458  0.0192 -0.5549  0.3747
   10MOL   C658 8776   2.520   3.658   2.460 -0.1088 -0.1283  0.2224
   10MOL   C659 8777   2.599   3.716   2.559 -0.2158  0.0393  1.0150
   10MOL   O660 8778   2.425   3.455   2.361 -0.5115  0.1822  0.1970
   10MOL   H661 8779   2.729   4.612   3.517 -0.7028  1.1819  0.7772
   10MOL   H662 8780   2.819   4.564   3.294  1.4918  1.3563 -0.4073
   10MOL   H663 8781   3.153   4.368   3.455 -0.1608  0.2978 -1.5070
   10MOL   H664 8782   3.076   4.433   3.694  0.4299  0.7636 -0.1868
   10MOL   H665 8783   3.186   4.194   3.267  1.2316 -2.3645  0.7150
   10MOL   H666 8784   3.124   3.949   3.242 -0.1620 -2.5498 -2.7038
   10MOL   H667 8785   2.760   4.075   3.042 -0.2456  1.3894 -1.5060
   10MOL   H668 8786   2.832   4.323   3.082 -1.3245 -0.8469 -1.3218
   10MOL   H669 8787   2.683   3.705   3.127 -0.5126 -2.2942 -1.2439
   10MOL   H670 8788   2.581   3.612   2.935  2.5613 -3.1234 -0.4342
   10MOL   H671 8789   2.834   3.822   2.672 -1.0226  0.2526 -1.6019
   10MOL   H672 8790   2.963   3.913   2.868  1.2568 -1.5441  0.2159
   10MOL   H673 8791   2.643   3.432   2.750  1.1821 -1.9417 -1.4331
   10MOL   H674 8792   2.527   3.339   2.566  0.5689  1.2102  1.1133
   10MOL   H675 8793   2.479   3.722   2.383 -0.1492 -0.8114 -0.3281
   10MOL   H676 8794   2.600   3.823   2.550 -2.0778  0.0294  0.4701
   10MOL   C677 8795   2.289   3.445   2.386  0.4424 -0.3994 -0.2104
   10MOL   C678 8796   2.208   3.477   2.278 -0.4798 -0.1402 -0.3845
   10MOL   C679 8797   2.068   3.471   2.284  0.2585 -0.0986 -0.3659
   10MOL   C680 8798   2.009   3.426   2.407 -0.3720 -0.2143 -0.1573
   10MOL   C681 8799   2.093   3.388   2.517 -0.6315 -0.3083 -0.2572
   10MOL   C682 8800   2.232   3.391   2.501 -1.8179 -0.5559 -0.3733
   10MOL   S683 8801   1.828   3.415   2.420 -0.0626 -0.1400 -0.0650
   10MOL   O684 8802   1.796   3.310   2.524 -0.0268  0.1058  0.1135
   10MOL   O685 8803   1.773   3.399   2.288 -0.2460 -0.0050  0.0118
   10MOL   C686 8804   1.777   3.571   2.483  0.2394  0.0368  0.3248
   10MOL   C687 8805   1.786   3.591   2.619 -0.3507  0.3760  0.3986
   10MOL   C688 8806   1.751   3.714   2.675 -0.2808 -0.5753  0.0192
   10MOL   C689 8807   1.693   3.811   2.592 -0.6561 -0.3413 -0.1888
   10MOL   C690 8808   1.676   3.796   2.451 -0.1738 -0.8688  0.4183
   10MOL   C691 8809   1.724   3.668   2.401  0.3827 -0.3700  0.1640
   10MOL   O692 8810   1.662   3.927   2.664 -0.1766 -0.2945 -0.1728
   10MOL   C693 8811   1.742   4.041   2.639 -0.0546 -0.6405 -0.0918
   10MOL   C694 8812   1.880   4.044   2.626 -0.6032  0.5915  0.3060
   10MOL   C695 8813   1.945   4.162   2.589 -0.0780  0.4383  0.2380
   10MOL   C696 8814   1.868   4.283   2.578 -0.1193 -0.2969  0.5129
   10MOL   C697 8815   1.732   4.282   2.609  0.2847  0.5218  0.5449
   10MOL   C698 8816   1.667   4.161   2.639 -0.3033 -0.6805  0.1931
   10MOL   C699 8817   1.928   4.411   2.543  0.9270 -0.2497  0.0287
   10MOL   C700 8818   1.860   4.519   2.480 -0.5117 -0.4288  0.5009
   10MOL   C701 8819   1.924   4.642   2.454 -0.2767 -0.1838  0.2393
   10MOL   C702 8820   2.051   4.660   2.509 -0.5657 -0.0334  0.3416
   10MOL   C703 8821   2.121   4.553   2.569  0.3095 -1.1763 -0.4458
   10MOL   C704 8822   2.056   4.434   2.589  0.3178  0.1604 -0.4782
   10MOL   O705 8823   2.111   4.780   2.512  0.0112 -0.8943 -0.3746
   10MOL   H706 8824   2.251   3.511   2.185 -0.5003 -1.4612 -0.8840
   10MOL   H707 8825   2.012   3.501   2.197  0.1574  1.1269  0.1242
   10MOL   H708 8826   2.043   3.353   2.606 -1.1221 -1.9190 -1.1510
   10MOL   H709 8827   2.297   3.349   2.576  1.1406  0.3141 -2.3326
   10MOL   H710 8828   1.828   3.513   2.680 -1.9041  0.0693  1.1177
   10MOL   H711 8829   1.759   3.726   2.782 -1.4877  2.9117 -0.2475
   10MOL   H712 8830   1.651   3.876   2.382 -1.5785 -1.8414 -0.2351
   10MOL   H713 8831   1.712   3.644   2.296  1.2348 -0.9800  0.1972
   10MOL   H714 8832   1.932   3.950   2.636 -1.7803  0.0844  1.7751
   10MOL   H715 8833   2.050   4.161   2.565 -0.2408  0.5315 -0.5002
   10MOL   H716 8834   1.674   4.373   2.608 -1.9606 -0.8500  1.0480
   10MOL   H717 8835   1.560   4.169   2.640 -0.4514 -2.3405 -1.3726
   10MOL   H718 8836   1.760   4.500   2.443 -1.1879  0.7218  1.6838
   10MOL   H719 8837   1.875   4.718   2.394 -2.5105 -0.3196  1.8176
   10MOL   H720 8838   2.206   4.574   2.633  0.2383 -0.5739 -0.5488
   10MOL   H721 8839   2.110   4.364   2.651  2.4593  1.5985 -0.6758
   10MOL   C722 8840   2.223   4.802   2.435 -0.6209 -0.3971 -0.2770
   10MOL   C723 8841   2.325   4.889   2.478  0.0670 -0.8286  0.1298
   10MOL   C724 8842   2.431   4.923   2.389  0.6932 -0.1319  0.2917
   10MOL   C725 8843   2.431   4.883   2.255 -0.2908 -0.2340 -0.2040
   10MOL   C726 8844   2.331   4.792   2.214  0.7813 -0.0427 -0.3659
   10MOL   C727 8845   2.226   4.750   2.305 -0.7203  0.2474  0.3493
   10MOL   S728 8846   2.574   4.934   2.154 -0.0931 -0.2864  0.0266
   10MOL   O729 8847   2.665   4.817   2.161 -0.3223  0.0824  0.3585
   10MOL   O730 8848   2.623   5.071   2.199  0.4485  0.0823  0.0988
   10MOL   C731 8849   2.527   4.943   1.981 -0.8094  0.3642 -0.0422
   10MOL   C732 8850   2.401   4.987   1.940  0.1031 -0.2110  1.1821
   10MOL   C733 8851   2.368   4.993   1.805 -0.2452  0.3996 -0.0706
   10MOL   C734 8852   2.458   4.949   1.706  0.2970  0.3108 -0.5404
   10MOL   C735 8853   2.586   4.898   1.749 -0.0342  0.0433 -0.5834
   10MOL   C736 8854   2.621   4.898   1.883  0.0534  0.2146  0.1858
   10MOL   O737 8855   2.427   4.960   1.575 -0.1105  0.3427 -0.2715
   10MOL   C738 8856   2.463   4.856   1.494 -0.0081 -0.7120  0.2713
   10MOL   C739 8857   2.413   4.726   1.508 -0.4214  0.2196 -0.6843
   10MOL   C740 8858   2.446   4.620   1.425 -0.1857  0.0542  0.1540
   10MOL   C741 8859   2.537   4.648   1.318  0.1008 -0.0846  0.3597
   10MOL   C742 8860   2.586   4.778   1.306 -0.5431 -0.3836  0.1264
   10MOL   C743 8861   2.558   4.883   1.393 -0.6981 -0.1573 -0.3442
   10MOL   C744 8862   2.569   4.551   1.217  0.2622  0.0923  0.4559
   10MOL   C745 8863   2.570   4.576   1.082 -0.5299 -0.4252  0.1849
   10MOL   C746 8864   2.604   4.477   0.987  0.0456  0.2677  0.7531
   10MOL   C747 8865   2.652   4.353   1.020 -0.0674  0.4144  0.0251
   10MOL   C748 8866   2.655   4.323   1.156  0.2571 -1.0291 -0.2701
   10MOL   C749 8867   2.613   4.417   1.255  0.5430  0.0599  0.3999
   10MOL   O750 8868   2.674   4.264   0.926  0.2709 -0.1861  0.2718
   10MOL   H751 8869   2.321   4.929   2.578  1.9281  0.5548 -0.3064
   10MOL   H752 8870   2.499   4.994   2.433  0.7497  0.5821 -0.9133
   10MOL   H753 8871   2.332   4.771   2.108  3.3187 -0.3843 -0.3070
   10MOL   H754 8872   2.147   4.697   2.254 -0.9855  0.8450  0.1339
   10MOL   H755 8873   2.323   5.015   2.009 -0.4845  0.5972  0.2107
   10MOL   H756 8874   2.266   5.014   1.779 -0.1668 -0.1045 -0.8241
   10MOL   H757 8875   2.647   4.870   1.665 -1.8746 -1.9047 -1.3107
   10MOL   H758 8876   2.717   4.865   1.919  0.4998  2.0691  0.7804
   10MOL   H759 8877   2.343   4.711   1.589  0.3186  1.5646  0.2391
   10MOL   H760 8878   2.414   4.518   1.444 -0.7883 -0.0450 -1.3504
   10MOL   H761 8879   2.649   4.792   1.219  2.5805  1.8733  2.6320
   10MOL   H762 8880   2.609   4.976   1.378  0.8200 -0.8894  0.1574
   10MOL   H763 8881   2.543   4.676   1.051  0.2139 -0.8322 -1.8339
   10MOL   H764 8882   2.605   4.490   0.879 -1.4258 -3.7895  0.1833
   10MOL   H765 8883   2.671   4.221   1.188 -1.5172 -1.1385  0.3528
   10MOL   H766 8884   2.622   4.389   1.358  0.9850 -1.5979 -0.0814
   10MOL   C767 8885   2.654   4.132   0.944  0.2555  0.4806  0.3833
   10MOL   C768 8886   2.520   4.087   0.964  0.0165  0.1971 -0.0617
   10MOL   C769 8887   2.490   3.949   0.959 -0.3114 -0.3673  0.1928
   10MOL   C770 8888   2.598   3.860   0.935  0.2732 -0.9805 -0.6360
   10MOL   C771 8889   2.736   3.905   0.939  0.1284  0.0316 -0.2100
   10MOL   C772 8890   2.757   4.042   0.935 -0.2453  0.1998 -0.1220
   10MOL   S773 8891   2.575   3.694   0.893 -0.3710 -0.3824  0.5371
   10MOL   O774 8892   2.678   3.616   0.960  0.2889  0.3006 -0.1014
   10MOL   O775 8893   2.553   3.669   0.747 -0.0739  0.0215 -0.2083
   10MOL   C776 8894   2.424   3.645   0.966  0.1322  0.4890  0.5382
   10MOL   C777 8895   2.409   3.671   1.104 -0.4887 -0.5299 -0.4535
   10MOL   C778 8896   2.299   3.611   1.171 -0.2808 -0.9807 -0.0967
   10MOL   C779 8897   2.202   3.533   1.094 -0.2355 -0.0227  0.0156
   10MOL   C780 8898   2.228   3.503   0.966 -0.5123 -0.0154  0.0138
   10MOL   C781 8899   2.331   3.564   0.895  0.5718 -0.5686  0.2466
   10MOL   O782 8900   2.095   3.472   1.155  0.5604 -0.7821 -0.3489
   10MOL   C783 8901   2.060   3.492   1.290 -0.3423 -0.0193  0.0327
   10MOL   C784 8902   1.995   3.616   1.338  0.7230  0.3266 -0.2936
   10MOL   C785 8903   1.952   3.626   1.474  0.3685  0.2874 -0.4474
   10MOL   C786 8904   1.957   3.508   1.558  0.4750  0.0941 -0.2524
   10MOL   C787 8905   2.019   3.391   1.509 -0.0736  0.4155 -0.6845
   10MOL   C788 8906   2.072   3.382   1.379  0.3219 -0.6785 -0.1223
   10MOL   C789 8907   1.884   3.511   1.686 -0.1220 -0.7904 -0.2460
   10MOL   C790 8908   1.926   3.444   1.801 -0.3480 -0.4489 -0.3266
   10MOL   C791 8909   1.875   3.469   1.927  0.7271 -0.3504  0.0920
   10MOL   C792 8910   1.768   3.560   1.944 -0.0158 -0.5327 -0.2978
   10MOL   C793 8911   1.708   3.613   1.826  0.1250 -0.0723 -0.2983
   10MOL   C794 8912   1.766   3.595   1.701 -0.1936 -0.0800 -0.2489
   10MOL   O795 8913   1.723   3.607   2.067  0.4813  0.5327 -0.2607
   10MOL   H796 8914   2.437   4.156   0.968 -0.0050  0.2075 -0.6618
   10MOL   H797 8915   2.391   3.908   0.946 -0.7890  1.1136 -1.1444
   10MOL   H798 8916   2.821   3.839   0.930 -0.3200 -0.5161 -0.4231
   10MOL   H799 8917   2.853   4.088   0.917 -0.2025  0.2198  0.1508
   10MOL   H800 8918   2.482   3.725   1.161 -0.8780 -0.7242  0.2353
   10MOL   H801 8919   2.285   3.625   1.277 -0.7282  0.4125 -0.3399
   10MOL   H802 8920   2.165   3.425   0.926  0.8698 -1.6972  1.0524
   10MOL   H803 8921   2.355   3.538   0.793 -1.1491 -2.1851  0.2189
   10MOL   H804 8922   1.981   3.700   1.272 -1.9341 -0.4116 -0.7409
   10MOL   H805 8923   1.905   3.719   1.505  3.0126  1.7129 -0.5796
   10MOL   H806 8924   2.031   3.301   1.568 -0.0496  0.7977 -0.1095
   10MOL   H807 8925   2.125   3.295   1.345  0.9320 -0.2021 -0.4158
   10MOL   H808 8926   2.021   3.393   1.791  0.6129  1.5447 -1.6926
   10MOL   H809 8927   1.926   3.424   2.011 -0.3951  0.0862  1.0381
   10MOL   H810 8928   1.633   3.690   1.817 -0.6859 -0.9082 -0.8274
   10MOL   H811 8929   1.726   3.648   1.616  1.3071 -1.3446 -1.7854
   10MOL   C812 8930   1.585   3.598   2.081 -0.2909 -0.4876 -0.4207
   10MOL   C813 8931   1.516   3.475   2.062 -0.2415  0.1483  0.0685
   10MOL   C814 8932   1.376   3.472   2.073 -0.0540  0.6886 -0.9430
   10MOL   C815 8933   1.304   3.581   2.128 -0.5193  0.2151  0.0314
   10MOL   C816 8934   1.376   3.701   2.144  0.0909 -0.8244 -0.2854
   10MOL   C817 8935   1.511   3.714   2.112 -0.2060  0.5696 -0.1532
   10MOL   S818 8936   1.124   3.571   2.163  0.1882  0.5027  0.6000
   10MOL   O819 8937   1.053   3.630   2.049 -0.1189 -0.3774  0.3700
   10MOL   O820 8938   1.102   3.615   2.300 -0.1460 -0.0844 -0.2546
   10MOL   C821 8939   1.082   3.398   2.158 -0.7051 -0.0998 -0.7937
   10MOL   C822 8940   1.132   3.307   2.256 -0.0787 -0.0382  0.0974
   10MOL   C823 8941   1.109   3.171   2.254 -0.3400 -0.2457  0.4164
   10MOL   C824 8942   1.031   3.114   2.153  0.6717 -0.0017  0.6330
   10MOL   C825 8943   0.986   3.205   2.053  0.4138  0.0504 -0.0447
   10MOL   C826 8944   1.012   3.343   2.049 -0.1983  0.0972  0.1893
   10MOL   O827 8945   0.987   2.989   2.162 -0.3774  0.5403 -0.1040
   10MOL   C828 8946   1.080   2.892   2.131  0.5576 -0.4681  0.2604
   10MOL   C829 8947   1.092   2.856   1.993  0.5146 -0.9833 -0.4108
   10MOL   C830 8948   1.189   2.762   1.962 -0.1148 -0.0139 -0.2375
   10MOL   C831 8949   1.291   2.714   2.050 -0.3355  0.9082  0.2210
   10MOL   C832 8950   1.281   2.752   2.186  0.1470 -0.1531 -0.2352
   10MOL   C833 8951   1.173   2.839   2.230 -0.3253  0.0431 -0.0679
   10MOL   C834 8952   1.402   2.623   2.005 -0.2744  0.3817  0.0226
   10MOL   C835 8953   1.445   2.515   2.085 -0.3703  0.4898 -0.4234
   10MOL   C836 8954   1.555   2.431   2.046 -0.0605 -0.1784 -0.1276
   10MOL   C837 8955   1.613   2.457   1.923  0.0406 -0.1136 -0.3272
   10MOL   C838 8956   1.569   2.556   1.840  0.4914 -0.4064  0.6717
   10MOL   C839 8957   1.468   2.646   1.882  0.3156  0.1782  0.2987
   10MOL   O840 8958   1.718   2.383   1.874 -0.4385  0.0949 -0.0251
   10MOL   H841 8959   1.564   3.385   2.027  0.1412  0.8333 -1.2023
   10MOL   H842 8960   1.321   3.380   2.061 -0.3363  0.9412 -1.6266
   10MOL   H843 8961   1.327   3.790   2.180 -1.0834 -0.7985 -1.8731
   10MOL   H844 8962   1.563   3.809   2.120 -1.4946  1.4490 -1.9206
   10MOL   H845 8963   1.180   3.364   2.334 -1.6710  1.3332  0.1022
   10MOL   H846 8964   1.154   3.109   2.330  0.7284  0.7182  0.5812
   10MOL   H847 8965   0.919   3.174   1.974 -0.5134 -0.3020  0.8695
   10MOL   H848 8966   0.986   3.396   1.959 -0.2295 -3.3870 -1.9374
   10MOL   H849 8967   1.026   2.882   1.911  0.9085  1.3162 -0.0149
   10MOL   H850 8968   1.189   2.731   1.859 -0.3554 -2.1839  0.3976
   10MOL   H851 8969   1.353   2.729   2.263  1.3214 -2.6836 -2.0057
   10MOL   H852 8970   1.169   2.872   2.333 -1.0568 -1.5053  0.4251
   10MOL   H853 8971   1.394   2.497   2.178  0.6278 -0.7115 -0.1003
   10MOL   H854 8972   1.597   2.360   2.115 -0.6496 -1.2864 -0.9014
   10MOL   H855 8973   1.617   2.580   1.746  1.8651  0.5334  1.6032
   10MOL   H856 8974   1.428   2.714   1.809  2.3590 -0.1752 -1.1798
   10MOL   C857 8975   1.724   2.251   1.878 -0.1347 -0.1090  0.2181
   10MOL   C858 8976   1.622   2.170   1.821  0.1959 -0.6910  0.2066
   10MOL   C859 8977   1.630   2.030   1.824 -0.3673  0.3502 -0.6155
   10MOL   C860 8978   1.740   1.961   1.890 -0.8406  0.4066 -1.1664
   10MOL   C861 8979   1.843   2.036   1.950  0.0695 -0.0076 -0.1867
   10MOL   C862 8980   1.833   2.180   1.939  0.3728 -0.6121 -0.8646
   10MOL   S863 8981   1.749   1.782   1.892 -0.0319 -0.1980  0.3622
   10MOL   O864 8982   1.889   1.739   1.926  0.6880 -0.1972  0.3742
   10MOL   O865 8983   1.677   1.732   1.772 -0.0704  0.6288 -0.2542
   10MOL   C866 8984   1.644   1.762   2.034  0.2551 -0.1025  0.6918
   10MOL   C867 8985   1.516   1.818   2.039  0.7171  0.1595  0.1554
   10MOL   C868 8986   1.435   1.802   2.152  0.1212  0.4906  0.2749
   10MOL   C869 8987   1.479   1.722   2.264 -0.9810 -0.4003  0.2522
   10MOL   C870 8988   1.611   1.671   2.259  0.1601  1.0882 -0.0664
   10MOL   C871 8989   1.688   1.688   2.143 -0.5648  0.4753 -0.1542
   10MOL   O872 8990   1.411   1.706   2.382 -0.1889  0.0795 -0.6066
   10MOL   C873 8991   1.289   1.753   2.406  0.9704  0.9308 -0.0693
   10MOL   C874 8992   1.184   1.716   2.320 -0.4852 -0.4008  0.3052
   10MOL   C875 8993   1.057   1.768   2.339  0.4578 -0.0564  0.0983
   10MOL   C876 8994   1.018   1.845   2.447  0.1631 -0.6084 -0.3523
   10MOL   C877 8995   1.116   1.874   2.541  0.0457  0.0973 -0.3188
   10MOL   C878 8996   1.253   1.833   2.517  0.0032 -0.1297  0.2874
   10MOL   C879 8997   0.886   1.904   2.456 -0.1847 -0.0122 -0.3742
   10MOL   C880 8998   0.833   1.963   2.574  0.8194 -0.7420  0.4218
   10MOL   C881 8999   0.709   2.029   2.572  0.4535 -0.3395  0.5460
   10MOL   C882 9000   0.636   2.040   2.456 -0.3738 -0.2373 -0.0214
   10MOL   C883 9001   0.685   1.976   2.339 -0.5847  0.5429 -0.6513
   10MOL   C884 9002   0.807   1.915   2.343 -0.5922  0.5591 -0.4410
   10MOL   O885 9003   0.515   2.099   2.450  0.1931  0.3746  0.2381
   10MOL   H886 9004   1.539   2.218   1.770 -0.2915 -0.3753  1.2733
   10MOL   H887 9005   1.564   1.968   1.766 -1.0019  1.1228 -0.7272
   10MOL   H888 9006   1.925   1.979   1.991  0.2989  1.2964  1.2181
   10MOL   H889 9007   1.911   2.240   1.982  0.2758 -0.8410 -0.3658
   10MOL   H890 9008   1.489   1.872   1.949 -0.3963  0.1575  0.4898
   10MOL   H891 9009   1.336   1.844   2.141  0.3490  1.6223  2.2976
   10MOL   H892 9010   1.661   1.610   2.333 -1.4693 -0.3220 -0.0903
   10MOL   H893 9011   1.788   1.649   2.132 -1.3869 -0.9845 -2.7112
   10MOL   H894 9012   1.209   1.655   2.234  0.9050  1.5183 -0.6938
   10MOL   H895 9013   0.985   1.735   2.265  1.7389  0.5265 -1.4434
   10MOL   H896 9014   1.097   1.928   2.633 -0.8835 -0.7401 -0.0165
   10MOL   H897 9015   1.326   1.847   2.596  1.7629 -0.1891 -1.2729
   10MOL   H898 9016   0.893   1.972   2.664  0.5647 -1.7881  0.6974
   10MOL   H899 9017   0.675   2.097   2.649 -0.4380 -0.5678  0.3649
   10MOL   H900 9018   0.624   1.975   2.250 -0.1910 -0.8302 -0.9069
   10MOL   H901 9019   0.847   1.875   2.251 -0.5518 -1.6960  0.5053
   10MOL   H902 9020   0.466   2.059   2.380  1.3158 -1.6742  0.6075
   11MOL     C1 9021   2.851   4.608   0.196 -0.0846  0.3606  0.1140
   11MOL     C2 9022   2.860   4.481   0.264  1.2875  0.2338 -0.2436
   11MOL     C3 9023   2.846   4.365   0.189  1.0298  0.2696  0.4148
   11MOL     C4 9024   2.839   4.371   0.051 -0.1555 -1.1314 -0.1349
   11MOL     C5 9025   2.837   4.496   8.352 -0.2137 -0.1174 -0.1290
   11MOL     C6 9026   2.843   4.617   0.059 -0.7734 -0.3454  0.4978
   11MOL     S7 9027   2.832   4.225   8.327  0.0046 -0.2163 -0.4947
   11MOL     O8 9028   2.888   4.246   8.191  0.2988  0.7865  0.4177
   11MOL     O9 9029   2.693   4.170   8.336 -0.4115  0.1004 -0.4229
   11MOL    C10 9030   2.935   4.108   0.046 -0.1754  0.2490  0.1097
   11MOL    C11 9031   2.865   4.007   0.122 -0.1806 -0.2496  1.1331
   11MOL    C12 9032   2.951   3.907   0.183  0.1510 -0.1550 -0.3839
   11MOL    C13 9033   3.092   3.922   0.175 -0.3067  0.1116 -0.0501
   11MOL    C14 9034   3.149   4.024   0.100 -0.2946 -0.2175  0.7174
   11MOL    C15 9035   3.074   4.119   0.031  0.2314  0.3794 -0.1588
   11MOL    O16 9036   3.174   3.837   0.242 -0.0618 -0.7071  0.1040
   11MOL    C17 9037   3.137   3.703   0.232 -0.0787  0.3904  0.5397
   11MOL    C18 9038   3.094   3.641   0.348  0.2931  0.2619 -0.4831
   11MOL    C19 9039   3.072   3.502   0.345  0.5403 -0.2900  0.0935
   11MOL    C20 9040   3.090   3.424   0.225  0.8443  0.3706  0.0002
   11MOL    C21 9041   3.115   3.498   0.106  0.1001 -0.0592 -0.1123
   11MOL    C22 9042   3.134   3.639   0.110  0.1153 -0.0217 -0.1749
   11MOL    C23 9043   3.080   3.273   0.222 -0.2673  0.0616 -0.5263
   11MOL    C24 9044   3.141   3.197   0.328  0.1221  0.1648  0.0579
   11MOL    C25 9045   3.126   3.057   0.325  0.0695 -0.0296 -0.3698
   11MOL    C26 9046   3.059   2.996   0.217  0.0781  0.0022  0.3898
   11MOL    C27 9047   2.998   3.072   0.114 -0.1131  0.0673 -0.0427
   11MOL    C28 9048   3.000   3.208   0.125  0.2129  0.1459 -0.0157
   11MOL    O29 9049   3.043   2.858   0.219  0.6748  0.5417  0.2386
   11MOL    H30 9050   2.882   4.468   0.369  0.4652 -1.6656 -0.2854
   11MOL    H31 9051   2.849   4.266   0.232 -1.1357 -0.7054 -1.5711
   11MOL    H32 9052   2.827   4.507   8.245 -0.4831  3.7526  0.2421
   11MOL    H33 9053   2.833   4.711   0.007  0.5105 -0.2051  0.4763
   11MOL    H34 9054   2.758   3.991   0.121 -0.1316 -0.8654 -2.6369
   11MOL    H35 9055   2.908   3.823   0.235  0.7810 -0.2335  0.0164
   11MOL    H36 9056   3.257   4.032   0.099 -0.2762 -0.4542  0.0173
   11MOL    H37 9057   3.116   4.186   8.323  0.2008 -0.3777 -0.8723
   11MOL    H38 9058   3.099   3.683   0.447  1.0966 -1.8096  0.3770
   11MOL    H39 9059   3.038   3.446   0.431 -2.1475  0.3773 -0.4753
   11MOL    H40 9060   3.125   3.449   0.010  1.8148 -1.9517  0.9903
   11MOL    H41 9061   3.160   3.686   0.016  0.1218 -2.2380 -1.3265
   11MOL    H42 9062   3.198   3.241   0.409 -0.1836 -2.6111  1.8541
   11MOL    H43 9063   3.175   3.003   0.405  2.5168 -0.0300 -1.8331
   11MOL    H44 9064   2.934   3.023   0.042  1.0845 -1.7217  0.0773
   11MOL    H45 9065   2.950   3.261   0.046  0.7454 -0.4818 -0.7872
   11MOL    H46 9066   2.857   4.693   0.262 -1.3556  0.7953 -0.3184
   11MOL    C47 9067   2.964   2.801   0.309  0.6067 -0.1710 -0.5537
   11MOL    C48 9068   2.833   2.771   0.262 -0.2150  0.0276 -0.7531
   11MOL    C49 9069   2.747   2.700   0.351  0.1140  0.8238 -0.4106
   11MOL    C50 9070   2.791   2.670   0.483  0.3398  0.4035 -0.3339
   11MOL    C51 9071   2.921   2.698   0.524  0.4608  0.1428  0.3932
   11MOL    C52 9072   3.011   2.759   0.440 -0.0917  0.3231 -0.2096
   11MOL    S53 9073   2.679   2.588   0.602 -0.1320 -0.0559 -0.0967
   11MOL    O54 9074   2.547   2.650   0.606  0.5386 -0.1158 -0.7500
   11MOL    O55 9075   2.754   2.588   0.731 -0.1020 -0.7372 -0.3428
   11MOL    C56 9076   2.646   2.408   0.544 -0.4535 -0.2974  0.9269
   11MOL    C57 9077   2.702   2.363   0.423  0.0052 -0.7019  0.3764
   11MOL    C58 9078   2.678   2.234   0.371  0.2071 -0.4598 -0.4429
   11MOL    C59 9079   2.585   2.148   0.441 -0.2542 -0.4052 -0.3550
   11MOL    C60 9080   2.528   2.191   0.564  0.1301 -0.1761  0.1782
   11MOL    C61 9081   2.558   2.324   0.613 -0.7826  0.3866  0.1846
   11MOL    O62 9082   2.549   2.021   0.407 -0.1387 -0.7407 -0.0479
   11MOL    C63 9083   2.524   1.995   0.279  0.6083  0.1476 -0.6241
   11MOL    C64 9084   2.409   2.045   0.218 -0.0696  0.1640  0.6536
   11MOL    C65 9085   2.373   2.000   0.092  0.2493  0.2355  0.1993
   11MOL    C66 9086   2.451   1.913   0.017 -0.2252  0.0346 -0.1579
   11MOL    C67 9087   2.571   1.871   0.076  0.5632 -0.1249  0.8242
   11MOL    C68 9088   2.606   1.909   0.209 -0.4816  0.6129  0.3396
   11MOL    C69 9089   2.412   1.871   8.244  0.0441 -0.2270  0.4648
   11MOL    C70 9090   2.506   1.883   8.140 -0.0130  0.3316 -0.5507
   11MOL    C71 9091   2.470   1.866   8.006 -0.9263 -0.5818 -0.3273
   11MOL    C72 9092   2.336   1.854   7.969 -0.1916  0.1653 -0.2213
   11MOL    C73 9093   2.240   1.840   8.071 -0.5619 -0.1616  0.7514
   11MOL    C74 9094   2.281   1.848   8.208 -0.3756  0.3565 -0.4566
   11MOL    O75 9095   2.296   1.854   7.836 -0.0940 -0.1136  0.5223
   11MOL    H76 9096   2.791   2.784   0.163  0.6333 -1.1759 -1.2791
   11MOL    H77 9097   2.646   2.673   0.322  0.3405 -0.6307  0.1372
   11MOL    H78 9098   2.948   2.671   0.625  0.3965 -1.5361 -0.0311
   11MOL    H79 9099   3.110   2.788   0.471  0.1020 -0.6142  0.0648
   11MOL    H80 9100   2.766   2.425   0.362 -2.1113 -0.2820 -1.4744
   11MOL    H81 9101   2.732   2.203   0.282  2.1098 -0.7013  0.7689
   11MOL    H82 9102   2.453   2.134   0.617  0.0401 -0.1735  0.0537
   11MOL    H83 9103   2.510   2.357   0.704  0.7378 -0.0464  1.1720
   11MOL    H84 9104   2.352   2.118   0.274  1.4565  1.4967  0.5136
   11MOL    H85 9105   2.278   2.038   0.059  0.5073  2.5550  1.9908
   11MOL    H86 9106   2.640   1.798   0.034  0.6257  0.1181  0.4998
   11MOL    H87 9107   2.701   1.870   0.245  0.3328  0.5412 -1.8012
   11MOL    H88 9108   2.609   1.902   8.165  0.0996  0.6162 -1.2208
   11MOL    H89 9109   2.543   1.875   7.927 -0.2688 -0.9359  0.2325
   11MOL    H90 9110   2.136   1.830   8.042 -0.7806 -0.1953  1.5125
   11MOL    H91 9111   2.212   1.844   8.291 -0.4910 -0.2577 -0.5789
   11MOL    C92 9112   2.270   1.736   7.773  0.6479 -0.3424  0.1385
   11MOL    C93 9113   2.368   1.643   7.740  0.8173 -0.5591 -0.5930
   11MOL    C94 9114   2.341   1.508   7.693  1.1595  0.0764 -0.0400
   11MOL    C95 9115   2.201   1.469   7.686 -0.3036 -0.0057  0.1609
   11MOL    C96 9116   2.097   1.568   7.709  0.6351 -0.0958 -0.2114
   11MOL    C97 9117   2.135   1.696   7.756 -0.0149 -0.3333  0.7930
   11MOL    S98 9118   2.161   1.306   7.646  0.4493  0.2781 -0.0926
   11MOL    O99 9119   2.237   1.278   7.521  0.3291 -0.0397 -0.2313
   11MOL   O100 9120   2.013   1.284   7.644  0.5813 -0.2666 -0.0656
   11MOL   C101 9121   2.226   1.206   7.783 -1.6317 -0.4220 -0.1446
   11MOL   C102 9122   2.203   1.245   7.917 -0.1679  0.2152 -0.5230
   11MOL   C103 9123   2.262   1.170   8.023  0.3545  0.3799  0.0809
   11MOL   C104 9124   2.336   1.054   7.996 -0.4192  0.6627 -0.0122
   11MOL   C105 9125   2.364   1.023   7.866 -0.4296 -0.0389  1.0092
   11MOL   C106 9126   2.313   1.098   7.761  0.3526 -0.0248 -0.2757
   11MOL   O107 9127   2.398   0.987   8.096  0.3442  0.4524 -0.3485
   11MOL   C108 9128   2.332   0.873   8.132 -0.8318 -0.0587 -0.0860
   11MOL   C109 9129   2.373   0.752   8.066 -0.1512 -0.1465  0.0452
   11MOL   C110 9130   2.318   0.625   8.103  0.3842  0.3336  0.6401
   11MOL   C111 9131   2.223   0.620   8.212  0.4413 -0.9947  0.0119
   11MOL   C112 9132   2.186   0.747   8.272  0.5060  0.1945 -0.6820
   11MOL   C113 9133   2.242   0.871   8.236 -0.3700  0.9933  0.4028
   11MOL   C114 9134   2.190   0.485   8.261  0.0784 -0.6278 -0.0235
   11MOL   C115 9135   2.209   0.447   0.031  0.6980  0.3365 -0.0800
   11MOL   C116 9136   2.178   0.315   0.067  0.7954 -0.2234 -0.1809
   11MOL   C117 9137   2.115   0.220   8.348 -0.0965  0.0441 -0.0669
   11MOL   C118 9138   2.091   0.259   8.221 -0.0868 -0.4630  0.4056
   11MOL   C119 9139   2.127   0.394   8.180 -0.4058  0.1848 -0.6420
   11MOL   O120 9140   2.077   0.091   0.025  0.0063  0.3594  0.4121
   11MOL   H121 9141   2.470   1.673   7.758  0.1466  3.8762 -3.2833
   11MOL   H122 9142   2.411   1.426   7.684 -2.6925 -3.4366  0.4854
   11MOL   H123 9143   1.996   1.545   7.678  0.9094  0.0828 -1.2844
   11MOL   H124 9144   2.066   1.766   7.802  1.7625  1.4553  0.8185
   11MOL   H125 9145   2.143   1.333   7.937 -1.0314 -0.3366 -0.6440
   11MOL   H126 9146   2.254   1.217   8.120 -0.9739 -2.4797  1.4103
   11MOL   H127 9147   2.435   0.944   7.844  0.8655  1.8637 -1.9577
   11MOL   H128 9148   2.331   1.077   7.656 -1.1512 -3.2438  0.0627
   11MOL   H129 9149   2.448   0.762   7.988 -0.0614  1.7505  0.3416
   11MOL   H130 9150   2.360   0.540   8.051  0.9890  0.0175  1.6273
   11MOL   H131 9151   2.121   0.744   8.359 -1.1782  1.1457 -1.8786
   11MOL   H132 9152   2.206   0.961   8.285  2.6267  1.7737  1.2684
   11MOL   H133 9153   2.233   0.511   0.114  1.0972  1.0725 -0.7574
   11MOL   H134 9154   2.187   0.284   0.171 -1.8050  2.7732  1.0197
   11MOL   H135 9155   2.056   0.197   8.139 -1.6336 -1.4995  1.8231
   11MOL   H136 9156   2.111   0.416   8.076  1.2179  3.6285 -0.2357
   11MOL   C137 9157   2.075   0.060   0.158  0.2754 -0.5041  0.0017
   11MOL   C138 9158   2.175   8.341   0.213  0.0703  0.2986  0.2167
   11MOL   C139 9159   2.187   8.321   0.346  0.5659 -0.3031 -0.3580
   11MOL   C140 9160   2.087   0.013   0.431  0.0862 -0.7354  0.9813
   11MOL   C141 9161   1.978   0.098   0.377  1.1086 -0.1618 -0.4452
   11MOL   C142 9162   1.977   0.121   0.235 -0.7686 -0.3801 -0.0599
   11MOL   S143 9163   2.097   8.346   0.609 -0.2408  0.1823  0.4239
   11MOL   O144 9164   2.222   8.276   0.646  0.1857 -0.2557  0.2748
   11MOL   O145 9165   1.965   8.298   0.655 -0.3320  0.2070  0.5402
   11MOL   C146 9166   2.114   0.141   0.686 -0.2425 -0.2670 -0.3522
   11MOL   C147 9167   2.006   0.207   0.747  0.0785 -0.7398  0.0773
   11MOL   C148 9168   2.028   0.336   0.799 -0.0980 -0.6846  0.0571
   11MOL   C149 9169   2.154   0.393   0.802  0.2685  0.4308  0.2844
   11MOL   C150 9170   2.262   0.328   0.747 -0.8260 -0.2838  0.3645
   11MOL   C151 9171   2.242   0.202   0.685 -0.7372  0.0932 -0.1133
   11MOL   O152 9172   2.165   0.522   0.834 -0.0965 -0.1463 -0.4386
   11MOL   C153 9173   2.193   0.601   0.723 -0.4830 -0.2094  0.1572
   11MOL   C154 9174   2.314   0.673   0.729 -0.0846  0.0993 -0.3029
   11MOL   C155 9175   2.365   0.751   0.621 -0.4604  0.1720  0.5433
   11MOL   C156 9176   2.292   0.743   0.500  0.2830  0.2726  0.1731
   11MOL   C157 9177   2.163   0.679   0.497  0.0196 -0.2291  0.7995
   11MOL   C158 9178   2.115   0.611   0.606 -0.1589 -0.0116 -0.2399
   11MOL   C159 9179   2.357   0.776   0.377  0.0210 -0.3390 -0.4920
   11MOL   C160 9180   2.373   0.666   0.287 -0.6892  0.1518  0.3115
   11MOL   C161 9181   2.454   0.686   0.174 -0.3775 -0.7254 -0.9924
   11MOL   C162 9182   2.494   0.814   0.137  0.0931 -0.4422 -0.6593
   11MOL   C163 9183   2.469   0.922   0.225  0.4580 -0.3450  0.3770
   11MOL   C164 9184   2.397   0.906   0.346  0.0120  0.6276 -0.2845
   11MOL   O165 9185   2.571   0.840   0.026  0.3897 -0.6955 -0.2460
   11MOL   H166 9186   2.242   8.289   0.146 -1.1034  0.6894 -1.2877
   11MOL   H167 9187   2.270   8.270   0.392  0.6155 -0.0320 -0.1427
   11MOL   H168 9188   1.905   0.140   0.445 -1.0815 -0.2048 -2.7334
   11MOL   H169 9189   1.904   0.190   0.197  0.7889  1.5933  0.4468
   11MOL   H170 9190   1.907   0.164   0.741  0.3021 -0.9385 -2.4345
   11MOL   H171 9191   1.939   0.392   0.823  0.2175 -0.0858 -0.1631
   11MOL   H172 9192   2.360   0.373   0.744 -0.5784 -0.8844 -1.5656
   11MOL   H173 9193   2.319   0.159   0.624 -1.9367  2.5631 -3.5212
   11MOL   H174 9194   2.371   0.648   0.818 -2.0377 -0.2920  0.8672
   11MOL   H175 9195   2.464   0.795   0.611 -1.3022  2.0298  0.0563
   11MOL   H176 9196   2.095   0.674   0.413  1.8623  0.0871 -0.7696
   11MOL   H177 9197   2.017   0.567   0.604 -0.5884  0.9285  0.0149
   11MOL   H178 9198   2.336   0.569   0.316 -3.0094  0.1901 -2.2652
   11MOL   H179 9199   2.490   0.598   0.124  1.7384 -0.3017 -0.2711
   11MOL   H180 9200   2.506   1.019   0.194  0.8650 -0.2267  1.2036
   11MOL   H181 9201   2.368   0.989   0.409 -2.4082 -1.3019  1.2107
   11MOL   C182 9202   2.673   0.758   0.002 -0.0639 -0.1148 -0.0293
   11MOL   C183 9203   2.787   0.754   0.079  0.0882  0.6773  0.2027
   11MOL   C184 9204   2.889   0.660   0.058  0.3272  0.6435  0.2484
   11MOL   C185 9205   2.873   0.562   8.322 -0.3188  0.6556  0.1961
   11MOL   C186 9206   2.765   0.570   8.234  0.3492  0.0862 -0.1095
   11MOL   C187 9207   2.664   0.665   8.260 -0.3523  0.2016 -0.0740
   11MOL   S188 9208   3.008   0.426   8.311 -0.3730 -0.0193 -0.1641
   11MOL   O189 9209   2.950   0.311   0.018  0.1402 -0.0974  0.1985
   11MOL   O190 9210   3.140   0.480   8.347 -0.3157 -0.4076  0.5502
   11MOL   C191 9211   3.016   0.370   8.141  0.6049 -0.2280  0.0670
   11MOL   C192 9212   3.121   0.417   8.054 -0.7222  0.1227 -0.2292
   11MOL   C193 9213   3.109   0.391   7.917  0.4752  0.3686  0.1760
   11MOL   C194 9214   3.009   0.303   7.867 -0.0578 -0.2734  0.1708
   11MOL   C195 9215   2.918   0.238   7.950 -0.1472  0.0712  0.0688
   11MOL   C196 9216   2.915   0.282   8.089 -0.2297  0.5666  0.0755
   11MOL   O197 9217   3.001   0.283   7.729  0.8600 -0.5235 -0.6797
   11MOL   C198 9218   2.876   0.281   7.671 -0.2582  0.3976  0.1564
   11MOL   C199 9219   2.789   0.391   7.687  0.8586 -0.8690 -0.6309
   11MOL   C200 9220   2.659   0.376   7.643 -0.3068 -0.3754  0.3476
   11MOL   C201 9221   2.611   0.262   7.576  0.1687  0.1983  0.9635
   11MOL   C202 9222   2.698   0.154   7.553 -0.7083  0.2458 -0.7675
   11MOL   C203 9223   2.829   0.165   7.605 -0.0767  0.1713  0.1045
   11MOL   C204 9224   2.469   0.257   7.525 -0.2481  0.8333  0.4450
   11MOL   C205 9225   2.442   0.215   7.392  0.3749 -0.1702 -0.4212
   11MOL   C206 9226   2.310   0.186   7.350 -0.6379  0.2021  0.0110
   11MOL   C207 9227   2.205   0.215   7.437 -0.4795 -0.4923  0.1003
   11MOL   C208 9228   2.233   0.265   7.568 -0.1663 -0.3411  0.7872
   11MOL   C209 9229   2.365   0.290   7.608 -0.2471  0.2221  0.2462
   11MOL   O210 9230   2.074   0.189   7.391  0.0109 -0.5659 -0.2765
   11MOL   H211 9231   2.798   0.823   0.161  1.1160  0.7898 -0.0218
   11MOL   H212 9232   2.976   0.649   0.120  0.7586 -2.8446 -0.8411
   11MOL   H213 9233   2.746   0.506   8.149 -1.5561 -0.8882  1.0122
   11MOL   H214 9234   2.577   0.669   8.195  0.6503 -0.0137 -1.4419
   11MOL   H215 9235   3.198   0.481   8.095 -1.5364  1.5327 -0.8535
   11MOL   H216 9236   3.173   0.447   7.851  1.2338 -0.2551  0.3694
   11MOL   H217 9237   2.844   0.172   7.908 -1.0511  0.5100  0.9378
   11MOL   H218 9238   2.834   0.244   8.148 -0.4988  1.4414  0.2653
   11MOL   H219 9239   2.815   0.486   7.732  0.5199 -2.3396  2.7799
   11MOL   H220 9240   2.585   0.452   7.661  0.9166  0.6073  1.2943
   11MOL   H221 9241   2.683   0.064   7.496  2.2486 -1.5433  1.1641
   11MOL   H222 9242   2.893   0.079   7.590  0.1383  0.1064  1.3223
   11MOL   H223 9243   2.528   0.196   7.330  1.3845 -0.2021  0.9572
   11MOL   H224 9244   2.304   0.159   7.246 -2.2641 -1.4925  0.5316
   11MOL   H225 9245   2.153   0.295   7.634 -0.7109 -0.8010  0.3413
   11MOL   H226 9246   2.387   0.325   7.708 -0.0843  1.1570 -0.1102
   11MOL   C227 9247   2.005   0.104   7.476 -0.3759  0.4693 -0.7447
   11MOL   C228 9248   1.889   0.154   7.534 -0.1092  0.2777 -0.0459
   11MOL   C229 9249   1.810   0.072   7.618  0.0972 -0.8429 -0.9134
   11MOL   C230 9250   1.856   8.309   7.644  0.4509 -0.0921 -0.0953
   11MOL   C231 9251   1.968   8.260   7.594  0.2495  0.5342  0.4227
   11MOL   C232 9252   2.044   8.337   7.509  0.2671  0.3553 -0.3678
   11MOL   S233 9253   1.765   8.213   7.777 -0.0069 -0.3142 -0.0230
   11MOL   O234 9254   1.761   8.080   7.715  0.2383  0.5261 -0.0052
   11MOL   O235 9255   1.645   8.293   7.802 -0.1451  0.0891  0.2122
   11MOL   C236 9256   1.869   8.207   7.912  0.9598  0.0637 -0.6098
   11MOL   C237 9257   1.841   8.268   8.034 -0.0958  0.0253 -0.0883
   11MOL   C238 9258   1.937   8.268   8.142  1.3543 -0.5172  0.1608
   11MOL   C239 9259   2.062   8.213   8.124  0.2531 -0.4989 -0.3873
   11MOL   C240 9260   2.091   8.144   8.005  0.2856  0.0903 -0.3841
   11MOL   C241 9261   1.993   8.137   7.904  0.4089  0.5101  0.0707
   11MOL   O242 9262   2.158   8.242   8.220  0.1647 -0.1506  0.3875
   11MOL   C243 9263   2.226   8.134   8.282  0.3500 -1.0137 -0.0983
   11MOL   C244 9264   2.169   8.075   0.030 -0.3821  0.0401 -0.2182
   11MOL   C245 9265   2.244   7.972   0.092  0.4196 -0.2899 -0.1765
   11MOL   C246 9266   2.364   7.927   0.045  0.5034  0.0165  0.4566
   11MOL   C247 9267   2.413   7.981   8.294  0.1403 -0.1200  0.0495
   11MOL   C248 9268   2.347   8.090   8.222 -0.5096  0.2034 -0.5076
   11MOL   C249 9269   2.437   7.826   0.119  0.4657  1.0359  0.5067
   11MOL   C250 9270   2.500   7.716   0.050  0.0010  0.2308 -0.0903
   11MOL   C251 9271   2.560   7.614   0.123  0.0968  0.6694  0.0660
   11MOL   C252 9272   2.562   7.604   0.263  0.1598  0.0687  0.0044
   11MOL   C253 9273   2.496   7.707   0.327  0.2874 -0.4175  0.7539
   11MOL   C254 9274   2.441   7.821   0.264  0.1400  0.5578  0.7695
   11MOL   O255 9275   2.613   7.496   0.330  0.3064 -1.0237  0.2627
   11MOL   H256 9276   1.861   0.252   7.498 -1.9093  0.4016  1.6377
   11MOL   H257 9277   1.713   0.107   7.651  0.3073 -1.9151  0.9231
   11MOL   H258 9278   2.008   8.161   7.607 -0.3251  0.3337  0.6673
   11MOL   H259 9279   2.133   8.295   7.465  0.1689  0.0233 -0.2557
   11MOL   H260 9280   1.745   8.312   8.052  0.5162  0.6335  1.7098
   11MOL   H261 9281   1.908   8.311   8.237  0.2782 -0.4210 -0.2063
   11MOL   H262 9282   2.189   8.103   7.988  0.5333  0.1045  0.9314
   11MOL   H263 9283   2.015   8.086   7.811 -0.3419 -1.4136  0.9390
   11MOL   H264 9284   2.087   8.127   0.076 -0.2140 -0.8400  1.0852
   11MOL   H265 9285   2.215   7.922   0.183 -0.4642 -1.6828 -1.1908
   11MOL   H266 9286   2.511   7.958   8.256 -1.3655 -2.6788 -2.4266
   11MOL   H267 9287   2.395   8.140   8.139 -1.4209 -0.9337 -1.7513
   11MOL   H268 9288   2.509   7.726   8.309 -0.1131 -1.5982 -0.2875
   11MOL   H269 9289   2.602   7.533   0.065 -0.9916  1.2710 -1.5892
   11MOL   H270 9290   2.483   7.712   0.434  0.7711 -0.3445  0.8106
   11MOL   H271 9291   2.385   7.893   0.320  3.1651  1.6044  2.5766
   11MOL   C272 9292   2.747   7.502   0.363 -0.2196  0.6160 -0.0638
   11MOL   C273 9293   2.788   7.593   0.462  0.5127 -0.5868  0.0513
   11MOL   C274 9294   2.924   7.605   0.498  0.4060  0.6037  0.6620
   11MOL   C275 9295   3.016   7.516   0.439  0.3569 -0.3224  0.5083
   11MOL   C276 9296   2.974   7.428   0.340 -0.1664  0.0859  0.7503
   11MOL   C277 9297   2.844   7.424   0.293  0.6158 -0.1064  0.4229
   11MOL   S278 9298   3.190   7.508   0.495 -0.3045 -0.0093 -0.2137
   11MOL   O279 9299   3.224   7.365   0.494  0.0300 -0.1754  0.2378
   11MOL   O280 9300   3.203   7.582   0.622  0.2903  0.3220 -0.0253
   11MOL   C281 9301   3.291   7.585   0.366  0.2626 -0.3697 -0.2023
   11MOL   C282 9302   3.427   7.561   0.367  0.2034 -0.0969 -0.6144
   11MOL   C283 9303   3.512   7.611   0.270 -0.2242  0.8924  0.4175
   11MOL   C284 9304   3.453   7.681   0.159 -0.1862  0.0188  0.1978
   11MOL   C285 9305   3.316   7.704   0.154  0.2690 -0.0179  0.3976
   11MOL   C286 9306   3.232   7.650   0.253  0.5222  0.0412  0.5904
   11MOL   O287 9307   3.540   7.725   0.060  0.1879 -0.0149  0.8696
   11MOL   C288 9308   3.559   7.644   8.317 -0.1415 -0.3175 -0.2347
   11MOL   C289 9309   3.511   7.511   8.307  0.3144  0.5353  0.1223
   11MOL   C290 9310   3.542   7.436   8.194 -0.2824  0.4299  0.0769
   11MOL   C291 9311   3.625   7.483   8.093  0.0329 -0.4393 -0.0116
   11MOL   C292 9312   3.669   7.617   8.095  0.1891  0.0911 -0.0834
   11MOL   C293 9313   3.634   7.697   8.209  0.3693  0.1195  0.0869
   11MOL   C294 9314   3.660   7.408   7.972  0.8006  0.0950 -0.4145
   11MOL   C295 9315   3.796   7.407   7.931  0.0541  0.0558 -0.5523
   11MOL   C296 9316   3.829   7.336   7.816 -1.3878 -0.6003  0.7007
   11MOL   C297 9317   3.733   7.267   7.740  0.0185  0.7307  0.1983
   11MOL   C298 9318   3.603   7.264   7.784 -0.6825 -0.8229  0.5988
   11MOL   C299 9319   3.561   7.339   7.900  0.0620  0.1697  0.2894
   11MOL   O300 9320   3.756   7.215   7.619 -0.2503  0.2163  0.3720
   11MOL   H301 9321   2.720   7.653   0.521 -1.2947 -2.0682 -0.4537
   11MOL   H302 9322   2.949   7.676   0.576 -0.0643  0.7144  0.7130
   11MOL   H303 9323   3.049   7.358   0.305 -1.2085 -0.7296  0.1370
   11MOL   H304 9324   2.817   7.353   0.216 -1.8350 -0.0283  1.1419
   11MOL   H305 9325   3.469   7.500   0.446  0.3856 -0.3476 -0.9034
   11MOL   H306 9326   3.617   7.588   0.263 -0.7746 -1.5499 -0.2498
   11MOL   H307 9327   3.280   7.757   0.068 -1.5995  0.2112  1.2878
   11MOL   H308 9328   3.126   7.675   0.253  0.5378  0.1162 -0.0017
   11MOL   H309 9329   3.455   7.471   0.025 -0.6406  1.6291  0.0284
   11MOL   H310 9330   3.505   7.335   8.180  1.5488 -0.2726  0.1723
   11MOL   H311 9331   3.716   7.662   8.009 -0.1744 -2.1086 -1.4698
   11MOL   H312 9332   3.649   7.804   8.203  0.6337 -0.0334 -2.4336
   11MOL   H313 9333   3.871   7.456   7.992 -1.7512  1.7217  0.3628
   11MOL   H314 9334   3.934   7.341   7.790 -0.7903  1.7855  3.2781
   11MOL   H315 9335   3.539   7.191   7.737 -1.0763 -0.5437  0.7074
   11MOL   H316 9336   3.461   7.330   7.939  0.5194  2.2324  1.9758
   11MOL   C317 9337   3.777   7.301   7.512 -0.2671 -0.0090 -0.1774
   11MOL   C318 9338   3.902   7.366   7.500 -0.4867 -0.3613  0.3503
   11MOL   C319 9339   3.927   7.452   7.395 -0.7148  0.0952  0.0401
   11MOL   C320 9340   3.830   7.464   7.297  0.8292  0.0727  0.4727
   11MOL   C321 9341   3.700   7.405   7.307 -0.2151  0.0250 -0.6921
   11MOL   C322 9342   3.676   7.323   7.418  0.2102  0.0233  0.8959
   11MOL   S323 9343   3.874   7.566   7.157 -0.0987 -0.7539  0.1759
   11MOL   O324 9344   4.015   7.537   7.114  0.1875  0.5385 -0.0993
   11MOL   O325 9345   3.857   7.710   7.193 -0.2800  0.3043  0.6743
   11MOL   C326 9346   3.768   7.529   7.019 -0.2643 -0.2559 -0.1596
   11MOL   C327 9347   3.825   7.449   6.917  0.8056  0.5410 -0.7371
   11MOL   C328 9348   3.748   7.410   6.804  0.9880  0.4153  0.0670
   11MOL   C329 9349   3.614   7.446   6.797  0.5087 -0.7997  0.3388
   11MOL   C330 9350   3.554   7.506   6.911 -0.0407 -0.4570  0.0243
   11MOL   C331 9351   3.632   7.560   7.017 -0.2678 -0.2557 -0.4281
   11MOL   O332 9352   3.546   7.406   6.682 -0.2393 -0.3533  0.2888
   11MOL   C333 9353   3.408   7.407   6.682 -0.5841 -0.2310 -0.6627
   11MOL   C334 9354   3.338   7.523   6.637 -0.9679  0.3023  0.4342
   11MOL   C335 9355   3.196   7.512   6.624 -0.2515  0.0123  0.0717
   11MOL   C336 9356   3.120   7.403   6.674  0.2137  0.2521  0.4496
   11MOL   C337 9357   3.199   7.294   6.722 -0.8658 -0.4372 -1.0197
   11MOL   C338 9358   3.342   7.293   6.728 -0.1734 -0.1164  0.4638
   11MOL   C339 9359   2.971   7.397   6.661 -0.8175 -0.2891 -0.1269
   11MOL   C340 9360   2.905   7.276   6.636  0.1724  0.1524 -0.1655
   11MOL   C341 9361   2.762   7.271   6.622  0.4693 -0.7273  0.6904
   11MOL   C342 9362   2.684   7.387   6.632 -0.0474 -0.5997  0.0982
   11MOL   C343 9363   2.752   7.508   6.643 -0.4376 -0.9186 -0.3287
   11MOL   C344 9364   2.892   7.516   6.664  0.2235  0.4952  0.2671
   11MOL   O345 9365   2.551   7.374   6.630 -0.5399 -0.2625 -0.2964
   11MOL   H346 9366   3.972   7.340   7.578  0.7587  0.8255 -0.3336
   11MOL   H347 9367   4.023   7.497   7.372 -1.3675  2.4727  1.8004
   11MOL   H348 9368   3.615   7.423   7.243 -0.5114 -1.1683 -0.6350
   11MOL   H349 9369   3.584   7.269   7.432 -0.8135  1.8398  1.3632
   11MOL   H350 9370   3.931   7.429   6.919  0.4223 -1.5560 -0.4687
   11MOL   H351 9371   3.798   7.366   6.718  0.9975 -0.4298  0.5001
   11MOL   H352 9372   3.449   7.531   6.920  0.1853  0.1903  1.0244
   11MOL   H353 9373   3.580   7.614   7.095 -0.5663  1.1566 -1.5846
   11MOL   H354 9374   3.383   7.618   6.614 -0.8620  0.0771 -0.2949
   11MOL   H355 9375   3.151   7.596   6.573 -3.1867 -1.3497  0.3115
   11MOL   H356 9376   3.144   7.208   6.755 -2.2351 -0.0651 -2.2381
   11MOL   H357 9377   3.396   7.208   6.768 -0.5573  0.5180  2.3399
   11MOL   H358 9378   2.972   7.192   6.628 -0.4811 -0.3655 -0.2533
   11MOL   H359 9379   2.715   7.174   6.610 -0.7388  0.0731 -1.2383
   11MOL   H360 9380   2.700   7.602   6.657 -1.3185 -1.8279  2.8494
   11MOL   H361 9381   2.949   7.606   6.680  0.9720  0.2779 -1.1890
   11MOL   C362 9382   2.475   7.445   6.718  0.0829 -0.6226  0.3373
   11MOL   C363 9383   2.468   7.406   6.857  0.2110 -0.2548  0.5196
   11MOL   C364 9384   2.392   7.482   6.948 -0.0176  0.0043 -0.2907
   11MOL   C365 9385   2.326   7.596   6.901  0.0642 -0.0209  0.0512
   11MOL   C366 9386   2.340   7.643   6.766 -0.1761  0.4855  0.7580
   11MOL   C367 9387   2.415   7.568   6.677  0.0989 -0.4104  0.4148
   11MOL   S368 9388   2.243   7.706   7.016 -0.2923 -0.4606  0.3095
   11MOL   O369 9389   2.127   7.618   7.058  0.5555  0.1611  0.3030
   11MOL   O370 9390   2.209   7.835   6.951  0.4240 -0.3350 -0.5561
   11MOL   C371 9391   2.361   7.729   7.159  0.1866  0.0906 -0.3277
   11MOL   C372 9392   2.482   7.797   7.138 -0.3828 -0.2187 -0.2369
   11MOL   C373 9393   2.563   7.835   7.244 -0.0993  0.1814  0.6957
   11MOL   C374 9394   2.524   7.786   7.365  0.0073  0.1233  0.6791
   11MOL   C375 9395   2.399   7.725   7.396  0.2069 -1.2326  0.2780
   11MOL   C376 9396   2.319   7.694   7.287 -0.2486 -0.3987  0.1150
   11MOL   O377 9397   2.603   7.815   7.476  0.2285 -0.5482  0.5689
   11MOL   C378 9398   2.572   7.923   7.552 -0.4649  0.3552  0.3412
   11MOL   C379 9399   2.668   8.032   7.564 -0.9254 -1.1665  0.6632
   11MOL   C380 9400   2.642   8.153   7.629  0.2341  0.3971 -0.5308
   11MOL   C381 9401   2.523   8.160   7.699  0.4587  0.2297 -0.6719
   11MOL   C382 9402   2.433   8.059   7.696 -0.6607  0.0248 -0.0603
   11MOL   C383 9403   2.448   7.943   7.616 -0.7934 -1.3712 -0.5747
   11MOL   C384 9404   2.492   8.278   7.783 -0.4638 -0.9534  0.2318
   11MOL   C385 9405   2.362   8.333   7.804  0.0882  0.0184  0.4353
   11MOL   C386 9406   2.343   0.074   7.895 -0.7571  0.0789 -0.9087
   11MOL   C387 9407   2.447   0.126   7.967 -0.0625  0.0241  0.5084
   11MOL   C388 9408   2.575   0.072   7.948  0.3508  0.2502 -0.2607
   11MOL   C389 9409   2.602   8.337   7.855 -0.0671 -0.9634  0.1971
   11MOL   O390 9410   2.421   0.221   8.060  0.6672 -0.1548  0.3700
   11MOL   H391 9411   2.521   7.317   6.887 -1.1588 -0.7221  1.6211
   11MOL   H392 9412   2.395   7.455   7.052  0.5565 -0.9850 -0.5506
   11MOL   H393 9413   2.285   7.732   6.743 -0.3474  0.0565 -0.5125
   11MOL   H394 9414   2.420   7.599   6.574 -0.1068 -0.2363  0.4580
   11MOL   H395 9415   2.513   7.819   7.037  2.1424 -0.9054  0.3415
   11MOL   H396 9416   2.657   7.887   7.229  0.9025 -1.5277  0.8357
   11MOL   H397 9417   2.366   7.696   7.494  2.5787 -0.0699  1.4670
   11MOL   H398 9418   2.226   7.639   7.296 -2.1380  2.1482 -2.9849
   11MOL   H399 9419   2.757   8.008   7.507 -0.8195  0.9885 -0.1265
   11MOL   H400 9420   2.717   8.231   7.633 -0.4796  1.0181  2.8799
   11MOL   H401 9421   2.351   8.065   7.766 -0.8071 -2.4561 -0.0037
   11MOL   H402 9422   2.364   7.875   7.610 -1.6555 -0.3056 -0.5436
   11MOL   H403 9423   2.278   8.296   7.747 -0.8209  2.4935  0.1379
   11MOL   H404 9424   2.246   0.119   7.904  0.5511  2.5864  1.5062
   11MOL   H405 9425   2.656   0.117   8.004 -0.6223  0.4252  1.0238
   11MOL   H406 9426   2.704   8.305   7.845  0.3729  0.0953  1.2373
   11MOL   C407 9427   2.453   0.198   8.190  0.1853 -0.3295 -0.7501
   11MOL   C408 9428   2.446   0.070   8.250 -0.8538 -0.1447  0.0794
   11MOL   C409 9429   2.496   0.055   0.015 -0.3406  0.2520  0.0957
   11MOL   C410 9430   2.541   0.169   0.088  0.0329  0.4722 -0.1501
   11MOL   C411 9431   2.558   0.294   0.027  0.4077 -1.0780  0.4217
   11MOL   C412 9432   2.508   0.305   8.261 -0.3012  0.3671 -0.0128
   11MOL   S413 9433   2.558   0.144   0.269 -0.3316  0.3229 -0.3894
   11MOL   O414 9434   2.664   0.047   0.286 -0.5157 -0.2700  0.2779
   11MOL   O415 9435   2.429   0.109   0.329  0.4140 -0.7575 -0.5595
   11MOL   C416 9436   2.610   0.300   0.339  0.0498 -0.3990 -0.3534
   11MOL   C417 9437   2.535   0.348   0.446 -0.7136  0.1475  0.2120
   11MOL   C418 9438   2.567   0.474   0.500 -0.1971 -0.2346  0.1835
   11MOL   C419 9439   2.684   0.540   0.458 -0.8638 -0.1015  0.2535
   11MOL   C420 9440   2.761   0.492   0.353  0.4227 -0.0089 -0.0181
   11MOL   C421 9441   2.727   0.366   0.293 -0.4175 -0.7337  0.7497
   11MOL   O422 9442   2.712   0.654   0.522  0.2977 -0.3074 -0.3761
   11MOL   C423 9443   2.773   0.651   0.644 -1.1771  0.1122  0.0938
   11MOL   C424 9444   2.909   0.632   0.652 -0.2013  0.3944 -0.7574
   11MOL   C425 9445   2.978   0.622   0.780 -0.4763 -0.7832 -0.0257
   11MOL   C426 9446   2.905   0.648   0.897  0.0243 -0.5787  0.4613
   11MOL   C427 9447   2.774   0.697   0.889  0.3795  0.3478 -0.5949
   11MOL   C428 9448   2.708   0.701   0.758 -0.0260 -0.2966  0.7119
   11MOL   C429 9449   2.977   0.641   1.032  0.4314 -0.3890 -0.1373
   11MOL   C430 9450   2.931   0.718   1.135 -0.0239  0.5688  0.2633
   11MOL   C431 9451   2.977   0.699   1.266  0.4993 -1.1016  0.0766
   11MOL   C432 9452   3.089   0.623   1.296  0.6170  0.0686 -0.6005
   11MOL   C433 9453   3.141   0.545   1.192  0.1869  0.0738  0.5177
   11MOL   C434 9454   3.089   0.554   1.060 -0.3103  0.2455 -0.2953
   11MOL   O435 9455   3.151   0.635   1.420  0.2418  0.1908 -0.4330
   11MOL   H436 9456   2.401   8.360   8.189 -0.1854 -0.5328  0.0636
   11MOL   H437 9457   2.490   8.326   0.067  0.1907 -0.9953 -2.0632
   11MOL   H438 9458   2.594   0.379   0.083 -1.2571 -0.1656  0.1358
   11MOL   H439 9459   2.508   0.400   8.209  1.8455  1.3960  1.7701
   11MOL   H440 9460   2.440   0.304   0.471 -1.9009  2.3432 -0.3356
   11MOL   H441 9461   2.506   0.513   0.581  0.1400 -0.2554  0.4475
   11MOL   H442 9462   2.844   0.547   0.311  1.2615 -0.9801  0.3718
   11MOL   H443 9463   2.783   0.324   0.211 -2.5868 -1.7613 -0.2333
   11MOL   H444 9464   2.968   0.611   0.564 -0.5022 -0.1023 -0.8451
   11MOL   H445 9465   3.081   0.589   0.782  0.1985  1.3009  2.3424
   11MOL   H446 9466   2.717   0.722   0.978  0.9213  1.1835 -0.4788
   11MOL   H447 9467   2.602   0.720   0.755  0.3515  2.0859  0.8701
   11MOL   H448 9468   2.840   0.776   1.130 -0.3432  0.0783  0.3114
   11MOL   H449 9469   2.924   0.740   1.351  1.3890 -2.1531  1.1605
   11MOL   H450 9470   3.235   0.492   1.188 -0.4669 -1.2160  1.8296
   11MOL   H451 9471   3.134   0.498   0.979  0.1386 -0.1819  0.2494
   11MOL   C452 9472   3.200   0.758   1.446  0.3417 -0.6487  0.5326
   11MOL   C453 9473   3.322   0.802   1.390 -0.1626 -0.8220  0.0932
   11MOL   C454 9474   3.375   0.928   1.415  0.0994 -0.4772  0.2438
   11MOL   C455 9475   3.302   1.023   1.490 -0.3456 -0.4980  0.8418
   11MOL   C456 9476   3.184   0.979   1.552 -0.1118  0.5431  0.1783
   11MOL   C457 9477   3.133   0.846   1.533 -0.3831 -0.2565 -0.2729
   11MOL   S458 9478   3.362   1.186   1.510  0.7419  0.3026 -0.1378
   11MOL   O459 9479   3.328   1.241   1.643  0.0941 -0.4617  0.1984
   11MOL   O460 9480   3.312   1.256   1.394 -0.3423 -0.0168  0.7066
   11MOL   C461 9481   3.543   1.164   1.501  0.6932  0.2339 -0.5211
   11MOL   C462 9482   3.607   1.120   1.617 -0.3170  0.4880  0.3522
   11MOL   C463 9483   3.745   1.126   1.617 -0.0625  0.8546 -0.6616
   11MOL   C464 9484   3.818   1.151   1.500 -0.1936 -0.0430  0.4320
   11MOL   C465 9485   3.748   1.193   1.382  0.8320  0.1647  0.2281
   11MOL   C466 9486   3.609   1.202   1.384 -0.5443  0.2768 -0.0120
   11MOL   O467 9487   3.958   1.166   1.510  0.3455  0.1461  0.1494
   11MOL   C468 9488   4.040   1.089   1.579  0.4866  0.3165 -0.1214
   11MOL   C469 9489   4.114   0.994   1.511  0.5118 -0.5985  0.4929
   11MOL   C470 9490   4.194   0.910   1.586 -0.6190 -0.5184 -0.1464
   11MOL   C471 9491   4.221   0.940   1.723  0.9052  0.8808 -0.0140
   11MOL   C472 9492   4.154   1.050   1.786  0.8215  0.3856  0.0243
   11MOL   C473 9493   4.061   1.124   1.713  0.4676  0.2161 -0.0446
   11MOL   C474 9494   4.336   0.876   1.793  0.0040  0.2146  0.0680
   11MOL   C475 9495   4.421   0.974   1.845  0.3539  0.7826 -0.0154
   11MOL   C476 9496   4.546   0.946   1.905 -0.0860  0.0255  0.2383
   11MOL   C477 9497   4.584   0.806   1.912  0.0800 -0.5721 -0.0045
   11MOL   C478 9498   4.502   0.709   1.845  0.5559 -0.3728  0.6490
   11MOL   C479 9499   4.380   0.743   1.788  0.4872 -0.4089  0.4869
   11MOL   O480 9500   4.689   0.751   1.989 -0.1878  0.1447 -0.0861
   11MOL   H481 9501   3.375   0.747   1.314 -0.1542 -0.4838 -0.1469
   11MOL   H482 9502   3.461   0.958   1.357 -0.0105  0.5721  0.6038
   11MOL   H483 9503   3.130   1.054   1.609  0.9459  0.9981  0.5992
   11MOL   H484 9504   3.037   0.819   1.575  0.1395  1.0440  1.8760
   11MOL   H485 9505   3.563   1.095   1.712  0.4930 -1.6187  0.2205
   11MOL   H486 9506   3.798   1.104   1.708 -0.6956  1.2091 -0.2031
   11MOL   H487 9507   3.800   1.229   1.294  1.8414 -0.8232  0.4021
   11MOL   H488 9508   3.559   1.235   1.294 -1.8691 -1.2239  0.1564
   11MOL   H489 9509   4.097   0.980   1.406  1.7385  0.6895  0.1072
   11MOL   H490 9510   4.256   0.836   1.538  1.6797  1.3338 -0.1309
   11MOL   H491 9511   4.172   1.065   1.891 -3.7124  0.2901  0.8953
   11MOL   H492 9512   4.006   1.204   1.760  1.4960  0.9380 -0.0398
   11MOL   H493 9513   4.404   1.081   1.845  0.7645  0.8930  3.1465
   11MOL   H494 9514   4.608   1.017   1.959  1.5756  0.0392 -1.6419
   11MOL   H495 9515   4.525   0.603   1.845  1.0833 -0.2589 -0.0834
   11MOL   H496 9516   4.329   0.669   1.729 -1.3694  0.4801  0.9584
   11MOL   C497 9517   4.747   0.829   2.081 -0.2707  0.0557  0.4370
   11MOL   C498 9518   4.853   0.912   2.033  0.0649  0.5135 -0.6996
   11MOL   C499 9519   4.918   1.002   2.122  0.4056  0.6769  0.0095
   11MOL   C500 9520   4.877   0.994   2.258 -0.0536  0.0496  0.4646
   11MOL   C501 9521   4.783   0.899   2.306 -0.3927  0.1893  0.4150
   11MOL   C502 9522   4.714   0.814   2.218 -0.0530 -0.7324  0.0770
   11MOL   S503 9523   4.971   1.103   2.365  0.6375  0.0004  0.4252
   11MOL   O504 9524   4.924   1.081   2.501  0.6541 -0.4287 -0.2228
   11MOL   O505 9525   4.962   1.240   2.310  0.2593  0.5961 -0.1627
   11MOL   C506 9526   5.142   1.047   2.355  1.0391 -0.3819  0.3164
   11MOL   C507 9527   5.171   0.917   2.402  0.6498 -0.2027 -0.3424
   11MOL   C508 9528   5.305   0.876   2.406 -0.5802  0.7976 -0.4757
   11MOL   C509 9529   5.408   0.959   2.364  0.3077 -0.3789  0.2121
   11MOL   C510 9530   5.374   1.088   2.318 -0.9353  0.1668 -0.3234
   11MOL   C511 9531   5.243   1.135   2.314 -0.8088 -0.6818 -0.3451
   11MOL   O512 9532   5.533   0.910   2.359 -0.0714 -0.0295 -0.6425
   11MOL   C513 9533   5.635   0.970   2.290  0.0188 -0.2033 -0.3792
   11MOL   C514 9534   5.629   0.982   2.149 -0.1600  0.5008 -0.2580
   11MOL   C515 9535   5.722   1.056   2.081 -0.2324 -0.1805  1.0344
   11MOL   C516 9536   5.827   1.122   2.151  0.3652  0.1256  0.3328
   11MOL   C517 9537   5.838   1.104   2.289 -0.8127  0.3911  0.5635
   11MOL   C518 9538   5.743   1.027   2.362  0.5435 -0.4912 -0.5473
   11MOL   C519 9539   5.919   1.218   2.081 -0.1642  0.6942 -0.8976
   11MOL   C520 9540   6.061   1.215   2.106 -0.4418 -0.7454  0.1044
   11MOL   C521 9541   6.145   1.310   2.046 -0.5250  0.4960  0.0796
   11MOL   C522 9542   6.092   1.413   1.963 -1.2083 -0.6795 -0.1146
   11MOL   C523 9543   5.951   1.412   1.938  0.2751 -0.3755 -0.6358
   11MOL   C524 9544   5.867   1.317   1.994  0.1905  0.0800  0.2826
   11MOL   O525 9545   6.179   1.509   1.908 -0.4735  0.0871 -0.2237
   11MOL   H526 9546   4.884   0.900   1.931 -1.6435  0.2922 -1.1950
   11MOL   H527 9547   4.982   1.084   2.093 -1.2462  1.8523 -0.3791
   11MOL   H528 9548   4.775   0.885   2.412 -2.3385 -2.3308 -0.0252
   11MOL   H529 9549   4.632   0.750   2.246  0.4516 -1.3093  0.2515
   11MOL   H530 9550   5.098   0.849   2.444  0.0827  0.1573 -0.7261
   11MOL   H531 9551   5.335   0.780   2.447 -1.6568  0.4899 -0.3873
   11MOL   H532 9552   5.455   1.153   2.288  0.3303 -1.3868 -0.3884
   11MOL   H533 9553   5.214   1.236   2.285 -0.8898 -0.4191  0.6438
   11MOL   H534 9554   5.553   0.928   2.094  0.6500 -0.4840 -0.4202
   11MOL   H535 9555   5.721   1.053   1.973  1.2750  1.1197  0.9725
   11MOL   H536 9556   5.918   1.160   2.335 -0.1576  1.7078 -2.0971
   11MOL   H537 9557   5.741   1.011   2.469  1.1348  0.4663 -0.3927
   11MOL   H538 9558   6.094   1.139   2.175  2.5133  1.8368  1.6389
   11MOL   H539 9559   6.252   1.305   2.051 -0.5257 -0.9605 -1.1037
   11MOL   H540 9560   5.902   1.476   1.866  0.9917  1.6143  0.5775
   11MOL   H541 9561   5.762   1.326   1.973 -0.0758 -0.4692  1.3503
   11MOL   C542 9562   6.153   1.644   1.910 -0.5986  0.4025  0.2133
   11MOL   C543 9563   6.178   1.722   2.025  0.0157  0.3447 -0.6691
   11MOL   C544 9564   6.162   1.861   2.013 -0.3212  0.3447 -0.0445
   11MOL   C545 9565   6.124   1.922   1.889  0.1926  0.3310 -0.3620
   11MOL   C546 9566   6.088   1.838   1.782  0.1336  0.4264  0.1344
   11MOL   C547 9567   6.102   1.701   1.794  0.0867 -0.0022 -0.6350
   11MOL   S548 9568   6.085   2.101   1.883  0.0679  0.0111 -0.1847
   11MOL   O549 9569   6.064   2.131   1.741 -0.0531  0.6174  0.3119
   11MOL   O550 9570   6.190   2.165   1.962  0.1417  0.0278  0.7346
   11MOL   C551 9571   5.929   2.133   1.953 -0.6639  0.0487 -0.1372
   11MOL   C552 9572   5.865   2.250   1.924  0.1355 -0.4458 -0.1652
   11MOL   C553 9573   5.742   2.279   1.992 -0.3654 -0.2584  0.7673
   11MOL   C554 9574   5.669   2.186   2.069  0.2470  0.1084 -1.0191
   11MOL   C555 9575   5.736   2.068   2.090  0.2108  0.1142 -0.7023
   11MOL   C556 9576   5.865   2.037   2.036  0.6656 -0.4848 -0.2096
   11MOL   O557 9577   5.544   2.202   2.125  0.1879  0.3335 -0.0206
   11MOL   C558 9578   5.515   2.307   2.203  0.8682  0.1493  0.1794
   11MOL   C559 9579   5.422   2.403   2.161  0.1053  0.2497  0.4288
   11MOL   C560 9580   5.380   2.511   2.240 -0.3063  0.4452 -0.1149
   11MOL   C561 9581   5.433   2.524   2.369  0.4254 -0.5251  0.1173
   11MOL   C562 9582   5.530   2.431   2.415  0.6072 -0.3689  0.2498
   11MOL   C563 9583   5.567   2.324   2.333 -0.2279 -0.8389  0.2077
   11MOL   C564 9584   5.381   2.630   2.452  0.6054  0.9548  0.3411
   11MOL   C565 9585   5.356   2.759   2.403 -0.2032 -0.0981  0.5647
   11MOL   C566 9586   5.293   2.857   2.481 -0.1449 -0.4197 -0.4435
   11MOL   C567 9587   5.256   2.824   2.613 -0.1014 -0.2938  0.7987
   11MOL   C568 9588   5.275   2.697   2.664 -0.4281  0.2365 -0.1338
   11MOL   C569 9589   5.340   2.595   2.586  0.6484  0.2853  0.3499
   11MOL   O570 9590   5.186   2.926   2.678  0.4145  0.0380 -0.0827
   11MOL   H571 9591   6.232   1.684   2.110  1.5628  2.3350 -0.7221
   11MOL   H572 9592   6.176   1.939   2.087  0.7863 -1.0608  1.2548
   11MOL   H573 9593   6.073   1.886   1.686  0.9752 -1.2432 -0.8464
   11MOL   H574 9594   6.093   1.634   1.709 -1.6157 -3.2253  1.9489
   11MOL   H575 9595   5.919   2.327   1.871 -0.8558  0.7799  0.5613
   11MOL   H576 9596   5.700   2.379   1.997 -3.6848 -1.5895  0.9045
   11MOL   H577 9597   5.692   1.997   2.159 -0.3299 -0.1200 -1.2918
   11MOL   H578 9598   5.910   1.944   2.066  0.5284 -0.7218 -0.7521
   11MOL   H579 9599   5.386   2.387   2.060  1.8724 -1.2064 -0.0036
   11MOL   H580 9600   5.305   2.578   2.202 -0.0182  0.7751 -0.1074
   11MOL   H581 9601   5.571   2.439   2.514  0.2719  1.1748  0.2844
   11MOL   H582 9602   5.622   2.239   2.371  0.4371 -0.9289 -0.9364
   11MOL   H583 9603   5.373   2.765   2.297  0.1928 -0.7842  0.5817
   11MOL   H584 9604   5.259   2.951   2.439 -1.5779 -0.9684 -0.5543
   11MOL   H585 9605   5.243   2.665   2.763 -0.2301  0.6601  0.0690
   11MOL   H586 9606   5.344   2.494   2.623 -1.0475  1.1724  3.1100
   11MOL   C587 9607   5.142   2.908   2.804 -0.0460 -0.1258  0.0891
   11MOL   C588 9608   5.198   2.986   2.907 -0.4735 -0.3365 -0.2206
   11MOL   C589 9609   5.174   2.957   3.046 -0.2018 -0.1191 -0.0888
   11MOL   C590 9610   5.095   2.840   3.072  0.4265  0.3341  0.1314
   11MOL   C591 9611   5.029   2.772   2.966 -0.1850 -0.1139 -0.0362
   11MOL   C592 9612   5.044   2.812   2.833 -0.4578 -0.2999 -0.3027
   11MOL   S593 9613   5.073   2.771   3.232  0.0319  0.0444  0.0451
   11MOL   O594 9614   4.939   2.717   3.222  0.1166  0.3467  0.5186
   11MOL   O595 9615   5.107   2.874   3.328  0.2405 -0.3610  0.0424
   11MOL   C596 9616   5.200   2.645   3.251 -0.0486  0.6903 -0.3169
   11MOL   C597 9617   5.160   2.510   3.244 -0.6570 -0.0338 -0.0483
   11MOL   C598 9618   5.259   2.415   3.221 -0.5727  0.7004 -0.2225
   11MOL   C599 9619   5.394   2.451   3.216 -0.2417 -0.2720 -0.6647
   11MOL   C600 9620   5.436   2.587   3.226  0.4115  1.0201 -0.0134
   11MOL   C601 9621   5.333   2.685   3.234  0.1140  0.0976 -0.5676
   11MOL   O602 9622   5.486   2.355   3.206 -0.2987 -0.0951 -0.1884
   11MOL   C603 9623   5.481   2.294   3.086 -0.2967  0.0934 -0.3104
   11MOL   C604 9624   5.546   2.351   2.973  0.6111 -0.5164  0.7546
   11MOL   C605 9625   5.540   2.280   2.850 -0.0408  0.0140  0.0907
   11MOL   C606 9626   5.491   2.148   2.838 -0.1266 -0.7885 -0.5664
   11MOL   C607 9627   5.414   2.102   2.953  0.7508 -0.0905  0.3224
   11MOL   C608 9628   5.410   2.173   3.075 -0.1772 -0.3837  0.0845
   11MOL   C609 9629   5.509   2.072   2.713 -0.6116  0.0653  0.5847
   11MOL   C610 9630   5.390   2.020   2.664  1.0868  0.2247  0.4854
   11MOL   C611 9631   5.395   1.954   2.539  0.3418  0.5413 -0.5138
   11MOL   C612 9632   5.521   1.933   2.468  0.7089 -0.4001 -0.2294
   11MOL   C613 9633   5.640   1.981   2.532 -0.0316 -0.3798  0.2643
   11MOL   C614 9634   5.634   2.051   2.649  0.4564 -0.4647 -0.6678
   11MOL   O615 9635   5.528   1.862   2.353 -0.8961  0.0628  0.2974
   11MOL   H616 9636   5.272   3.062   2.886 -1.0600  0.9399  2.1350
   11MOL   H617 9637   5.228   3.010   3.123  1.4081 -2.4508  0.4236
   11MOL   H618 9638   4.975   2.684   2.996  0.4645 -0.0140  1.4849
   11MOL   H619 9639   4.998   2.765   2.747 -1.9596  0.4423  0.0797
   11MOL   H620 9640   5.054   2.487   3.250 -0.6475 -0.8862 -2.8330
   11MOL   H621 9641   5.231   2.311   3.208 -1.3488  0.8886 -0.0951
   11MOL   H622 9642   5.536   2.625   3.221  0.5803  0.3685 -1.8339
   11MOL   H623 9643   5.365   2.788   3.242  1.0887 -0.3258  1.1389
   11MOL   H624 9644   5.584   2.451   2.984 -1.7579  0.5402 -0.2773
   11MOL   H625 9645   5.587   2.333   2.768  0.2236 -0.7016 -0.2180
   11MOL   H626 9646   5.376   2.001   2.953 -2.4103  1.0338 -1.0635
   11MOL   H627 9647   5.367   2.129   3.164  1.0645  1.3478  1.5814
   11MOL   H628 9648   5.294   2.025   2.712  0.7255 -0.9970 -0.0890
   11MOL   H629 9649   5.301   1.927   2.494 -0.7737  0.6696  1.7179
   11MOL   H630 9650   5.739   1.974   2.489  0.5864 -1.4220  1.7791
   11MOL   H631 9651   5.725   2.077   2.700 -0.5066 -1.6253  1.7104
   11MOL   C632 9652   5.418   1.827   2.276 -0.6488  0.1006  0.0275
   11MOL   C633 9653   5.378   1.691   2.271 -0.2322 -0.2579  0.4892
   11MOL   C634 9654   5.266   1.655   2.193 -0.9045  0.5312 -0.4182
   11MOL   C635 9655   5.208   1.757   2.110  0.2300 -0.4809 -0.4021
   11MOL   C636 9656   5.246   1.890   2.118  0.4443 -0.5026 -0.2454
   11MOL   C637 9657   5.357   1.928   2.197  0.3463  0.2612  0.1595
   11MOL   S638 9658   5.079   1.718   1.994 -0.1949 -0.2974  0.1288
   11MOL   O639 9659   5.099   1.577   1.957 -0.3620  0.3013 -0.1764
   11MOL   O640 9660   5.060   1.828   1.895  0.3841 -0.2345  0.4538
   11MOL   C641 9661   4.939   1.726   2.105  0.2230  0.4810 -0.1081
   11MOL   C642 9662   4.866   1.843   2.120  0.0685 -0.3580 -0.0865
   11MOL   C643 9663   4.756   1.847   2.202 -0.2937  0.2782 -0.5743
   11MOL   C644 9664   4.713   1.726   2.266 -0.2699 -0.6091 -0.6295
   11MOL   C645 9665   4.782   1.607   2.247 -0.7303  0.8501  0.3503
   11MOL   C646 9666   4.894   1.606   2.163  0.1127 -0.3334  0.3658
   11MOL   O647 9667   4.602   1.723   2.341  0.0375  0.1218 -0.1205
   11MOL   C648 9668   4.480   1.752   2.272  0.9255 -0.8421 -0.2471
   11MOL   C649 9669   4.413   1.875   2.292  1.0774  0.1408 -0.0010
   11MOL   C650 9670   4.291   1.893   2.224 -0.0445 -0.1377 -0.8819
   11MOL   C651 9671   4.242   1.802   2.129  0.3886  0.3294 -0.5938
   11MOL   C652 9672   4.307   1.678   2.115 -0.7177 -0.0578  0.2066
   11MOL   C653 9673   4.423   1.656   2.187 -0.7721  0.9637 -0.2410
   11MOL   C654 9674   4.117   1.830   2.053  0.2213 -0.8654 -0.4413
   11MOL   C655 9675   4.033   1.724   2.017 -0.1924 -0.3553 -0.1053
   11MOL   C656 9676   3.924   1.745   1.930  0.4571 -0.2391  0.1028
   11MOL   C657 9677   3.882   1.879   1.907  0.6962 -0.0871  0.5951
   11MOL   C658 9678   3.956   1.985   1.953 -0.1886  0.4862  0.0257
   11MOL   C659 9679   4.075   1.963   2.025  0.1958  0.2477 -0.2032
   11MOL   O660 9680   3.765   1.901   1.839  0.3482  0.4684  0.5813
   11MOL   H661 9681   5.428   1.625   2.340  2.1479 -0.4251 -1.3328
   11MOL   H662 9682   5.233   1.555   2.170  1.1224  0.1577 -1.8160
   11MOL   H663 9683   5.196   1.964   2.057  0.5440  0.3729  0.7331
   11MOL   H664 9684   5.392   2.029   2.210 -1.0235  0.8209 -0.4385
   11MOL   H665 9685   4.906   1.932   2.073 -0.5662  0.3074  0.6221
   11MOL   H666 9686   4.704   1.940   2.220 -0.1683  0.1467  0.5341
   11MOL   H667 9687   4.760   1.515   2.299 -3.2691  1.1359 -0.1414
   11MOL   H668 9688   4.951   1.515   2.153 -0.9355 -1.0665  0.9676
   11MOL   H669 9689   4.451   1.945   2.365  0.6269  0.5314 -0.1443
   11MOL   H670 9690   4.240   1.987   2.242  1.5917  0.6984 -0.5271
   11MOL   H671 9691   4.271   1.598   2.051  0.4640 -0.8925  0.5711
   11MOL   H672 9692   4.466   1.561   2.160 -0.9918  0.3189  1.6147
   11MOL   H673 9693   4.064   1.624   2.044 -1.5210 -0.2648  1.8520
   11MOL   H674 9694   3.855   1.670   1.895  2.0832 -0.4198 -2.8123
   11MOL   H675 9695   3.931   2.090   1.942  2.4321  0.9556 -1.7451
   11MOL   H676 9696   4.117   2.057   2.058 -0.3682 -0.2014  1.8451
   11MOL   C677 9697   3.652   1.938   1.906 -0.0846  0.6883 -0.0873
   11MOL   C678 9698   3.591   2.053   1.858  0.3371  0.9397 -0.7252
   11MOL   C679 9699   3.484   2.107   1.930  0.0618 -0.0593  0.2901
   11MOL   C680 9700   3.447   2.049   2.055 -0.2311 -0.3450  0.8345
   11MOL   C681 9701   3.516   1.942   2.108  0.1326 -0.6427 -0.2497
   11MOL   C682 9702   3.617   1.882   2.031 -0.5533 -0.0727  0.0383
   11MOL   S683 9703   3.308   2.122   2.156 -0.2925  0.6149 -0.1468
   11MOL   O684 9704   3.267   2.252   2.099  0.1499  0.8534  0.1320
   11MOL   O685 9705   3.342   2.116   2.302 -0.1016  0.3630  0.5893
   11MOL   C686 9706   3.167   2.005   2.128  0.3299 -0.7179 -0.1682
   11MOL   C687 9707   3.184   1.866   2.138  0.9588 -0.6779 -0.4129
   11MOL   C688 9708   3.086   1.775   2.098 -0.8234 -0.8968 -0.0396
   11MOL   C689 9709   2.965   1.828   2.052 -0.0654  0.7309 -0.0217
   11MOL   C690 9710   2.943   1.966   2.047 -0.1442 -0.5130  0.2339
   11MOL   C691 9711   3.043   2.057   2.082 -0.2734 -0.1623 -0.0839
   11MOL   O692 9712   2.860   1.754   2.008 -0.1007 -0.1322  0.3705
   11MOL   C693 9713   2.811   1.649   2.080 -0.3976 -0.1730 -1.1022
   11MOL   C694 9714   2.731   1.674   2.193  0.2098 -0.6870 -0.2270
   11MOL   C695 9715   2.673   1.570   2.266 -0.3884 -0.0908  0.1483
   11MOL   C696 9716   2.694   1.436   2.225  0.1007 -0.2493  0.7194
   11MOL   C697 9717   2.782   1.414   2.120 -1.3166 -0.3852 -0.1366
   11MOL   C698 9718   2.841   1.516   2.044  0.0046  0.4191  0.2801
   11MOL   C699 9719   2.638   1.321   2.291 -0.0285  0.2048 -0.3243
   11MOL   C700 9720   2.712   1.217   2.345  0.1670 -0.2487 -0.6645
   11MOL   C701 9721   2.652   1.104   2.406  0.0847 -0.1927 -0.7118
   11MOL   C702 9722   2.512   1.097   2.415 -1.1391 -0.5740  0.6333
   11MOL   C703 9723   2.430   1.206   2.367  0.1656 -0.3184  0.1083
   11MOL   C704 9724   2.498   1.311   2.302  0.2335 -0.0689  0.0548
   11MOL   O705 9725   2.451   0.988   2.471 -0.7276 -0.5876 -0.2575
   11MOL   H706 9726   3.621   2.095   1.763  0.9906 -0.8680 -1.3452
   11MOL   H707 9727   3.433   2.194   1.891 -2.7912 -1.4741  0.7366
   11MOL   H708 9728   3.483   1.914   2.207 -3.0475  2.2435 -0.3981
   11MOL   H709 9729   3.676   1.803   2.077  1.4532  0.5418 -1.3847
   11MOL   H710 9730   3.277   1.824   2.174  1.1450  0.3334  0.2796
   11MOL   H711 9731   3.108   1.669   2.100  1.1595 -0.5022 -0.0773
   11MOL   H712 9732   2.850   2.005   2.008 -0.2834 -0.0745  1.0094
   11MOL   H713 9733   3.029   2.163   2.071 -0.3125 -0.2651 -1.0652
   11MOL   H714 9734   2.709   1.774   2.229  2.0818 -0.3734  0.0919
   11MOL   H715 9735   2.603   1.579   2.349  1.0197 -1.3250  1.4964
   11MOL   H716 9736   2.813   1.315   2.091 -0.8218 -0.4824  0.7151
   11MOL   H717 9737   2.904   1.510   1.956  0.5057  1.8463  0.5226
   11MOL   H718 9738   2.818   1.236   2.341 -0.3013  2.5200 -0.9316
   11MOL   H719 9739   2.720   1.024   2.432  1.2850  1.2942  0.7657
   11MOL   H720 9740   2.322   1.215   2.371 -0.1115 -2.7540 -0.6858
   11MOL   H721 9741   2.430   1.377   2.249  1.1765  1.1608  0.3470
   11MOL   C722 9742   2.436   0.991   2.609  0.1746  0.4388 -0.4137
   11MOL   C723 9743   2.548   0.979   2.695  0.7880 -0.0819  1.2738
   11MOL   C724 9744   2.519   0.976   2.834 -0.1143  0.2707  0.1402
   11MOL   C725 9745   2.385   0.997   2.880 -0.4878  0.1000  0.3596
   11MOL   C726 9746   2.272   1.015   2.794 -0.7099 -0.0284 -0.1088
   11MOL   C727 9747   2.303   1.012   2.656  0.2392 -0.0323  0.1669
   11MOL   S728 9748   2.364   0.997   3.064 -0.3424  0.2369  0.0654
   11MOL   O729 9749   2.293   1.121   3.096  0.1248  0.6860 -0.0369
   11MOL   O730 9750   2.492   0.970   3.131 -0.5282  0.9169 -0.5674
   11MOL   C731 9751   2.256   0.857   3.103  0.5120 -0.4413 -0.7691
   11MOL   C732 9752   2.191   0.775   3.013  0.2749  0.3052  0.2269
   11MOL   C733 9753   2.120   0.662   3.067 -0.1987 -0.0253 -1.3082
   11MOL   C734 9754   2.101   0.637   3.201 -0.2706  0.0445 -0.3673
   11MOL   C735 9755   2.167   0.724   3.291  0.7229 -0.0921 -0.5554
   11MOL   C736 9756   2.242   0.833   3.239 -0.0844  0.0839  0.2750
   11MOL   O737 9757   2.026   0.520   3.233 -0.1282 -0.1082  0.4162
   11MOL   C738 9758   1.921   0.532   3.326  0.1785 -0.0948  0.2854
   11MOL   C739 9759   1.839   0.641   3.340  0.0390  0.0469 -0.8273
   11MOL   C740 9760   1.738   0.648   3.437 -0.2148 -0.0211 -0.4319
   11MOL   C741 9761   1.712   0.537   3.523 -0.3589  0.6731  0.1823
   11MOL   C742 9762   1.786   0.419   3.501  0.0430 -0.5275 -0.5345
   11MOL   C743 9763   1.891   0.418   3.403  0.4307 -0.0240 -0.4292
   11MOL   C744 9764   1.610   0.542   3.633 -0.1398 -0.3933  0.5481
   11MOL   C745 9765   1.634   0.473   3.756 -0.2414  0.4623 -0.0627
   11MOL   C746 9766   1.546   0.489   3.864  0.1532  0.8173 -0.1949
   11MOL   C747 9767   1.434   0.569   3.852  0.8031 -0.2229  0.3119
   11MOL   C748 9768   1.412   0.634   3.732  0.1748  0.3889  0.3243
   11MOL   C749 9769   1.494   0.620   3.618  0.8181 -0.3420  0.4622
   11MOL   O750 9770   1.348   0.588   3.960 -0.4787  0.0607  0.1899
   11MOL   H751 9771   2.643   0.976   2.644 -1.0983  3.8632 -2.8878
   11MOL   H752 9772   2.600   0.955   2.902 -0.6111 -0.6264  0.4567
   11MOL   H753 9773   2.173   1.034   2.831 -0.6064  1.0670 -0.3504
   11MOL   H754 9774   2.222   1.033   2.588 -0.4107 -0.3560  0.8407
   11MOL   H755 9775   2.218   0.773   2.908  0.5304  0.9304  0.2837
   11MOL   H756 9776   2.080   0.588   3.000  0.1165 -1.4525  0.0414
   11MOL   H757 9777   2.157   0.723   3.399 -0.9109 -1.1236 -0.6997
   11MOL   H758 9778   2.287   0.902   3.309  2.5464 -0.1851 -1.1174
   11MOL   H759 9779   1.856   0.727   3.277  1.0181  1.1432  0.8973
   11MOL   H760 9780   1.686   0.743   3.438 -0.4447 -0.1187 -1.8037
   11MOL   H761 9781   1.776   0.328   3.559 -2.2819 -0.6508 -1.0906
   11MOL   H762 9782   1.951   0.329   3.392  1.4884  0.4593  1.2007
   11MOL   H763 9783   1.714   0.401   3.762 -0.2616  0.5386  1.2376
   11MOL   H764 9784   1.557   0.434   3.956  1.4331 -1.6654 -1.7805
   11MOL   H765 9785   1.329   0.702   3.725 -0.5060 -0.1483  2.6767
   11MOL   H766 9786   1.469   0.676   3.529  1.6912 -1.4225 -0.4820
   11MOL   C767 9787   1.360   0.703   4.039 -0.2982  0.7290 -0.3229
   11MOL   C768 9788   1.291   0.819   3.999 -0.1514  0.3348  0.0869
   11MOL   C769 9789   1.297   0.941   4.080 -0.2327  0.3885 -0.2802
   11MOL   C770 9790   1.383   0.936   4.192  0.9174 -0.1705  0.0544
   11MOL   C771 9791   1.444   0.815   4.236  0.6031 -0.0145 -0.1485
   11MOL   C772 9792   1.425   0.693   4.159  0.2035  0.2210 -0.1621
   11MOL   S773 9793   1.405   1.081   4.304  0.2806  0.1657  0.2246
   11MOL   O774 9794   1.495   1.178   4.232 -0.6667  0.1370  0.2022
   11MOL   O775 9795   1.431   1.039   4.445 -0.2820 -0.1380  0.1177
   11MOL   C776 9796   1.255   1.168   4.312  0.2034  0.5404  0.1096
   11MOL   C777 9797   1.128   1.105   4.294  0.1535 -0.4884  0.2356
   11MOL   C778 9798   1.011   1.181   4.298 -0.0348 -0.2375 -0.2548
   11MOL   C779 9799   1.026   1.319   4.331 -0.0485 -0.2159 -0.6022
   11MOL   C780 9800   1.148   1.385   4.330 -0.4106  0.3863  0.1484
   11MOL   C781 9801   1.263   1.307   4.316  0.2090  0.2663 -0.8376
   11MOL   O782 9802   0.905   1.391   4.342  0.3648 -0.5358  0.4444
   11MOL   C783 9803   0.799   1.333   4.419 -0.1457 -0.2142 -0.6027
   11MOL   C784 9804   0.779   1.371   4.552 -0.6549  0.1111 -0.0629
   11MOL   C785 9805   0.674   1.319   4.627 -0.2009 -0.3503  0.6791
   11MOL   C786 9806   0.587   1.225   4.570  0.4714 -0.1867  0.2103
   11MOL   C787 9807   0.600   1.190   4.436  0.4111 -0.3000  0.1734
   11MOL   C788 9808   0.705   1.251   4.361  0.1192 -0.0973 -0.3275
   11MOL   C789 9809   0.496   1.151   4.659  0.0918 -0.1815  0.2001
   11MOL   C790 9810   0.493   1.012   4.663 -0.1834 -0.1457 -0.2881
   11MOL   C791 9811   0.407   0.950   4.751  0.5474  0.1127  0.2267
   11MOL   C792 9812   0.320   1.020   4.839 -0.2767 -0.1897  0.3519
   11MOL   C793 9813   0.336   1.157   4.837  0.4153 -0.1286 -0.1230
   11MOL   C794 9814   0.422   1.224   4.751  0.0373  0.4589 -0.7313
   11MOL   O795 9815   0.222   0.957   4.915 -0.0047  0.4403  0.3153
   11MOL   H796 9816   1.227   0.816   3.912 -1.6139 -3.6703  1.2173
   11MOL   H797 9817   1.237   1.027   4.057  1.3496  1.2154 -1.3768
   11MOL   H798 9818   1.512   0.812   4.320  2.0038  0.0465 -1.2568
   11MOL   H799 9819   1.464   0.598   4.191  1.2165  0.9826  0.9207
   11MOL   H800 9820   1.112   0.999   4.280 -1.0909 -0.0627 -1.7418
   11MOL   H801 9821   0.917   1.127   4.294 -0.6544  0.8628 -1.0381
   11MOL   H802 9822   1.160   1.490   4.351  0.3537  0.4504 -0.5962
   11MOL   H803 9823   1.363   1.344   4.306  0.4733 -0.5177 -1.1199
   11MOL   H804 9824   0.851   1.441   4.591  0.2177 -1.6336  1.5094
   11MOL   H805 9825   0.662   1.357   4.728 -0.5910 -0.1384  0.5546
   11MOL   H806 9826   0.539   1.112   4.393  0.0018 -0.4168  0.9711
   11MOL   H807 9827   0.709   1.220   4.258  0.4160  1.2013 -0.7181
   11MOL   H808 9828   0.547   0.947   4.596 -0.2379 -0.1178 -0.3590
   11MOL   H809 9829   0.395   0.843   4.745  0.8607  0.0645  0.4978
   11MOL   H810 9830   0.283   1.208   4.917  1.2238 -0.2088  0.4667
   11MOL   H811 9831   0.431   1.331   4.766  0.5624  0.3756 -0.4601
   11MOL   C812 9832   0.097   0.945   4.855 -0.5509 -0.0758 -0.2378
   11MOL   C813 9833   0.076   0.974   4.712 -0.7237 -0.7792 -1.0604
   11MOL   C814 9834   8.321   0.945   4.654 -0.4081 -0.0271 -0.4862
   11MOL   C815 9835   8.210   0.905   4.734 -0.1468  0.2241 -0.2237
   11MOL   C816 9836   8.231   0.876   4.872 -0.1435  0.1849 -0.8887
   11MOL   C817 9837   8.359   0.899   4.931 -0.0355 -0.3744 -0.3070
   11MOL   S818 9838   8.048   0.879   4.655 -0.1132 -0.6675 -0.5239
   11MOL   O819 9839   7.952   0.848   4.759 -0.2667  0.0090  0.3170
   11MOL   O820 9840   8.063   0.785   4.544 -0.2429 -0.3669  0.4302
   11MOL   C821 9841   8.012   1.040   4.582  0.2284  0.4234  0.0188
   11MOL   C822 9842   8.072   1.066   4.460  0.3292 -0.5832  0.2215
   11MOL   C823 9843   8.048   1.192   4.396 -0.3324  0.2694  0.6757
   11MOL   C824 9844   7.980   1.298   4.464 -0.6513 -0.3089  0.2048
   11MOL   C825 9845   7.931   1.270   4.591 -0.0076  0.7997 -0.1091
   11MOL   C826 9846   7.942   1.141   4.656  0.3682 -0.2493  0.1357
   11MOL   O827 9847   7.960   1.425   4.420  0.1865  0.7024 -0.8875
   11MOL   C828 9848   7.892   1.447   4.307 -0.2276 -0.7447 -0.1546
   11MOL   C829 9849   7.962   1.514   4.206 -0.3404 -0.0073 -0.1431
   11MOL   C830 9850   7.894   1.542   4.082 -0.4072 -0.1407  0.3717
   11MOL   C831 9851   7.759   1.498   4.057  0.0453  0.2479  0.6114
   11MOL   C832 9852   7.701   1.419   4.156  0.8823 -0.4693  0.1468
   11MOL   C833 9853   7.763   1.393   4.279 -0.0911 -0.0189 -0.2106
   11MOL   C834 9854   7.702   1.515   3.927  0.4951 -0.7303 -0.7953
   11MOL   C835 9855   7.748   1.447   3.815 -0.6497 -0.0446 -0.6784
   11MOL   C836 9856   7.681   1.456   3.694 -0.4489  0.5384  0.2847
   11MOL   C837 9857   7.562   1.532   3.678 -0.3317  0.4410 -0.3876
   11MOL   C838 9858   7.509   1.602   3.794  0.6617  0.0703 -0.0422
   11MOL   C839 9859   7.581   1.590   3.914 -0.4715 -0.8362  0.8742
   11MOL   O840 9860   7.495   1.531   3.564  0.0381  0.4000 -0.0577
   11MOL   H841 9861   0.152   1.005   4.641 -0.2970  1.2140  0.2189
   11MOL   H842 9862   8.304   0.976   4.551  2.1363  0.0995 -0.8899
   11MOL   H843 9863   8.156   0.838   4.941 -0.2220 -0.2215 -1.1934
   11MOL   H844 9864   0.002   0.873   5.035 -1.8652 -2.5424 -0.6486
   11MOL   H845 9865   8.130   0.989   4.411  1.4027  1.0108 -1.0739
   11MOL   H846 9866   8.095   1.212   4.301 -0.8683 -0.5939  0.2112
   11MOL   H847 9867   7.883   1.348   4.648 -1.0376  1.7702 -2.2534
   11MOL   H848 9868   7.900   1.139   4.755 -1.4975  1.0810 -0.6019
   11MOL   H849 9869   8.068   1.532   4.220 -0.7672  1.8627  0.9571
   11MOL   H850 9870   7.950   1.600   4.011  1.7657 -0.4064  1.8161
   11MOL   H851 9871   7.607   1.373   4.127 -0.0853  1.5883 -0.1022
   11MOL   H852 9872   7.708   1.339   4.355 -1.1361  0.5991 -0.5159
   11MOL   H853 9873   7.838   1.387   3.819 -0.9971 -0.4574  1.0234
   11MOL   H854 9874   7.729   1.402   3.614 -2.3627  1.0338 -1.2305
   11MOL   H855 9875   7.419   1.658   3.775  1.6162  1.3610 -0.9403
   11MOL   H856 9876   7.540   1.649   3.995  1.1327 -0.4585  1.4281
   11MOL   C857 9877   7.367   1.483   3.564 -0.4232 -0.6975 -0.7037
   11MOL   C858 9878   7.267   1.567   3.521  0.4753  0.1778 -0.0410
   11MOL   C859 9879   7.132   1.533   3.503  0.6707  0.2955  0.4665
   11MOL   C860 9880   7.094   1.406   3.549 -0.4448 -0.7930  0.6162
   11MOL   C861 9881   7.186   1.321   3.611 -0.0168  0.1007 -0.2536
   11MOL   C862 9882   7.318   1.361   3.621  0.0157  0.6685 -0.1029
   11MOL   S863 9883   6.924   1.365   3.542  0.0123 -0.0694  0.4034
   11MOL   O864 9884   6.912   1.229   3.594 -0.0990  0.1942 -0.2860
   11MOL   O865 9885   6.873   1.402   3.411 -0.3025  0.7372 -0.6705
   11MOL   C866 9886   6.856   1.468   3.671  0.5022  0.5208 -0.3925
   11MOL   C867 9887   6.799   1.594   3.638 -0.5238  0.3593 -0.2193
   11MOL   C868 9888   6.757   1.675   3.748  0.0950  0.1804 -0.1182
   11MOL   C869 9889   6.762   1.634   3.883  0.2389  0.1936 -0.8004
   11MOL   C870 9890   6.826   1.512   3.910  0.4627 -0.4070 -0.2910
   11MOL   C871 9891   6.878   1.432   3.805 -0.3151 -0.4431  0.6246
   11MOL   O872 9892   6.715   1.714   3.986 -0.2001 -0.0436  0.3066
   11MOL   C873 9893   6.577   1.716   3.983 -0.1380 -0.5508 -0.0703
   11MOL   C874 9894   6.514   1.805   3.895 -0.0645 -0.2480 -0.1583
   11MOL   C875 9895   6.376   1.816   3.896 -0.6969 -0.3620  0.0751
   11MOL   C876 9896   6.292   1.732   3.977  0.1231  0.2808  0.2846
   11MOL   C877 9897   6.355   1.638   4.057 -1.0532 -0.4079 -0.4596
   11MOL   C878 9898   6.498   1.631   4.064  0.5465 -0.3475 -0.6520
   11MOL   C879 9899   6.147   1.750   3.963  0.0283  0.4320  0.4079
   11MOL   C880 9900   6.067   1.636   3.957  0.4238  0.4760 -0.0893
   11MOL   C881 9901   5.931   1.636   3.923 -0.4215 -0.0818  0.5135
   11MOL   C882 9902   5.875   1.769   3.909  0.6972  0.0519 -0.1078
   11MOL   C883 9903   5.949   1.885   3.933 -0.1770  0.5878 -0.3449
   11MOL   C884 9904   6.085   1.875   3.954  0.0467 -0.4572 -0.2119
   11MOL   O885 9905   5.745   1.781   3.858 -0.4653  0.1522  0.2038
   11MOL   H886 9906   7.296   1.665   3.485  0.8087  0.3422  0.6753
   11MOL   H887 9907   7.061   1.599   3.456  0.4780  0.3941  0.8945
   11MOL   H888 9908   7.165   1.220   3.643 -1.7297 -0.0785 -1.8628
   11MOL   H889 9909   7.387   1.307   3.684  0.3635  0.8353 -0.3466
   11MOL   H890 9910   6.786   1.639   3.541 -1.6027  1.2892  0.3504
   11MOL   H891 9911   6.722   1.774   3.724 -2.0611 -1.1197 -2.5641
   11MOL   H892 9912   6.831   1.491   4.016 -3.0537  1.1430  0.2480
   11MOL   H893 9913   6.927   1.340   3.832  2.1262  0.7489  0.4070
   11MOL   H894 9914   6.559   1.881   3.834  0.8294 -1.1959 -0.7133
   11MOL   H895 9915   6.327   1.888   3.832 -0.1725 -0.8497 -0.8941
   11MOL   H896 9916   6.301   1.571   4.122  0.4932  0.4708  1.8384
   11MOL   H897 9917   6.547   1.560   4.130 -0.3474  0.0562  0.4552
   11MOL   H898 9918   6.112   1.538   3.965 -1.3964 -0.6200 -2.5049
   11MOL   H899 9919   5.868   1.550   3.906 -1.7831  1.1783 -1.0029
   11MOL   H900 9920   5.894   1.978   3.931 -0.7060  0.2673 -0.9855
   11MOL   H901 9921   6.146   1.965   3.956 -1.6586  0.8936 -4.3616
   11MOL   H902 9922   5.676   1.731   3.899 -0.1263 -1.2652 -0.9327
   12MOL     C1 9923   2.605   3.730   8.058 -0.6313 -0.6092  0.5744
   12MOL     C2 9924   2.653   3.825   8.155 -0.2146  0.4201  0.2941
   12MOL     C3 9925   2.560   3.876   8.246 -0.4476  0.0680  0.1955
   12MOL     C4 9926   2.429   3.830   8.254  0.1105  0.4675  0.1361
   12MOL     C5 9927   2.387   3.736   8.157  0.3550  0.3517 -0.4101
   12MOL     C6 9928   2.475   3.684   8.060  0.2129  0.2466  0.0881
   12MOL     S7 9929   2.308   3.902   8.359  0.1296 -0.6004 -0.1455
   12MOL     O8 9930   2.367   3.910   0.126 -0.0777  0.0437  0.0743
   12MOL     O9 9931   2.175   3.835   8.338  0.7596  0.1069 -0.4359
   12MOL    C10 9932   2.294   4.070   8.301  0.2477  0.5997  0.4377
   12MOL    C11 9933   2.250   4.086   8.163 -0.1117 -0.3485 -0.3867
   12MOL    C12 9934   2.231   4.217   8.113  0.2030  0.1237 -0.6929
   12MOL    C13 9935   2.236   4.327   8.204  0.4476  0.6144 -0.1523
   12MOL    C14 9936   2.276   4.306   8.339  0.2955  0.4680  0.3338
   12MOL    C15 9937   2.306   4.177   0.019  0.3421  0.5712 -0.1086
   12MOL    O16 9938   2.205   4.448   8.156 -0.0618 -0.0478  0.2575
   12MOL    C17 9939   2.126   4.530   8.230 -0.1009 -0.1348 -0.2741
   12MOL    C18 9940   1.986   4.530   8.222  0.0380  0.6000 -0.0856
   12MOL    C19 9941   1.905   4.615   8.306 -0.2813 -0.4170  0.0510
   12MOL    C20 9942   1.958   4.698   0.036  0.4759 -0.7746  0.2658
   12MOL    C21 9943   2.098   4.712   0.032 -0.4631 -0.0344 -0.4708
   12MOL    C22 9944   2.178   4.626   8.322  0.0561  0.2165 -0.0039
   12MOL    C23 9945   1.880   4.778   0.127  0.0016 -1.3993 -0.2877
   12MOL    C24 9946   1.744   4.744   0.147 -0.3355  0.1398  0.5935
   12MOL    C25 9947   1.660   4.822   0.226  0.4671 -0.4995  0.2415
   12MOL    C26 9948   1.699   4.954   0.268  0.6025 -0.0052 -0.3903
   12MOL    C27 9949   1.836   4.984   0.261 -0.0830 -0.3338  0.0014
   12MOL    C28 9950   1.928   4.897   0.193 -0.7409 -0.0395  0.0956
   12MOL    O29 9951   1.615   5.046   0.321  0.2252  0.3015  0.4152
   12MOL    H30 9952   2.755   3.861   8.148 -0.1546  0.3604  0.8012
   12MOL    H31 9953   2.590   3.933   8.334  0.6179  1.3295 -0.9601
   12MOL    H32 9954   2.284   3.703   8.153  1.1416 -2.8034  2.9733
   12MOL    H33 9955   2.442   3.611   7.988  0.8957  1.0236 -1.0519
   12MOL    H34 9956   2.237   4.011   8.086  0.0283 -0.1533 -0.6009
   12MOL    H35 9957   2.198   4.234   8.012 -3.8334 -0.5168  0.4082
   12MOL    H36 9958   2.270   4.385   0.047  1.1910  2.8342 -2.0398
   12MOL    H37 9959   2.327   4.146   0.120 -0.4604 -0.2478 -0.1832
   12MOL    H38 9960   1.937   4.470   8.147  1.3945  1.7327 -1.9023
   12MOL    H39 9961   1.798   4.616   8.288  0.0082 -1.2884 -1.8068
   12MOL    H40 9962   2.140   4.781   0.104  2.0012 -0.6618 -1.2348
   12MOL    H41 9963   2.284   4.636   8.338 -0.3612  3.1458  1.1640
   12MOL    H42 9964   1.704   4.650   0.112 -2.2589  0.1251  2.7597
   12MOL    H43 9965   1.560   4.783   0.229  0.6521 -1.0183 -0.2994
   12MOL    H44 9966   1.875   5.072   0.308 -2.9775  1.6505 -1.1485
   12MOL    H45 9967   2.029   4.935   0.188 -1.1373  0.8693 -0.9427
   12MOL    H46 9968   2.676   3.685   7.991 -0.9429 -0.2769  0.0160
   12MOL    C47 9969   1.487   5.067   0.282  0.0440 -0.1540  0.1398
   12MOL    C48 9970   1.387   5.051   0.377  0.5741 -0.3452 -0.8556
   12MOL    C49 9971   1.252   5.081   0.351  1.3052 -0.5576 -0.3139
   12MOL    C50 9972   1.227   5.129   0.217  0.0994 -0.0768  0.1699
   12MOL    C51 9973   1.321   5.128   0.117  0.3957 -0.3207 -0.6855
   12MOL    C52 9974   1.452   5.102   0.148 -0.3500  0.0167 -0.7260
   12MOL    S53 9975   1.057   5.173   0.170  0.2929 -0.4041 -0.1261
   12MOL    O54 9976   0.982   5.049   0.139  0.3795 -0.0938 -0.4337
   12MOL    O55 9977   1.053   5.276   0.063 -0.4076 -0.9732  0.1366
   12MOL    C56 9978   0.974   5.254   0.306 -0.3012  0.5077 -0.1003
   12MOL    C57 9979   0.881   5.189   0.398 -0.0523 -0.6960  0.3401
   12MOL    C58 9980   0.845   5.253   0.518  0.2348 -0.0638 -0.6190
   12MOL    C59 9981   0.890   5.381   0.554 -0.6025  0.3843 -0.2937
   12MOL    C60 9982   0.986   5.441   0.467 -0.2922 -0.1160  0.1201
   12MOL    C61 9983   1.023   5.381   0.343  0.0838 -0.0778  0.0190
   12MOL    O62 9984   0.838   5.441   0.669 -0.4104  0.5239 -0.2343
   12MOL    C63 9985   0.911   5.543   0.732  0.4224  0.0305 -0.0961
   12MOL    C64 9986   0.990   5.524   0.846  0.0106  0.3075  0.0511
   12MOL    C65 9987   1.032   5.634   0.916  0.4421  0.0877  0.5854
   12MOL    C66 9988   1.002   5.770   0.871  0.0333  0.1387 -0.0656
   12MOL    C67 9989   0.925   5.788   0.756 -0.4478 -0.7879 -0.2699
   12MOL    C68 9990   0.878   5.671   0.695  0.0926 -0.3155 -0.0099
   12MOL    C69 9991   1.044   5.883   0.948 -0.0038 -0.5341 -0.4375
   12MOL    C70 9992   1.100   5.996   0.890 -0.0920 -0.3180  0.0736
   12MOL    C71 9993   1.136   6.102   0.969 -0.1245  0.5324 -0.2192
   12MOL    C72 9994   1.126   6.100   1.108 -0.5133 -0.2757 -0.2327
   12MOL    C73 9995   1.087   5.979   1.172 -0.6111 -0.3701 -0.3969
   12MOL    C74 9996   1.040   5.871   1.092 -0.9415 -0.3600  0.1827
   12MOL    O75 9997   1.172   6.208   1.175  0.3323  0.0297 -0.3857
   12MOL    H76 9998   1.405   5.001   0.472 -0.2109 -0.6341 -0.8548
   12MOL    H77 9999   1.168   5.078   0.418  2.0119 -0.4786  0.5723
   12MOL    H7810000   1.301   5.171   0.020  2.1194  2.6458  0.2128
   12MOL    H7910001   1.526   5.111   0.069 -0.1719  1.4490 -0.3966
   12MOL    H8010002   0.848   5.089   0.371 -0.5772 -0.7509  1.1745
   12MOL    H8110003   0.773   5.201   0.579 -1.5807  1.0054 -1.8289
   12MOL    H8210004   1.023   5.539   0.493 -1.0923  0.5628 -1.2545
   12MOL    H8310005   1.098   5.425   0.278  0.2306  0.8825  0.8219
   12MOL    H8410006   1.017   5.421   0.867 -0.2295  0.2999  0.3272
   12MOL    H8510007   1.089   5.633   1.008 -0.8669 -1.3441  1.3971
   12MOL    H8610008   0.887   5.886   0.732 -1.8652 -1.1623  0.4285
   12MOL    H8710009   0.811   5.680   0.611 -1.4980 -0.7818  1.1866
   12MOL    H8810010   1.120   5.993   0.783  1.2977 -2.1759  0.3388
   12MOL    H8910011   1.180   6.189   0.923  1.4835 -0.9987 -1.6185
   12MOL    H9010012   1.081   5.966   1.279 -0.7793  0.8437 -0.2512
   12MOL    H9110013   1.011   5.777   1.137 -1.0417 -0.6789 -0.5411
   12MOL    C9210014   1.090   6.298   1.237  0.7642  0.0081  0.4049
   12MOL    C9310015   0.954   6.277   1.263  0.4430 -0.5097  0.0264
   12MOL    C9410016   0.882   6.368   1.338 -0.8527 -0.1677 -0.0816
   12MOL    C9510017   0.946   6.487   1.373  0.4203 -0.1742 -0.6098
   12MOL    C9610018   1.079   6.512   1.341 -0.7281 -0.1539  0.1572
   12MOL    C9710019   1.153   6.414   1.274  0.0704  0.5429  0.1040
   12MOL    S9810020   0.847   6.617   1.452 -0.0695  0.3066  0.1013
   12MOL    O9910021   0.707   6.596   1.422  0.4680  0.2617  0.5579
   12MOL   O10010022   0.898   6.745   1.404 -0.0781 -0.4483 -0.5846
   12MOL   C10110023   0.889   6.602   1.630  0.1901 -0.0009 -0.5778
   12MOL   C10210024   0.817   6.508   1.706  0.4737  0.1490  0.1011
   12MOL   C10310025   0.843   6.481   1.846 -0.2426 -0.5589 -0.9727
   12MOL   C10410026   0.950   6.552   1.902  0.3310  0.4195  0.1522
   12MOL   C10510027   1.021   6.646   1.827 -0.5426 -0.6303  0.2386
   12MOL   C10610028   0.989   6.672   1.697 -0.3990  0.4760  0.8060
   12MOL   O10710029   0.975   6.527   2.034 -0.3326 -0.4514 -0.1943
   12MOL   C10810030   1.102   6.536   2.086  0.2890 -0.3830 -0.2244
   12MOL   C10910031   1.145   6.641   2.173 -0.3613 -0.3599  0.2391
   12MOL   C11010032   1.274   6.646   2.221 -0.1473  0.9952  0.3963
   12MOL   C11110033   1.372   6.552   2.178  0.2471  1.1977  0.1277
   12MOL   C11210034   1.332   6.446   2.101  0.3114 -0.5187 -0.1422
   12MOL   C11310035   1.200   6.438   2.058  0.2182  0.5116  0.3980
   12MOL   C11410036   1.516   6.560   2.226 -0.4695  0.5341  0.2922
   12MOL   C11510037   1.586   6.674   2.214 -0.2286 -0.2893  0.3620
   12MOL   C11610038   1.725   6.687   2.239  0.3132  0.1971 -1.0179
   12MOL   C11710039   1.797   6.568   2.272  0.9065 -0.1673  0.6144
   12MOL   C11810040   1.727   6.450   2.288  0.3830  1.1675 -0.3245
   12MOL   C11910041   1.590   6.444   2.266 -0.2364 -0.5382 -0.5397
   12MOL   O12010042   1.931   6.584   2.261  0.3449  0.3460 -0.5329
   12MOL   H12110043   0.914   6.185   1.223 -0.7381  0.6484 -1.5393
   12MOL   H12210044   0.775   6.362   1.355 -1.0913  0.2543 -1.3593
   12MOL   H12310045   1.121   6.609   1.362 -0.5257  0.5250 -3.0857
   12MOL   H12410046   1.260   6.432   1.267 -0.1091  2.0777  1.1339
   12MOL   H12510047   0.729   6.473   1.654  0.6996  2.2961 -1.8050
   12MOL   H12610048   0.782   6.417   1.909  1.8073 -0.6070  1.0181
   12MOL   H12710049   1.100   6.697   1.881  0.4512 -1.4963 -0.3773
   12MOL   H12810050   1.047   6.744   1.642 -1.4859  0.7195 -0.0474
   12MOL   H12910051   1.079   6.722   2.201 -0.0678 -0.8173  2.3752
   12MOL   H13010052   1.307   6.736   2.271  1.9664 -0.2912  1.3911
   12MOL   H13110053   1.395   6.364   2.070 -0.5586 -1.7797  1.3222
   12MOL   H13210054   1.165   6.353   2.000  1.4403 -2.2841  3.6182
   12MOL   H13310055   1.534   6.765   2.187  0.0935 -0.0955  0.3811
   12MOL   H13410056   1.774   6.783   2.229 -0.7472  0.7182 -1.2973
   12MOL   H13510057   1.772   6.356   2.316 -1.1061  0.7823  0.8549
   12MOL   H13610058   1.530   6.361   2.300 -0.4176 -0.0393  0.3631
   12MOL   C13710059   2.007   6.476   2.288 -0.1739 -0.2277 -0.0845
   12MOL   C13810060   2.067   6.415   2.175 -0.5166  0.2978 -0.2570
   12MOL   C13910061   2.148   6.300   2.188 -0.7190  0.2492 -0.0917
   12MOL   C14010062   2.162   6.257   2.321 -0.4549 -0.0413  0.0464
   12MOL   C14110063   2.112   6.321   2.439 -0.2260 -0.0838 -0.1881
   12MOL   C14210064   2.031   6.431   2.423 -0.0758  0.1811  0.1293
   12MOL   S14310065   2.230   6.092   2.341 -0.1596  0.0029  0.2583
   12MOL   O14410066   2.294   6.081   2.473  0.6893 -0.0824 -0.0584
   12MOL   O14510067   2.312   6.063   2.217  0.7605  0.1710 -0.7175
   12MOL   C14610068   2.082   5.985   2.338 -0.1591 -0.1243 -0.2062
   12MOL   C14710069   2.012   5.949   2.217 -0.4746  0.8255 -0.3593
   12MOL   C14810070   1.892   5.884   2.221 -0.8172 -0.4364  0.4926
   12MOL   C14910071   1.834   5.852   2.345 -0.1944  0.1523  0.7593
   12MOL   C15010072   1.907   5.878   2.465  0.0403 -0.4208  0.6200
   12MOL   C15110073   2.033   5.943   2.460 -0.3118  0.7656  0.0312
   12MOL   O15210074   1.710   5.793   2.360  0.2434 -0.4672 -0.2087
   12MOL   C15310075   1.600   5.874   2.357 -0.6900  0.6291 -0.0434
   12MOL   C15410076   1.493   5.825   2.436 -0.4962 -0.3138  0.8630
   12MOL   C15510077   1.374   5.897   2.451  0.1327  0.0492 -0.0572
   12MOL   C15610078   1.356   6.018   2.381 -0.2065  0.0116  0.2240
   12MOL   C15710079   1.459   6.062   2.291  0.4961  0.4539  0.2205
   12MOL   C15810080   1.586   5.993   2.287 -0.0761 -0.7064  0.7398
   12MOL   C15910081   1.222   6.091   2.410 -0.5896  0.1345  0.2606
   12MOL   C16010082   1.156   6.071   2.532 -0.0906 -0.4364 -0.5805
   12MOL   C16110083   1.030   6.131   2.552 -0.4074  0.7467 -1.1181
   12MOL   C16210084   0.970   6.209   2.451  1.1795  0.3882 -0.3883
   12MOL   C16310085   1.036   6.220   2.327  0.0647 -0.1470  0.2084
   12MOL   C16410086   1.165   6.165   2.306 -0.6604 -0.3006 -0.2423
   12MOL   O16510087   0.850   6.263   2.479  0.0975  0.1571  0.2685
   12MOL   H16610088   2.065   6.468   2.081 -0.5020  2.5517  0.9834
   12MOL   H16710089   2.200   6.248   2.110 -1.3859 -2.3317  1.1082
   12MOL   H16810090   2.109   6.273   2.536  0.1754 -1.0798 -0.6607
   12MOL   H16910091   1.973   6.476   2.502 -1.7938 -0.1457 -0.9412
   12MOL   H17010092   2.060   5.970   2.122  0.1932 -1.2448 -0.5000
   12MOL   H17110093   1.845   5.848   2.130 -0.6196  0.7848 -0.1165
   12MOL   H17210094   1.866   5.849   2.561  0.5444 -2.2445  0.3010
   12MOL   H17310095   2.088   5.960   2.551 -0.8661  0.2705  0.4697
   12MOL   H17410096   1.498   5.725   2.477 -1.0089 -1.2141 -1.1508
   12MOL   H17510097   1.297   5.869   2.521 -0.6106  1.2181 -0.3820
   12MOL   H17610098   1.449   6.155   2.237  1.0323 -0.2239 -1.0715
   12MOL   H17710099   1.669   6.025   2.226 -1.4648  0.2059 -0.7041
   12MOL   H17810100   1.190   6.010   2.614 -0.4849  1.5094  1.0644
   12MOL   H17910101   0.983   6.112   2.647 -0.3021  0.1607 -1.1843
   12MOL   H18010102   0.991   6.275   2.245 -0.1137 -0.7356 -0.0902
   12MOL   H18110103   1.217   6.179   2.212  1.5697 -2.5475  0.6351
   12MOL   C18210104   0.743   6.225   2.405  0.3990 -0.8419 -0.0892
   12MOL   C18310105   0.700   6.291   2.285  0.0200  0.2610  0.6405
   12MOL   C18410106   0.587   6.253   2.218 -0.3823 -0.2459 -0.4386
   12MOL   C18510107   0.500   6.159   2.274  0.4649 -0.5516 -0.1180
   12MOL   C18610108   0.533   6.096   2.402 -0.2056 -0.1449  0.0073
   12MOL   C18710109   0.656   6.129   2.457  0.4555  0.1449 -0.4620
   12MOL   S18810110   0.364   6.117   2.172  0.5285  0.0144 -0.1069
   12MOL   O18910111   0.375   5.976   2.119 -0.0023  0.1866 -0.2151
   12MOL   O19010112   0.337   6.224   2.083 -0.8466 -0.1630 -0.0772
   12MOL   C19110113   0.217   6.127   2.284 -0.2032  0.4242  0.1896
   12MOL   C19210114   0.193   6.237   2.371  0.6105 -0.5857 -0.0949
   12MOL   C19310115   0.094   6.226   2.473 -0.4729 -0.1675  0.2225
   12MOL   C19410116   0.028   6.103   2.493 -0.3479 -0.4783 -0.4811
   12MOL   C19510117   0.038   5.999   2.400 -0.6202 -0.0456 -1.2817
   12MOL   C19610118   0.137   6.010   2.298  1.2606  0.5231  0.2470
   12MOL   O19710119   8.295   6.089   2.583 -0.3009  0.3615  1.0109
   12MOL   C19810120   8.261   6.192   2.663 -0.5089  0.8277 -0.5373
   12MOL   C19910121   8.305   6.198   2.797  0.0096 -0.0910  0.1816
   12MOL   C20010122   8.252   6.292   2.893 -0.8440 -0.2434  0.1397
   12MOL   C20110123   8.140   6.369   2.858 -0.7654 -0.0901  0.2735
   12MOL   C20210124   8.094   6.369   2.724 -0.2414  0.3172 -0.3566
   12MOL   C20310125   8.156   6.280   2.630 -0.2153  1.5452  0.7945
   12MOL   C20410126   8.090   6.461   2.960  0.6714  0.7594  0.4184
   12MOL   C20510127   8.089   6.600   2.958  0.3157 -0.0769  0.2739
   12MOL   C20610128   8.053   6.675   3.075 -0.5047 -0.3365  0.2715
   12MOL   C20710129   8.006   6.603   3.188  0.3957  0.0684  0.8025
   12MOL   C20810130   7.998   6.465   3.183  0.5822  0.0031 -0.6629
   12MOL   C20910131   8.041   6.393   3.071  0.0232 -0.1043 -0.7461
   12MOL   O21010132   7.980   6.682   3.298  0.0973  0.5341  0.4346
   12MOL   H21110133   0.764   6.361   2.234 -0.3904 -1.2204 -1.9836
   12MOL   H21210134   0.565   6.301   2.124  2.4333  0.6369 -0.6858
   12MOL   H21310135   0.474   6.017   2.445 -1.8421  1.3642  0.6279
   12MOL   H21410136   0.674   6.077   2.549 -0.8893  0.5209  0.0203
   12MOL   H21510137   0.250   6.327   2.352  0.0756  0.1004  1.4500
   12MOL   H21610138   0.081   6.308   2.542 -1.4057 -1.2122  1.3134
   12MOL   H21710139   8.342   5.911   2.410 -0.0358 -0.2329  0.7721
   12MOL   H21810140   0.144   5.925   2.231  0.4229 -0.1552  1.0134
   12MOL   H21910141   0.018   6.131   2.829 -0.5582 -0.4440  0.8471
   12MOL   H22010142   8.284   6.294   2.996 -3.0222 -0.9738  0.8601
   12MOL   H22110143   8.020   6.434   2.681  0.3485 -1.2544 -3.9491
   12MOL   H22210144   8.122   6.287   2.528 -4.0858  1.4010  1.9816
   12MOL   H22310145   8.128   6.659   2.877  1.8471 -0.4098  0.7623
   12MOL   H22410146   8.049   6.783   3.079  2.5357 -0.0421 -2.7751
   12MOL   H22510147   7.958   6.413   3.269  1.5949  0.9280  0.3805
   12MOL   H22610148   8.036   6.285   3.070  0.2970 -0.1237 -2.9692
   12MOL   C22710149   7.896   6.653   3.398  0.3265 -0.8181  0.0589
   12MOL   C22810150   7.767   6.713   3.402 -0.2246 -0.1548  0.5370
   12MOL   C22910151   7.675   6.680   3.503 -0.4489 -0.9749 -0.4844
   12MOL   C23010152   7.713   6.577   3.593  0.0244  0.0366 -0.0546
   12MOL   C23110153   7.837   6.519   3.595  0.7569 -0.0759  0.2452
   12MOL   C23210154   7.931   6.562   3.499 -0.0926 -0.2385  0.4547
   12MOL   S23310155   7.587   6.524   3.717  0.2828 -0.0882  0.1064
   12MOL   O23410156   7.608   6.378   3.740 -0.2661 -0.4079  0.0971
   12MOL   O23510157   7.460   6.575   3.668  0.8097 -0.7233 -0.0725
   12MOL   C23610158   7.626   6.615   3.865 -0.9519 -0.2587  0.6677
   12MOL   C23710159   7.703   6.550   3.962 -0.3036 -0.1565 -0.0560
   12MOL   C23810160   7.727   6.621   4.082 -0.3756  0.3192  0.0259
   12MOL   C23910161   7.664   6.747   4.103 -0.4367 -0.1314 -0.1557
   12MOL   C24010162   7.566   6.792   4.016  0.8081  0.2085 -0.1510
   12MOL   C24110163   7.548   6.730   3.893 -0.3109  0.0717 -0.0514
   12MOL   O24210164   7.707   6.822   4.213  0.3541  0.5837  0.2600
   12MOL   C24310165   7.783   6.933   4.185  0.7373 -0.2838 -0.1686
   12MOL   C24410166   7.780   7.049   4.267 -0.2310  0.6205 -0.2889
   12MOL   C24510167   7.850   7.166   4.231  0.2589  0.4938 -0.1524
   12MOL   C24610168   7.929   7.166   4.113  0.3960 -0.4739 -0.0839
   12MOL   C24710169   7.954   7.047   4.046 -0.2869  0.7692  0.1035
   12MOL   C24810170   7.879   6.929   4.082  0.0781 -0.3591 -0.6263
   12MOL   C24910171   8.003   7.287   4.084 -0.4787  0.2772 -0.0931
   12MOL   C25010172   8.141   7.279   4.041 -0.1373  0.0919 -0.0938
   12MOL   C25110173   8.210   7.388   3.992 -0.2093 -0.8491  0.3432
   12MOL   C25210174   8.150   7.518   4.000 -0.6966 -0.8789 -0.2912
   12MOL   C25310175   8.021   7.529   4.050 -0.3882  0.4404 -0.0881
   12MOL   C25410176   7.945   7.416   4.090  1.2485  0.5060  0.1183
   12MOL   O25510177   8.213   7.626   3.941  0.4102 -0.2834 -0.1783
   12MOL   H25610178   7.730   6.789   3.335  0.9316 -0.3684 -0.3528
   12MOL   H25710179   7.582   6.733   3.511 -0.1451 -0.6327  0.9941
   12MOL   H25810180   7.851   6.443   3.670  0.8801 -0.3056 -0.0072
   12MOL   H25910181   8.033   6.527   3.512 -0.3874 -0.6061  1.9389
   12MOL   H26010182   7.747   6.454   3.942  1.5369  0.5803  0.3192
   12MOL   H26110183   7.795   6.588   4.159 -1.2482  1.0732  1.1372
   12MOL   H26210184   7.514   6.886   4.024  0.8967  0.1308  1.5596
   12MOL   H26310185   7.474   6.774   3.828  1.3094 -0.3006 -2.2095
   12MOL   H26410186   7.727   7.053   4.361 -0.1368  0.3659 -0.2276
   12MOL   H26510187   7.836   7.250   4.298  0.3869 -0.2608  0.8301
   12MOL   H26610188   8.030   7.035   3.970 -0.8097 -1.7351 -0.0442
   12MOL   H26710189   7.907   6.841   4.027  1.4810 -0.1984 -0.1996
   12MOL   H26810190   8.188   7.182   4.036 -0.8048 -0.1621 -1.5363
   12MOL   H26910191   8.311   7.377   3.958 -0.0322  0.2252  0.5078
   12MOL   H27010192   7.980   7.627   4.066  0.0554  0.3868  1.4739
   12MOL   H27110193   7.842   7.424   4.120  1.1582  0.8140 -0.2680
   12MOL   C27210194   8.254   7.611   3.814  0.3942 -0.3855 -0.1153
   12MOL   C27310195   8.347   7.708   3.761 -0.2911  0.5503 -0.4470
   12MOL   C27410196   0.036   7.692   3.626  0.0590  0.7404 -0.4495
   12MOL   C27510197   8.355   7.589   3.541  0.5354 -0.3538  0.4641
   12MOL   C27610198   8.253   7.501   3.587  0.0632  0.1019  0.2476
   12MOL   C27710199   8.208   7.516   3.718 -0.0002  0.5603 -0.3009
   12MOL   S27810200   0.043   7.573   3.370  0.0246 -0.1955 -0.1017
   12MOL   O27910201   0.190   7.574   3.368 -0.5787  0.0414 -0.2514
   12MOL   O28010202   8.340   7.677   3.289 -0.7128 -0.0019  0.4444
   12MOL   C28110203   8.357   7.414   3.311  0.1852  0.1132  0.6346
   12MOL   C28210204   0.020   7.293   3.379 -0.7863 -0.2631  0.2689
   12MOL   C28310205   8.323   7.175   3.327  0.9383 -0.3859  0.0932
   12MOL   C28410206   8.241   7.177   3.211 -0.3315 -0.0945 -0.2500
   12MOL   C28510207   8.220   7.296   3.143 -0.0530  0.3656  0.1076
   12MOL   C28610208   8.284   7.413   3.189 -0.0789 -0.1593 -0.6627
   12MOL   O28710209   8.169   7.069   3.171  0.3537  0.0012  0.3269
   12MOL   C28810210   8.197   7.013   3.050 -0.3424 -0.2557  0.2135
   12MOL   C28910211   8.115   7.032   2.936 -0.6062  0.8227 -0.0475
   12MOL   C29010212   8.158   6.976   2.808  0.3977 -0.0515  0.5065
   12MOL   C29110213   8.280   6.905   2.802  0.5758 -0.5233  0.3930
   12MOL   C29210214   8.355   6.887   2.918 -0.2031  0.2060  0.1826
   12MOL   C29310215   8.318   6.936   3.042  0.1339  0.2737  0.5103
   12MOL   C29410216   8.315   6.845   2.672  0.0478  0.5911 -0.2342
   12MOL   C29510217   8.294   6.924   2.557  0.4686 -0.3068  0.2339
   12MOL   C29610218   8.321   6.864   2.432  0.3763  0.2192 -0.2486
   12MOL   C29710219   8.366   6.729   2.425  0.0218 -0.5285 -0.0137
   12MOL   C29810220   0.024   6.646   2.540  0.3778 -0.5258  0.2347
   12MOL   C29910221   0.003   6.713   2.664 -0.2873  0.8976 -0.1125
   12MOL   O30010222   0.012   6.682   2.295  0.3057 -0.3406 -0.1451
   12MOL   H30110223   0.017   7.793   3.818  1.3348 -2.0106  2.5288
   12MOL   H30210224   0.102   7.767   3.584  0.3910  0.9280  0.4059
   12MOL   H30310225   8.212   7.421   3.527  2.1287  0.7508 -2.0928
   12MOL   H30410226   8.129   7.446   3.740  0.9312 -0.5344 -0.4037
   12MOL   H30510227   0.069   7.282   3.475 -1.1414 -0.7115  0.4004
   12MOL   H30610228   8.323   7.082   3.382 -0.3824  0.0618  0.8851
   12MOL   H30710229   8.161   7.299   3.053 -1.4511 -2.8707  0.8428
   12MOL   H30810230   8.252   7.504   3.141  0.2758  0.8158  0.9252
   12MOL   H30910231   8.024   7.086   2.957 -0.9190  0.4404 -0.4130
   12MOL   H31010232   8.104   7.004   2.719 -0.6626  0.8275  1.4196
   12MOL   H31110233   0.087   6.844   2.907 -0.2878  0.3603 -1.2478
   12MOL   H31210234   0.002   6.928   3.137  2.7945  1.4991 -0.7331
   12MOL   H31310235   8.263   7.028   2.563 -1.9624 -0.9705 -0.0351
   12MOL   H31410236   8.291   6.917   2.342 -0.5766 -1.7712 -1.1362
   12MOL   H31510237   0.048   6.541   2.533 -0.5600 -0.7931  0.9066
   12MOL   H31610238   0.021   6.665   2.759  0.9971  1.6986  0.0512
   12MOL   C31710239   0.138   6.664   2.246 -0.4709 -0.0309  0.2246
   12MOL   C31810240   0.148   6.570   2.139  1.0044 -1.2390  0.2798
   12MOL   C31910241   0.274   6.543   2.080 -0.4036  0.0309 -0.6747
   12MOL   C32010242   0.394   6.621   2.121 -0.0829  0.4221  0.0962
   12MOL   C32110243   0.378   6.711   2.231 -0.3608  0.7823  0.2129
   12MOL   C32210244   0.254   6.735   2.283  0.3467 -0.8179  0.5367
   12MOL   S32310245   0.551   6.589   2.028  0.3436 -0.0780  0.0948
   12MOL   O32410246   0.524   6.494   1.923  0.5781  0.5916 -0.2338
   12MOL   O32510247   0.640   6.553   2.135  0.3207 -0.1286 -0.3052
   12MOL   C32610248   0.605   6.742   1.957  0.4309  0.7006  0.1066
   12MOL   C32710249   0.675   6.826   2.047  0.2889  0.4556  0.0734
   12MOL   C32810250   0.744   6.942   2.005  0.4049 -0.4461  0.4858
   12MOL   C32910251   0.760   6.970   1.869  0.0220 -0.1742 -0.4692
   12MOL   C33010252   0.714   6.873   1.781 -0.0823 -0.4380  0.1707
   12MOL   C33110253   0.625   6.768   1.819  0.2237  0.8653 -0.4630
   12MOL   O33210254   0.839   7.069   1.824 -0.0493 -0.4184 -0.1707
   12MOL   C33310255   0.968   7.035   1.823 -0.1348  0.1410 -0.1933
   12MOL   C33410256   1.033   7.002   1.946 -0.2309 -0.3893  1.0519
   12MOL   C33510257   1.169   6.973   1.939 -0.1481  0.1957 -0.5264
   12MOL   C33610258   1.250   6.984   1.818 -0.0110  0.3412 -0.4685
   12MOL   C33710259   1.178   7.024   1.705 -0.3107 -0.3872  0.1290
   12MOL   C33810260   1.040   7.050   1.704 -0.5927 -0.2200 -0.0236
   12MOL   C33910261   1.389   6.955   1.813 -0.1075  0.6158 -0.5012
   12MOL   C34010262   1.440   6.834   1.869 -0.6222  0.4439  0.6447
   12MOL   C34110263   1.581   6.797   1.849 -0.8428 -0.4729 -0.4599
   12MOL   C34210264   1.668   6.897   1.800 -0.0976 -0.0756 -0.8183
   12MOL   C34310265   1.613   7.013   1.745 -0.1274 -0.7167 -0.3924
   12MOL   C34410266   1.479   7.037   1.745  0.4380  0.5766  0.4667
   12MOL   O34510267   1.800   6.871   1.807  0.0227  0.3056 -0.0656
   12MOL   H34610268   0.066   6.517   2.092 -1.3034  2.3400  0.0161
   12MOL   H34710269   0.271   6.459   2.013 -0.2646 -1.7752  1.5460
   12MOL   H34810270   0.466   6.766   2.260  2.2367 -1.4003 -3.2096
   12MOL   H34910271   0.247   6.814   2.357  1.7907 -0.1426 -0.0391
   12MOL   H35010272   0.669   6.804   2.153 -1.5933 -1.2128 -0.3514
   12MOL   H35110273   0.790   7.012   2.074  0.0825 -0.8621  1.1353
   12MOL   H35210274   0.724   6.884   1.674  0.3357 -0.8805  0.1643
   12MOL   H35310275   0.585   6.697   1.747 -0.2911  0.8107 -0.1287
   12MOL   H35410276   0.992   7.014   2.046 -1.9696 -0.8284  0.4082
   12MOL   H35510277   1.217   6.950   2.033  0.4479  2.2602 -0.3121
   12MOL   H35610278   1.224   7.028   1.607 -0.3792  2.2551  0.1602
   12MOL   H35710279   0.990   7.084   1.614 -1.7510  0.1186  0.7440
   12MOL   H35810280   1.367   6.763   1.906 -0.7213  0.4676  0.4954
   12MOL   H35910281   1.620   6.706   1.891  1.3919 -0.1702 -1.8168
   12MOL   H36010282   1.679   7.083   1.696  1.7331 -0.4461  2.3673
   12MOL   H36110283   1.436   7.115   1.684  0.3188  0.4558  0.3977
   12MOL   C36210284   1.873   6.925   1.913 -0.2580  0.2146  0.5579
   12MOL   C36310285   1.980   6.856   1.972  0.1683  0.7555 -0.2485
   12MOL   C36410286   2.056   6.906   2.081  0.3739 -0.0674  0.3959
   12MOL   C36510287   2.019   7.035   2.127  0.1266  0.7331  0.4199
   12MOL   C36610288   1.911   7.111   2.074  0.4635 -0.2569 -0.2895
   12MOL   C36710289   1.836   7.051   1.969 -0.2022 -0.1183  0.3084
   12MOL   S36810290   2.103   7.093   2.273  0.7133  0.0248  0.3863
   12MOL   O36910291   2.027   7.214   2.315 -0.0209  0.4147  0.1311
   12MOL   O37010292   2.243   7.095   2.244  0.1781  0.0263  0.2881
   12MOL   C37110293   2.073   6.966   2.401  0.7525 -0.1440  0.5356
   12MOL   C37210294   2.184   6.905   2.460  0.1580 -0.7384  0.1781
   12MOL   C37310295   2.158   6.817   2.565 -0.2991  0.5455 -0.1549
   12MOL   C37410296   2.029   6.779   2.603 -0.0056 -0.2891 -0.4790
   12MOL   C37510297   1.919   6.849   2.540  0.0207 -0.6553  0.0281
   12MOL   C37610298   1.943   6.945   2.440  0.2312  0.3384  0.3139
   12MOL   O37710299   2.017   6.687   2.705 -0.2281 -0.3886 -0.4199
   12MOL   C37810300   1.913   6.709   2.790 -0.7314 -0.1020  0.3677
   12MOL   C37910301   1.903   6.825   2.865 -0.4740 -0.0331  0.6018
   12MOL   C38010302   1.800   6.845   2.957  0.6254  0.4206 -0.3871
   12MOL   C38110303   1.695   6.745   2.967 -0.8256  0.4943  0.1125
   12MOL   C38210304   1.702   6.628   2.886  0.4565 -0.0170 -0.2900
   12MOL   C38310305   1.808   6.612   2.803 -0.7180  0.4612  0.0955
   12MOL   C38410306   1.582   6.774   3.052  0.3180 -0.0219 -0.1691
   12MOL   C38510307   1.595   6.812   3.191 -0.2148  0.8939 -0.7278
   12MOL   C38610308   1.478   6.842   3.267  0.6030 -0.0749 -0.2721
   12MOL   C38710309   1.353   6.822   3.203 -0.6697 -0.9733 -0.4268
   12MOL   C38810310   1.339   6.780   3.070 -0.1749 -0.6083  0.2414
   12MOL   C38910311   1.454   6.758   2.993  0.7336  0.5485 -0.2033
   12MOL   O39010312   1.244   6.837   3.279 -0.1022  0.1496 -0.4137
   12MOL   H39110313   2.019   6.769   1.921 -3.5062 -0.0095 -1.9559
   12MOL   H39210314   2.140   6.861   2.130 -0.6818  1.3942  3.7091
   12MOL   H39310315   1.878   7.208   2.109  0.2652 -0.1282 -0.8391
   12MOL   H39410316   1.759   7.117   1.932  0.9622  0.2558 -1.4913
   12MOL   H39510317   2.285   6.925   2.426 -0.3273 -0.5407 -1.1815
   12MOL   H39610318   2.244   6.765   2.606  0.5995  1.2113 -1.1703
   12MOL   H39710319   1.820   6.831   2.578 -0.5772  1.7860 -0.2975
   12MOL   H39810320   1.857   6.993   2.396 -0.6897 -0.0263  1.6907
   12MOL   H39910321   1.978   6.903   2.861  2.0763 -2.3186  2.3535
   12MOL   H40010322   1.788   6.939   3.008  1.5288  0.7583 -0.7873
   12MOL   H40110323   1.623   6.555   2.886 -1.9337  2.4461  2.6174
   12MOL   H40210324   1.817   6.518   2.750  2.4581  0.8128 -0.0808
   12MOL   H40310325   1.690   6.843   3.231  0.8651 -1.3070 -1.5605
   12MOL   H40410326   1.475   6.873   3.370 -2.3310  1.5573 -0.7914
   12MOL   H40510327   1.243   6.772   3.021  0.6582  1.0908 -1.7264
   12MOL   H40610328   1.452   6.721   2.891 -1.1109  0.8041 -0.2823
   12MOL   C40710329   1.181   6.954   3.278  0.6946 -0.1246 -0.9438
   12MOL   C40810330   1.122   7.016   3.163  0.3581  0.3367 -0.2813
   12MOL   C40910331   1.059   7.140   3.169  0.1058  0.2661 -0.4022
   12MOL   C41010332   1.050   7.197   3.295 -0.2952 -0.2428 -0.2450
   12MOL   C41110333   1.096   7.135   3.412 -0.2350 -0.0212 -0.1036
   12MOL   C41210334   1.175   7.017   3.400  0.1734 -0.8589 -0.1088
   12MOL   S41310335   0.962   7.351   3.294 -0.3158 -0.2979 -0.1380
   12MOL   O41410336   0.897   7.357   3.426 -0.3524 -0.0829  0.3523
   12MOL   O41510337   0.877   7.358   3.176 -0.6564  0.2045  0.2684
   12MOL   C41610338   1.073   7.491   3.274 -0.1803 -0.7230  0.3874
   12MOL   C41710339   1.031   7.617   3.305 -0.0854  0.5621 -0.1303
   12MOL   C41810340   1.111   7.728   3.284 -0.3013  0.0429 -0.3918
   12MOL   C41910341   1.244   7.706   3.238 -0.1468  0.2134 -0.7224
   12MOL   C42010342   1.293   7.575   3.213 -0.2052 -0.5261  0.3763
   12MOL   C42110343   1.203   7.465   3.227 -0.4485 -0.6100 -0.0426
   12MOL   O42210344   1.324   7.818   3.216  0.2335  0.3487  0.3734
   12MOL   C42310345   1.395   7.818   3.098  0.4830  0.3208  0.8931
   12MOL   C42410346   1.321   7.865   2.989  0.7951  0.5812 -0.2210
   12MOL   C42510347   1.379   7.872   2.862 -0.3414 -0.0396 -0.1132
   12MOL   C42610348   1.504   7.808   2.845 -0.4478 -0.5684 -0.3790
   12MOL   C42710349   1.576   7.750   2.955 -0.0430  0.1259 -0.0907
   12MOL   C42810350   1.520   7.764   3.085 -0.4122 -0.2270  0.4895
   12MOL   C42910351   1.557   7.791   2.709 -0.1655 -0.6720 -0.5023
   12MOL   C43010352   1.533   7.668   2.645 -0.1526  0.3724  0.0774
   12MOL   C43110353   1.593   7.643   2.516  0.4182  0.4905  0.5019
   12MOL   C43210354   1.675   7.748   2.464 -0.0250  0.9125  0.5521
   12MOL   C43310355   1.696   7.865   2.531 -0.0569 -0.9242 -0.0771
   12MOL   C43410356   1.640   7.895   2.658 -0.1802  0.6544 -0.0634
   12MOL   O43510357   1.731   7.713   2.341 -0.2885  0.2069  0.5371
   12MOL   H43610358   1.123   6.966   3.067  1.5711 -1.0533  0.4220
   12MOL   H43710359   1.013   7.181   3.081  0.1928  1.1384 -0.0545
   12MOL   H43810360   1.086   7.181   3.509 -0.1506 -0.5060  0.1344
   12MOL   H43910361   1.219   6.980   3.492 -1.8041  0.3874  1.3639
   12MOL   H44010362   0.925   7.628   3.323 -0.1954  1.0924 -1.0349
   12MOL   H44110363   1.071   7.826   3.304 -0.3357 -0.4272  1.9399
   12MOL   H44210364   1.396   7.548   3.195 -0.0638 -0.4256  0.9900
   12MOL   H44310365   1.221   7.363   3.196 -0.1213 -0.3080 -0.8573
   12MOL   H44410366   1.222   7.907   2.996  0.3715 -0.4350 -0.0127
   12MOL   H44510367   1.318   7.901   2.778 -0.4743 -0.9041 -0.3280
   12MOL   H44610368   1.671   7.700   2.940 -0.3174 -1.1476  2.2740
   12MOL   H44710369   1.582   7.734   3.169  1.6027  1.4029 -0.3832
   12MOL   H44810370   1.469   7.590   2.683  0.1327 -0.7333 -1.6611
   12MOL   H44910371   1.582   7.552   2.458  1.6829 -0.2752  1.4194
   12MOL   H45010372   1.768   7.938   2.498  0.1738  0.1537  2.6673
   12MOL   H45110373   1.670   7.983   2.713 -1.5774 -0.0887  1.9689
   12MOL   C45210374   1.871   7.705   2.332 -0.0080  0.4963  0.2996
   12MOL   C45310375   1.957   7.777   2.246 -0.5778  0.1904  0.6333
   12MOL   C45410376   2.096   7.752   2.242 -0.5700  0.1307 -0.7218
   12MOL   C45510377   2.149   7.665   2.344  0.0316 -0.3707  0.7663
   12MOL   C45610378   2.066   7.603   2.439 -0.7368 -0.7365  0.1906
   12MOL   C45710379   1.926   7.615   2.431 -0.4586  0.1886  0.3421
   12MOL   S45810380   2.320   7.620   2.341 -0.1595 -0.0566 -0.0022
   12MOL   O45910381   2.354   7.543   2.465 -0.3936  0.0490 -0.7053
   12MOL   O46010382   2.402   7.738   2.308 -0.5059  0.6809 -0.4180
   12MOL   C46110383   2.343   7.510   2.200  0.9439 -0.1274 -0.1235
   12MOL   C46210384   2.470   7.488   2.142 -0.1764 -0.6780 -0.1143
   12MOL   C46310385   2.493   7.368   2.066 -1.1001 -0.4328  0.8908
   12MOL   C46410386   2.387   7.286   2.032 -0.3868 -0.1985  0.5317
   12MOL   C46510387   2.258   7.329   2.063 -0.2775  0.4845  0.9754
   12MOL   C46610388   2.235   7.436   2.146  0.2110  0.3313 -0.4672
   12MOL   O46710389   2.404   7.166   1.975 -0.0772  0.2517 -0.1092
   12MOL   C46810390   2.443   7.056   2.050 -1.0003  0.0466  0.1490
   12MOL   C46910391   2.395   6.926   2.015  0.6020 -0.3774 -0.6133
   12MOL   C47010392   2.422   6.812   2.093  0.2741 -0.4491  0.7054
   12MOL   C47110393   2.507   6.821   2.205  0.6256  0.1229 -0.1854
   12MOL   C47210394   2.559   6.948   2.240 -0.1069  0.4750 -0.1097
   12MOL   C47310395   2.530   7.060   2.155  0.2431 -0.6568  0.2969
   12MOL   C47410396   2.531   6.697   2.290 -0.4175  0.1611  0.0571
   12MOL   C47510397   2.435   6.604   2.325 -0.1136  0.6164 -0.1853
   12MOL   C47610398   2.475   6.487   2.395 -0.0295 -0.2116  0.2524
   12MOL   C47710399   2.607   6.464   2.431  0.1208  0.6958 -0.6334
   12MOL   C47810400   2.704   6.561   2.405 -0.3199  0.3541  0.0383
   12MOL   C47910401   2.657   6.680   2.343 -1.0215  0.1778 -0.2491
   12MOL   O48010402   2.645   6.336   2.475 -0.0948 -0.4110 -0.0433
   12MOL   H48110403   1.918   7.857   2.185  1.4146  0.8714  0.2095
   12MOL   H48210404   2.147   7.804   2.163 -0.9964  0.4539 -0.7872
   12MOL   H48310405   2.105   7.543   2.520  0.9349  0.6236  0.4220
   12MOL   H48410406   1.862   7.558   2.497 -0.7624 -1.4602 -1.3241
   12MOL   H48510407   2.557   7.540   2.181  0.4446 -2.9492  1.6561
   12MOL   H48610408   2.593   7.336   2.043 -1.2007 -0.2173  0.1554
   12MOL   H48710409   2.170   7.270   2.041  0.7968 -1.0773  0.7463
   12MOL   H48810410   2.134   7.450   2.179 -0.0851  1.1535 -1.6849
   12MOL   H48910411   2.334   6.919   1.926  0.6821 -1.5418 -0.5779
   12MOL   H49010412   2.382   6.715   2.067 -2.3411  0.5925  0.6254
   12MOL   H49110413   2.605   6.962   2.337 -0.7452  0.6162  0.1812
   12MOL   H49210414   2.565   7.158   2.184 -0.2101 -0.0971 -0.9788
   12MOL   H49310415   2.330   6.615   2.305  0.2063  1.7339 -1.2973
   12MOL   H49410416   2.411   6.407   2.428  1.9528 -1.4945  1.0495
   12MOL   H49510417   2.809   6.563   2.429 -0.2925  1.0367 -0.1173
   12MOL   H49610418   2.736   6.748   2.314 -0.6661 -1.4514 -3.2690
   12MOL   C49710419   2.621   6.230   2.393 -0.4683 -0.1677  0.4916
   12MOL   C49810420   2.649   6.234   2.258 -0.1645 -0.9377  0.0810
   12MOL   C49910421   2.637   6.119   2.174 -0.0923 -0.5333  0.3331
   12MOL   C50010422   2.605   5.995   2.236  0.0312 -0.2977 -0.3516
   12MOL   C50110423   2.573   5.992   2.376 -0.0931 -0.4443  0.7043
   12MOL   C50210424   2.587   6.109   2.457  0.4283  0.4582 -0.3937
   12MOL   S50310425   2.587   5.852   2.127 -0.0892  0.1958 -0.0070
   12MOL   O50410426   2.717   5.792   2.103  0.2941 -0.0818  1.1911
   12MOL   O50510427   2.517   5.890   2.004 -0.1480  0.0232  0.3299
   12MOL   C50610428   2.492   5.732   2.216 -0.2452 -0.6294 -0.1053
   12MOL   C50710429   2.356   5.747   2.232 -0.4643  0.0644  0.5189
   12MOL   C50810430   2.291   5.666   2.326 -0.3497 -0.5193 -0.4274
   12MOL   C50910431   2.359   5.557   2.392  0.1973 -0.4801 -0.1068
   12MOL   C51010432   2.495   5.534   2.368 -0.3824 -0.2516  0.0122
   12MOL   C51110433   2.563   5.623   2.279  0.1660 -1.0350  0.4882
   12MOL   O51210434   2.282   5.478   2.477 -0.3691  0.7217  0.1514
   12MOL   C51310435   2.207   5.381   2.423  0.0446 -0.0216  0.2246
   12MOL   C51410436   2.261   5.267   2.373  0.0917  0.6313 -0.0550
   12MOL   C51510437   2.187   5.167   2.312  0.5147  0.0877 -0.0977
   12MOL   C51610438   2.046   5.171   2.315  1.3200  0.3524  0.2584
   12MOL   C51710439   1.983   5.286   2.361 -1.0058 -0.1087 -0.3760
   12MOL   C51810440   2.064   5.391   2.410 -0.0196  0.8509 -0.5042
   12MOL   C51910441   1.971   5.072   2.235  0.2020  0.2288 -0.2630
   12MOL   C52010442   1.863   4.999   2.288  0.0714 -0.9974  0.5491
   12MOL   C52110443   1.792   4.914   2.203 -0.7680 -0.1562 -0.7316
   12MOL   C52210444   1.832   4.892   2.065  0.5984  0.0579  0.4949
   12MOL   C52310445   1.933   4.976   2.012 -0.0869  0.4902  0.6421
   12MOL   C52410446   2.011   5.054   2.094  0.0782 -0.0241 -0.6422
   12MOL   O52510447   1.791   4.797   1.977  0.2357 -0.3482 -0.3322
   12MOL   H52610448   2.683   6.329   2.219 -2.9712 -0.7488 -2.0854
   12MOL   H52710449   2.671   6.135   2.073  0.5959 -0.3905  0.5890
   12MOL   H52810450   2.533   5.903   2.424 -2.1035 -0.1605 -0.4123
   12MOL   H52910451   2.557   6.102   2.561  1.1308  0.6095 -0.1776
   12MOL   H53010452   2.301   5.827   2.185  2.0898  0.0125 -2.7823
   12MOL   H53110453   2.189   5.688   2.353 -0.5335 -1.7605 -0.0646
   12MOL   H53210454   2.558   5.459   2.415 -1.0346 -0.9246 -0.1756
   12MOL   H53310455   2.665   5.596   2.257  1.1220  2.3535  0.5455
   12MOL   H53410456   2.368   5.251   2.380  0.3478  1.9200 -0.8372
   12MOL   H53510457   2.231   5.078   2.269  3.9331  0.0260  3.1473
   12MOL   H53610458   1.876   5.295   2.354 -1.1171 -0.0758  1.1860
   12MOL   H53710459   2.009   5.473   2.454 -0.0569  0.7739 -0.4075
   12MOL   H53810460   1.825   5.012   2.389  0.4615  2.2830  0.3051
   12MOL   H53910461   1.706   4.864   2.244 -0.6682 -0.6436 -1.1084
   12MOL   H54010462   1.957   4.968   1.907  1.3686  1.4657  0.8888
   12MOL   H54110463   2.090   5.119   2.058 -0.5983  1.3504  0.3151
   12MOL   C54210464   1.798   4.674   2.040  0.3180  0.3650  0.0165
   12MOL   C54310465   1.687   4.617   2.104  0.5178 -0.2609  0.5698
   12MOL   C54410466   1.697   4.491   2.162 -0.5658  0.2173  0.4587
   12MOL   C54510467   1.822   4.420   2.150  0.1783 -0.8653  0.5395
   12MOL   C54610468   1.936   4.482   2.090  0.3640 -0.0214 -0.3179
   12MOL   C54710469   1.924   4.611   2.044  0.4751 -0.7385  0.1841
   12MOL   S54810470   1.825   4.254   2.208  0.3545  0.2181  0.0535
   12MOL   O54910471   1.718   4.228   2.303  0.5326  0.1721 -0.3148
   12MOL   O55010472   1.965   4.231   2.252  0.6914 -0.0831  0.1143
   12MOL   C55110473   1.800   4.145   2.063  0.4990 -0.0092  0.2001
   12MOL   C55210474   1.906   4.138   1.971  0.4780 -0.4309 -0.9255
   12MOL   C55310475   1.891   4.054   1.859 -0.2604 -0.1605 -0.0136
   12MOL   C55410476   1.770   3.984   1.834  0.0722 -0.6021  0.1815
   12MOL   C55510477   1.671   3.995   1.933  0.3037  0.2345  0.1720
   12MOL   C55610478   1.681   4.076   2.044 -0.3624 -0.3784  0.4943
   12MOL   O55710479   1.754   3.912   1.723  0.2157  0.2129 -0.2777
   12MOL   C55810480   1.684   3.964   1.622 -0.4333 -0.8839  0.8540
   12MOL   C55910481   1.556   3.921   1.594 -0.4388 -0.0502  0.0044
   12MOL   C56010482   1.492   3.971   1.479  0.0503  0.0614 -0.7165
   12MOL   C56110483   1.554   4.061   1.395 -0.1826  0.4892  0.7379
   12MOL   C56210484   1.682   4.109   1.431  0.0527  0.5072 -0.5581
   12MOL   C56310485   1.748   4.060   1.542 -0.5249  0.0858  0.0325
   12MOL   C56410486   1.494   4.107   1.268 -0.3601 -0.4110 -0.4128
   12MOL   C56510487   1.575   4.130   1.158 -0.1175 -0.2813  0.2257
   12MOL   C56610488   1.523   4.180   1.034  0.3303 -0.2014  0.0674
   12MOL   C56710489   1.381   4.178   1.009  0.3141 -0.1609  0.2120
   12MOL   C56810490   1.296   4.145   1.116  0.0474 -0.5807  0.1024
   12MOL   C56910491   1.353   4.119   1.245  0.4639 -0.5179  0.0360
   12MOL   O57010492   1.316   4.215   0.894 -0.0812 -0.2449  0.0262
   12MOL   H57110493   1.598   4.676   2.119  0.5246  0.0532 -0.5569
   12MOL   H57210494   1.613   4.454   2.218  0.1230 -1.1641  0.5878
   12MOL   H57310495   2.029   4.428   2.097  1.3972  1.6720 -0.6907
   12MOL   H57410496   2.010   4.653   1.994  0.2741  1.6933  1.8123
   12MOL   H57510497   1.998   4.194   1.982  0.6197 -0.6838 -0.7962
   12MOL   H57610498   1.969   4.048   1.784  2.2145 -1.8953  2.6226
   12MOL   H57710499   1.581   3.943   1.903  0.0323  0.0798  1.2667
   12MOL   H57810500   1.591   4.088   2.101  0.0995 -1.2394  1.4149
   12MOL   H57910501   1.505   3.846   1.653 -0.2818  1.5987  2.2879
   12MOL   H58010502   1.388   3.946   1.459 -0.7701  2.8078 -0.0848
   12MOL   H58110503   1.728   4.188   1.373  0.7911  0.2476 -0.3374
   12MOL   H58210504   1.842   4.098   1.578 -0.5674  0.3380 -0.1158
   12MOL   H58310505   1.682   4.130   1.173 -0.0190  0.8059 -0.4187
   12MOL   H58410506   1.591   4.202   0.953 -0.6820 -0.0529 -0.7615
   12MOL   H58510507   1.190   4.145   1.099  0.0582  0.3962 -0.0241
   12MOL   H58610508   1.283   4.097   1.324  0.2654 -0.5062 -0.1356
   12MOL   C58710509   1.384   4.265   0.784  1.0045  0.2572  0.0163
   12MOL   C58810510   1.472   4.184   0.714 -0.5834 -0.2342  1.0787
   12MOL   C58910511   1.530   4.219   0.586 -0.6998 -1.2052 -0.3046
   12MOL   C59010512   1.488   4.341   0.530 -1.2540 -0.6957 -0.4089
   12MOL   C59110513   1.417   4.436   0.607 -0.0680 -0.5484  0.1005
   12MOL   C59210514   1.367   4.396   0.730  0.6365 -0.1740  0.3359
   12MOL   S59310515   1.525   4.378   0.360  0.0797 -0.1169  0.2016
   12MOL   O59410516   1.628   4.286   0.317  0.4625  0.3891  0.3420
   12MOL   O59510517   1.537   4.524   0.343 -0.8480 -0.3792 -0.0185
   12MOL   C59610518   1.380   4.332   0.266 -0.3351  0.4890  0.1448
   12MOL   C59710519   1.392   4.291   0.133  0.3352  0.2157  0.6381
   12MOL   C59810520   1.279   4.247   0.059  0.4386 -1.1285  0.1987
   12MOL   C59910521   1.148   4.261   0.118  0.5671 -0.1422 -0.3687
   12MOL   C60010522   1.136   4.323   0.245  0.4417 -0.3091 -0.1565
   12MOL   C60110523   1.252   4.352   0.320 -0.3693  1.1755  0.3101
   12MOL   O60210524   1.034   4.212   0.055  0.0521 -0.0669 -0.0191
   12MOL   C60310525   1.014   4.074   0.065 -0.7729 -0.4966 -0.3075
   12MOL   C60410526   0.951   4.023   0.179  0.6459 -0.5247  0.1721
   12MOL   C60510527   0.938   3.882   0.192 -0.4613  0.2698 -0.2285
   12MOL   C60610528   0.968   3.798   0.075  0.1171  0.3529 -0.2096
   12MOL   C60710529   1.026   3.854   8.327  1.1208  0.6595 -0.3099
   12MOL   C60810530   1.047   3.996   8.325 -0.6565  0.3127 -0.6550
   12MOL   C60910531   0.918   3.658   0.082  0.3995 -0.0196  0.0363
   12MOL   C61010532   0.853   3.605   8.337 -0.3036  0.0650 -0.9282
   12MOL   C61110533   0.819   3.470   8.342 -0.1625 -0.0733 -0.3577
   12MOL   C61210534   0.854   3.392   0.087  0.3252  0.1046  0.3720
   12MOL   C61310535   0.924   3.443   0.198  0.2656 -0.0095 -0.1419
   12MOL   C61410536   0.952   3.580   0.195 -0.4308  0.0042  0.5748
   12MOL   O61510537   0.815   3.262   0.082  0.4522 -1.0936 -0.2788
   12MOL   H61610538   1.493   4.084   0.750 -0.4599 -0.0847  1.4297
   12MOL   H61710539   1.582   4.146   0.526 -0.9588 -1.1528 -0.5873
   12MOL   H61810540   1.404   4.534   0.564 -0.8508  0.1422  1.8366
   12MOL   H61910541   1.306   4.467   0.783  0.6296  0.4331 -0.4818
   12MOL   H62010542   1.490   4.291   0.086 -1.1009 -0.0461 -2.4955
   12MOL   H62110543   1.291   4.202   8.328 -2.4206  0.4118 -0.9442
   12MOL   H62210544   1.040   4.336   0.293 -0.4379  2.5483 -2.5514
   12MOL   H62310545   1.246   4.394   0.420 -0.5911  1.9672 -0.0376
   12MOL   H62410546   0.907   4.081   0.258 -0.5963 -1.7508  0.4042
   12MOL   H62510547   0.888   3.840   0.278 -1.2099 -0.6019 -1.0698
   12MOL   H62610548   1.047   3.791   8.241 -1.0287 -0.9089  0.2649
   12MOL   H62710549   1.078   4.047   8.235  1.0661  0.9468  0.2540
   12MOL   H62810550   0.837   3.664   8.249  0.4063  2.0869  0.2696
   12MOL   H62910551   0.756   3.428   8.264 -1.8449  1.7801 -0.0361
   12MOL   H63010552   0.952   3.382   0.283  0.6998  0.0169 -0.2649
   12MOL   H63110553   1.007   3.627   0.275  0.2343 -1.6630  1.1334
   12MOL   C63210554   0.909   3.161   0.072  0.8439  0.2304  0.0045
   12MOL   C63310555   0.872   3.034   0.112  0.7498  0.3236 -0.1867
   12MOL   C63410556   0.966   2.930   0.117 -0.3861  0.3274  0.3977
   12MOL   C63510557   1.101   2.947   0.072  0.4704 -0.1591  0.4708
   12MOL   C63610558   1.136   3.072   0.027 -0.1626 -0.5523 -0.1496
   12MOL   C63710559   1.042   3.177   0.031 -0.1607 -0.7205 -0.4794
   12MOL   S63810560   1.229   2.817   0.069  0.0437  0.1757  0.1114
   12MOL   O63910561   1.342   2.860   0.147  0.1876  0.2718 -0.0676
   12MOL   O64010562   1.251   2.775   8.292  0.3299 -0.4057  0.0791
   12MOL   C64110563   1.153   2.671   0.148  0.2750  0.0535 -0.1933
   12MOL   C64210564   1.166   2.651   0.287  0.6800 -0.0092  0.2577
   12MOL   C64310565   1.132   2.527   0.338 -0.2513  0.0316 -0.2446
   12MOL   C64410566   1.063   2.435   0.259 -0.4602  0.7513  0.3544
   12MOL   C64510567   1.037   2.461   0.124  0.3807  0.4550  0.7902
   12MOL   C64610568   1.088   2.577   0.069 -0.2180 -0.1351  0.1256
   12MOL   O64710569   0.997   2.329   0.320  0.2504  0.0077  0.6565
   12MOL   C64810570   1.054   2.241   0.410 -0.5244 -0.1745  0.2217
   12MOL   C64910571   0.980   2.187   0.515  0.7766 -0.2238 -0.2661
   12MOL   C65010572   1.042   2.100   0.608 -0.6109 -0.2167 -0.7355
   12MOL   C65110573   1.179   2.074   0.600  0.0316 -0.6287 -0.4003
   12MOL   C65210574   1.258   2.135   0.492  0.1718 -0.0075 -0.4966
   12MOL   C65310575   1.193   2.218   0.398 -0.2002  0.1930 -0.1155
   12MOL   C65410576   1.235   1.971   0.689 -0.1098  0.1176  0.3021
   12MOL   C65510577   1.193   1.952   0.829 -0.7994 -0.0007  0.7038
   12MOL   C65610578   1.256   1.856   0.907  0.2016  0.4396 -0.2278
   12MOL   C65710579   1.349   1.764   0.848 -0.0081 -0.3678  0.3672
   12MOL   C65810580   1.386   1.780   0.715 -0.3616 -0.5954 -0.1972
   12MOL   C65910581   1.327   1.876   0.633  0.3196 -0.5231  0.3045
   12MOL   O66010582   1.398   1.660   0.930  0.2588  0.8014  0.4012
   12MOL   H66110583   0.772   3.004   0.139  0.6139  0.9970  0.0610
   12MOL   H66210584   0.932   2.831   0.144  0.0142  0.7058  2.4213
   12MOL   H66310585   1.238   3.087   8.361 -0.5124  1.2241 -0.5063
   12MOL   H66410586   1.076   3.275   8.365  0.3416 -0.2164  1.5667
   12MOL   H66510587   1.213   2.728   0.346 -0.8441  0.9936  0.1988
   12MOL   H66610588   1.143   2.502   0.443 -0.0138 -1.0115 -0.5104
   12MOL   H66710589   0.973   2.403   0.058  1.7620 -0.2111  0.0265
   12MOL   H66810590   1.068   2.603   8.332  0.7339  0.0032 -0.0347
   12MOL   H66910591   0.875   2.207   0.532 -0.1215 -5.5969  1.2610
   12MOL   H67010592   0.985   2.055   0.689  1.5614 -0.0873  0.9252
   12MOL   H67110593   1.355   2.094   0.468  0.2961 -0.6573  1.0416
   12MOL   H67210594   1.245   2.262   0.315  1.6471  0.0071  0.9370
   12MOL   H67310595   1.116   2.013   0.874 -1.3952 -0.7392  0.7047
   12MOL   H67410596   1.229   1.854   1.012 -2.2499  0.2949 -0.8190
   12MOL   H67510597   1.449   1.709   0.664  0.2065 -1.2569  1.3943
   12MOL   H67610598   1.348   1.862   0.528  1.6051  0.6812  0.3983
   12MOL   C67710599   1.311   1.561   0.966 -0.0006  0.7788 -0.1182
   12MOL   C67810600   1.264   1.466   0.874 -0.0047  0.6641  0.0987
   12MOL   C67910601   1.207   1.347   0.921  1.1688  0.3572 -0.2632
   12MOL   C68010602   1.185   1.327   1.062 -0.3746  0.1950  0.4300
   12MOL   C68110603   1.228   1.425   1.148  0.1492 -0.8129  0.5153
   12MOL   C68210604   1.289   1.540   1.105  0.4298 -0.2142  0.2965
   12MOL   S68310605   1.131   1.173   1.121 -0.1974 -0.0177  0.1103
   12MOL   O68410606   1.202   1.157   1.250  0.5182  0.1453  0.2073
   12MOL   O68510607   1.137   1.077   1.011  0.2770 -0.3472 -0.2434
   12MOL   C68610608   0.957   1.198   1.156  0.9991  0.0724 -0.9759
   12MOL   C68710609   0.870   1.091   1.119  0.7805 -0.4221 -0.1402
   12MOL   C68810610   0.730   1.109   1.134  1.3516  0.6621 -0.4127
   12MOL   C68910611   0.671   1.231   1.183  0.1931  0.8027  0.8385
   12MOL   C69010612   0.759   1.333   1.207 -0.3876 -0.1120 -0.7846
   12MOL   C69110613   0.898   1.316   1.192 -0.2039 -0.0068  0.0963
   12MOL   O69210614   0.532   1.239   1.199  0.0030  0.4904  0.6160
   12MOL   C69310615   0.494   1.266   1.327 -0.1237 -0.3286  0.4347
   12MOL   C69410616   0.455   1.396   1.365  0.2225 -0.3703 -0.0618
   12MOL   C69510617   0.406   1.422   1.495 -0.2697  0.0192 -0.2414
   12MOL   C69610618   0.380   1.319   1.590  0.4280  0.8069  0.1256
   12MOL   C69710619   0.412   1.186   1.551  0.1798  0.1469 -0.7009
   12MOL   C69810620   0.468   1.164   1.420 -0.6164  0.2134 -0.6342
   12MOL   C69910621   0.327   1.357   1.721 -0.2548 -0.1317  0.0813
   12MOL   C70010622   0.200   1.430   1.736 -0.2746  0.4414 -0.2252
   12MOL   C70110623   0.148   1.453   1.870 -0.3815 -0.6465  0.4261
   12MOL   C70210624   0.222   1.416   1.979  0.8865 -0.9633 -0.4689
   12MOL   C70310625   0.337   1.337   1.965  0.3195 -0.4591 -0.0057
   12MOL   C70410626   0.395   1.310   1.840 -1.0564 -0.4228  0.4832
   12MOL   O70510627   0.177   1.468   2.100  0.4138 -0.0388  0.1123
   12MOL   H70610628   1.286   1.481   0.769 -1.4750  0.2704 -0.2781
   12MOL   H70710629   1.192   1.264   0.854 -1.2902  0.2607  0.3654
   12MOL   H70810630   1.215   1.409   1.253 -1.1428  0.7850  0.6252
   12MOL   H70910631   1.324   1.612   1.178 -0.1857  0.3560  0.0385
   12MOL   H71010632   0.916   0.997   1.092  1.9256 -0.4599  1.8866
   12MOL   H71110633   0.661   1.029   1.112  0.1444  1.9738 -1.5091
   12MOL   H71210634   0.731   1.433   1.235 -1.0134 -0.5947  0.3264
   12MOL   H71310635   0.966   1.397   1.217 -0.2476 -0.3992  1.4885
   12MOL   H71410636   0.478   1.478   1.297 -0.6353  0.4378  0.6104
   12MOL   H71510637   0.387   1.525   1.522  1.4139  0.5039 -0.8669
   12MOL   H71610638   0.404   1.106   1.623 -1.9158  1.1487  0.1873
   12MOL   H71710639   0.494   1.068   1.377 -0.7815  0.7291 -1.8934
   12MOL   H71810640   0.142   1.455   1.649 -3.1808  1.5943  1.9529
   12MOL   H71910641   0.047   1.490   1.876 -1.1606 -2.3567 -1.7657
   12MOL   H72010642   0.389   1.304   2.054 -0.2585  1.2238  0.9932
   12MOL   H72110643   0.488   1.258   1.826  0.8256  3.0778 -0.6935
   12MOL   C72210644   0.123   1.384   2.192 -0.0225 -0.4662  0.2332
   12MOL   C72310645   0.186   1.379   2.320 -0.6707  0.1604 -0.6661
   12MOL   C72410646   0.130   1.301   2.424  0.2680 -0.0833 -0.6270
   12MOL   C72510647   0.018   1.221   2.398 -0.0665 -1.0691  0.4661
   12MOL   C72610648   8.327   1.228   2.269  1.0327  0.0513  0.3723
   12MOL   C72710649   0.005   1.310   2.164 -0.2943  0.0957 -0.2543
   12MOL   S72810650   8.316   1.112   2.524  0.5715 -0.1048  0.0250
   12MOL   O72910651   8.211   1.028   2.466  0.6598  0.1735  0.0022
   12MOL   O73010652   8.284   1.186   2.652 -0.5440 -0.5674 -0.0418
   12MOL   C73110653   0.086   1.002   2.553 -0.6508  0.4095 -0.1574
   12MOL   C73210654   0.109   0.896   2.463 -0.0747  0.3986 -0.4659
   12MOL   C73310655   0.224   0.806   2.484  0.0571  0.0554  0.4800
   12MOL   C73410656   0.311   0.833   2.591  0.1542  0.5772  0.2884
   12MOL   C73510657   0.276   0.943   2.683 -0.2516  0.0466  0.3319
   12MOL   C73610658   0.170   1.027   2.658  0.1514  0.1591  0.3682
   12MOL   O73710659   0.414   0.740   2.607  0.3598  0.2985 -0.2521
   12MOL   C73810660   0.542   0.780   2.577 -0.5652 -0.1887  0.2880
   12MOL   C73910661   0.626   0.848   2.671  0.1391  0.1972 -0.6997
   12MOL   C74010662   0.754   0.896   2.635 -0.0637  0.1351 -0.6833
   12MOL   C74110663   0.804   0.873   2.504  0.0308  0.0776 -0.5616
   12MOL   C74210664   0.721   0.809   2.413  0.2803  0.4178  0.7137
   12MOL   C74310665   0.592   0.766   2.441  0.3101  0.9932  0.0369
   12MOL   C74410666   0.934   0.925   2.464  0.6442  0.5128  0.5461
   12MOL   C74510667   0.963   1.062   2.479 -0.1063  0.0981 -1.1604
   12MOL   C74610668   1.085   1.114   2.434  0.2354 -0.2213 -0.5032
   12MOL   C74710669   1.179   1.021   2.378 -0.4400  0.0631  0.0256
   12MOL   C74810670   1.153   0.887   2.359 -0.3842 -0.5567 -0.0602
   12MOL   C74910671   1.023   0.844   2.396 -0.3611  0.0486 -0.1066
   12MOL   O75010672   1.306   1.060   2.339  0.0034 -0.3295  0.0591
   12MOL   H75110673   0.276   1.436   2.333 -1.5921  1.2467  1.0733
   12MOL   H75210674   0.167   1.306   2.525 -0.2950 -0.5332 -0.3970
   12MOL   H75310675   8.241   1.164   2.254 -0.2431  1.9760 -0.7619
   12MOL   H75410676   8.319   1.307   2.069  0.0676 -1.7594 -0.4221
   12MOL   H75510677   0.039   0.890   2.381 -1.7130  1.7203  0.7974
   12MOL   H75610678   0.253   0.734   2.409 -1.6931  0.6566 -0.8142
   12MOL   H75710679   0.340   0.959   2.768 -0.2180 -2.3467  0.7878
   12MOL   H75810680   0.150   1.108   2.726 -0.5370 -0.4404  0.8966
   12MOL   H75910681   0.601   0.866   2.774 -0.1902 -0.5192 -0.6515
   12MOL   H76010682   0.816   0.954   2.702 -0.3025  0.2372 -0.5511
   12MOL   H76110683   0.749   0.792   2.310  2.8518 -1.7941  1.7110
   12MOL   H76210684   0.536   0.730   2.356 -1.3496 -0.5717  1.7429
   12MOL   H76310685   0.890   1.121   2.533 -0.1205 -3.4925  3.0045
   12MOL   H76410686   1.116   1.215   2.453  0.2003  0.0109 -1.6344
   12MOL   H76510687   1.230   0.823   2.320  1.6604  2.2239 -0.7401
   12MOL   H76610688   0.992   0.742   2.380  0.3039  0.0291 -1.2962
   12MOL   C76710689   1.376   1.150   2.421  0.2224  0.1242  0.6861
   12MOL   C76810690   1.471   1.097   2.508  0.3523  0.0402  0.3050
   12MOL   C76910691   1.545   1.181   2.597 -0.0582  0.2488 -1.1361
   12MOL   C77010692   1.530   1.318   2.587 -0.4648 -0.2226 -0.0094
   12MOL   C77110693   1.433   1.374   2.504 -0.0940  1.0276 -0.2225
   12MOL   C77210694   1.358   1.289   2.415  0.1106 -0.6077 -0.1323
   12MOL   S77310695   1.632   1.434   2.680  0.2669  0.2288  0.0669
   12MOL   O77410696   1.683   1.542   2.593  0.8704  0.2450 -0.0106
   12MOL   O77510697   1.720   1.353   2.765 -0.2400 -0.2087  0.1994
   12MOL   C77610698   1.516   1.523   2.790  0.8687 -0.1679 -0.2468
   12MOL   C77710699   1.434   1.455   2.882  0.0790  0.0924  0.4667
   12MOL   C77810700   1.356   1.527   2.977 -0.7725 -0.5065  0.5689
   12MOL   C77910701   1.371   1.668   2.992 -0.0773  0.6270 -0.1195
   12MOL   C78010702   1.443   1.733   2.894  0.2173 -0.4032 -0.1858
   12MOL   C78110703   1.513   1.663   2.794 -0.0407  0.0631 -0.1138
   12MOL   O78210704   1.320   1.732   3.098 -0.6209 -0.3272  0.6378
   12MOL   C78310705   1.213   1.815   3.071  0.5484  0.3161  1.1484
   12MOL   C78410706   1.082   1.763   3.079 -0.4489  0.3186 -0.2630
   12MOL   C78510707   0.969   1.847   3.072 -0.1097  0.0224  0.3101
   12MOL   C78610708   0.980   1.988   3.044  0.4634 -0.1162 -0.0155
   12MOL   C78710709   1.113   2.035   3.032  0.1391  0.3240 -0.2052
   12MOL   C78810710   1.230   1.957   3.052 -0.5436  0.1273 -0.0459
   12MOL   C78910711   0.869   2.085   3.027 -0.2636 -0.1392 -0.2039
   12MOL   C79010712   0.876   2.208   3.100 -0.1694  0.6265  0.2280
   12MOL   C79110713   0.780   2.306   3.075 -0.0697  0.1943  0.2966
   12MOL   C79210714   0.675   2.283   2.983 -0.0209  0.1832  0.2293
   12MOL   C79310715   0.666   2.159   2.913  0.3353  0.3171  0.2310
   12MOL   C79410716   0.769   2.062   2.924  0.0935 -0.4562  0.2633
   12MOL   O79510717   0.596   2.388   2.943 -0.0934  0.1386  0.2280
   12MOL   H79610718   1.480   0.989   2.511 -0.0318 -0.0046 -0.2906
   12MOL   H79710719   1.617   1.130   2.658  0.8940  0.8722 -1.7236
   12MOL   H79810720   1.423   1.481   2.509 -1.1801  0.9748 -1.1694
   12MOL   H79910721   1.279   1.324   2.350 -0.5653 -1.1844  0.3695
   12MOL   H80010722   1.430   1.348   2.872  1.0794  0.1378 -0.5780
   12MOL   H80110723   1.290   1.472   3.043  0.2262  1.4280  3.2800
   12MOL   H80210724   1.440   1.840   2.884 -2.4173 -0.5122 -0.7430
   12MOL   H80310725   1.576   1.717   2.725  0.7096  0.0223  0.5206
   12MOL   H80410726   1.079   1.655   3.082  2.1203  0.2547  2.2743
   12MOL   H80510727   0.870   1.803   3.078  0.1995 -0.9337 -1.6013
   12MOL   H80610728   1.134   2.141   3.025 -0.4956  0.4186 -0.7910
   12MOL   H80710729   1.326   2.006   3.050  0.8795 -2.5949 -1.4254
   12MOL   H80810730   0.952   2.227   3.174 -0.5733 -1.6137  1.2557
   12MOL   H80910731   0.784   2.401   3.126 -0.6120  0.8774 -0.9122
   12MOL   H81010732   0.583   2.156   2.843  0.0941 -1.0998  0.5545
   12MOL   H81110733   0.774   1.970   2.867 -0.2046 -1.0373  1.1619
   12MOL   C81210734   0.623   2.435   2.817  0.2669 -0.2708 -0.0714
   12MOL   C81310735   0.756   2.475   2.778 -0.2095  0.2676  0.0711
   12MOL   C81410736   0.784   2.521   2.653 -0.1305 -0.3357 -0.6103
   12MOL   C81510737   0.679   2.525   2.562  0.8608 -0.5335 -0.2136
   12MOL   C81610738   0.549   2.483   2.596 -0.4492 -0.3775  0.4248
   12MOL   C81710739   0.519   2.431   2.727  0.6288 -0.5308  0.4319
   12MOL   S81810740   0.722   2.598   2.400 -0.0968  0.3800 -0.1994
   12MOL   O81910741   0.771   2.738   2.431  0.1396  0.3332  0.0495
   12MOL   O82010742   0.615   2.577   2.304 -0.4052  0.0939 -0.1882
   12MOL   C82110743   0.861   2.500   2.346 -0.0734  0.1454 -0.3723
   12MOL   C82210744   0.881   2.371   2.393 -0.0634 -0.5573  0.4683
   12MOL   C82310745   0.983   2.287   2.340 -0.3330 -0.1283  0.7904
   12MOL   C82410746   1.069   2.346   2.243 -0.4117  0.3607 -0.4989
   12MOL   C82510747   1.047   2.478   2.199 -0.6713 -0.7195  0.7616
   12MOL   C82610748   0.945   2.558   2.252  0.4638 -0.6705  0.6898
   12MOL   O82710749   1.168   2.275   2.184  0.0449 -0.1689  0.3024
   12MOL   C82810750   1.270   2.211   2.246 -0.2157 -0.3071  0.4786
   12MOL   C82910751   1.294   2.197   2.388  0.2335 -0.0051  0.1514
   12MOL   C83010752   1.414   2.141   2.439 -0.6266  0.3356 -0.3534
   12MOL   C83110753   1.514   2.101   2.346 -0.1809 -0.0409 -0.0939
   12MOL   C83210754   1.488   2.115   2.213 -0.1343 -0.1714  0.4562
   12MOL   C83310755   1.369   2.166   2.157 -0.1203 -0.5532 -0.2278
   12MOL   C83410756   1.641   2.036   2.387  0.6508 -0.8478  0.1090
   12MOL   C83510757   1.768   2.085   2.342 -0.5463 -0.0496  0.4197
   12MOL   C83610758   1.888   2.019   2.383 -0.1713  0.4193 -0.0920
   12MOL   C83710759   1.879   1.900   2.460 -0.1882  0.3826  0.2557
   12MOL   C83810760   1.756   1.866   2.521  0.0698  0.1838  0.3271
   12MOL   C83910761   1.639   1.934   2.479  0.4678  0.1563 -0.3604
   12MOL   O84010762   1.993   1.833   2.489  0.4912 -0.5243  0.2358
   12MOL   H84110763   0.837   2.481   2.849  1.5466 -0.5085 -1.8139
   12MOL   H84210764   0.885   2.555   2.643 -0.0321  0.0724  1.6160
   12MOL   H84310765   0.475   2.493   2.518 -0.2141 -3.4488 -0.2285
   12MOL   H84410766   0.420   2.391   2.743  0.2181  0.8951  1.5565
   12MOL   H84510767   0.818   2.337   2.474  0.2672 -0.6521  0.6846
   12MOL   H84610768   0.993   2.184   2.369  2.7089  0.1887  1.0449
   12MOL   H84710769   1.115   2.516   2.124 -0.3968 -1.8495  0.4339
   12MOL   H84810770   0.936   2.659   2.216 -1.2087 -0.8615  0.5504
   12MOL   H84910771   1.214   2.214   2.459  0.8221 -3.0171  1.6282
   12MOL   H85010772   1.433   2.131   2.545 -2.5841  0.4774  0.0395
   12MOL   H85110773   1.562   2.086   2.139 -1.3275 -1.6769 -0.1742
   12MOL   H85210774   1.358   2.176   2.050  2.1699 -0.5679 -0.5083
   12MOL   H85310775   1.775   2.178   2.288 -2.0671 -0.0645  0.1672
   12MOL   H85410776   1.988   2.045   2.352  1.5336 -3.3072  1.9671
   12MOL   H85510777   1.757   1.777   2.582 -2.2798 -0.1165 -0.0511
   12MOL   H85610778   1.544   1.894   2.511  1.2083 -0.0170  1.6533
   12MOL   C85710779   2.011   1.720   2.418  0.5015  0.1105 -0.0458
   12MOL   C85810780   2.040   1.725   2.282  0.2423 -0.7145 -0.6595
   12MOL   C85910781   2.054   1.608   2.208 -0.0308 -0.1220  0.0284
   12MOL   C86010782   2.052   1.480   2.270  0.5849 -0.5573 -0.6874
   12MOL   C86110783   2.016   1.479   2.406  0.3198  0.0909 -0.2959
   12MOL   C86210784   1.999   1.597   2.480 -0.1113 -0.5470 -0.0098
   12MOL   S86310785   2.047   1.328   2.177  0.4083  0.0843 -0.1857
   12MOL   O86410786   2.076   1.223   2.273  0.0712 -0.2891  0.2695
   12MOL   O86510787   2.126   1.341   2.054  0.2719  0.0734 -0.1013
   12MOL   C86610788   1.870   1.310   2.130 -0.1776 -1.0339  0.3340
   12MOL   C86710789   1.774   1.255   2.224 -0.0808 -0.5451  0.0028
   12MOL   C86810790   1.642   1.236   2.174  0.2863  0.9133 -0.0698
   12MOL   C86910791   1.603   1.277   2.046  0.6891  0.3457 -0.2372
   12MOL   C87010792   1.699   1.327   1.962  0.2519  0.3661 -0.4307
   12MOL   C87110793   1.827   1.343   2.002 -0.3407 -0.1556 -0.4746
   12MOL   O87210794   1.488   1.242   1.986 -0.3097  0.0095 -0.0574
   12MOL   C87310795   1.383   1.332   1.988 -0.4628  0.1224  0.6942
   12MOL   C87410796   1.260   1.297   2.054  0.1142 -0.4470  0.7468
   12MOL   C87510797   1.154   1.385   2.043 -0.3101 -1.1180 -0.3035
   12MOL   C87610798   1.156   1.504   1.977 -0.1313 -0.2910 -0.2636
   12MOL   C87710799   1.281   1.548   1.927 -0.2474  0.3534  0.2558
   12MOL   C87810800   1.394   1.454   1.926 -0.2637 -0.4318 -0.1503
   12MOL   C87910801   1.033   1.584   1.964 -0.1942  0.0441  0.2025
   12MOL   C88010802   0.910   1.520   1.956 -0.2276  0.5482 -0.3700
   12MOL   C88110803   0.790   1.596   1.941  0.2632 -0.3513  0.1403
   12MOL   C88210804   0.796   1.741   1.941 -0.2000 -0.0065  0.2647
   12MOL   C88310805   0.921   1.808   1.946  0.2631 -0.4009  0.3886
   12MOL   C88410806   1.039   1.732   1.962  0.3864  0.7401  0.2995
   12MOL   O88510807   0.674   1.807   1.929 -0.1670  0.3186  0.0712
   12MOL   H88610808   2.036   1.811   2.217 -0.6956 -1.6285 -1.8435
   12MOL   H88710809   2.071   1.614   2.101 -0.7573 -1.5927 -0.1856
   12MOL   H88810810   2.009   1.383   2.455  2.3339  0.7860  1.4777
   12MOL   H88910811   1.978   1.587   2.586 -1.8035 -0.7522 -0.3588
   12MOL   H89010812   1.804   1.224   2.323 -1.4955 -1.2185  0.2299
   12MOL   H89110813   1.559   1.197   2.231  1.9341 -2.7123 -0.0616
   12MOL   H89210814   1.667   1.352   1.862  1.5477  1.6056 -0.5631
   12MOL   H89310815   1.900   1.382   1.932  0.6386 -0.2569  0.4733
   12MOL   H89410816   1.253   1.205   2.111 -0.7832 -0.8735 -0.0411
   12MOL   H89510817   1.065   1.352   2.095 -0.9637 -1.6796 -1.7396
   12MOL   H89610818   1.288   1.638   1.869  1.9284 -1.3068 -2.1840
   12MOL   H89710819   1.480   1.477   1.865 -0.2826  0.0922  0.0161
   12MOL   H89810820   0.908   1.412   1.952 -1.4998  0.4364  2.1171
   12MOL   H89910821   0.693   1.552   1.923  0.9071 -2.1173  0.8432
   12MOL   H90010822   0.919   1.916   1.937  1.9773 -0.3194  0.8744
   12MOL   H90110823   1.135   1.780   1.973  0.8632 -0.6081  2.4637
   12MOL   H90210824   0.682   1.900   1.943  0.0898  0.1675  0.9698
   13MOL     C110825   8.029   5.055   3.887  0.5705  0.4438 -0.6941
   13MOL     C210826   8.073   5.130   3.777 -0.0520 -0.0126  0.1575
   13MOL     C310827   7.990   5.142   3.665 -0.3116 -0.0699 -0.6728
   13MOL     C410828   7.862   5.091   3.659 -0.0896 -0.2418 -0.3722
   13MOL     C510829   7.825   4.997   3.757  0.1030 -0.1677 -0.1105
   13MOL     C610830   7.904   4.985   3.873 -0.0810  0.5476 -0.4241
   13MOL     S710831   7.765   5.113   3.509  0.0177 -0.0118 -0.5868
   13MOL     O810832   7.728   4.979   3.468 -0.4898  0.3182 -0.6742
   13MOL     O910833   7.851   5.190   3.419 -0.0482 -0.5324  0.7644
   13MOL    C1010834   7.612   5.193   3.551 -0.1898 -0.4722 -0.8656
   13MOL    C1110835   7.524   5.219   3.439  0.0707  0.1991 -0.7048
   13MOL    C1210836   7.399   5.277   3.475 -0.3328 -0.0615  0.8869
   13MOL    C1310837   7.358   5.296   3.612  0.1189  0.6976 -0.4016
   13MOL    C1410838   7.455   5.271   3.714 -0.5072  0.3870 -0.3609
   13MOL    C1510839   7.584   5.217   3.686 -0.0965  0.0962 -0.8028
   13MOL    O1610840   7.228   5.327   3.646 -0.4977 -0.5566  0.0591
   13MOL    C1710841   7.207   5.452   3.714  0.1690  0.7754  0.1559
   13MOL    C1810842   7.097   5.460   3.797 -0.6720  0.7070 -0.3554
   13MOL    C1910843   7.084   5.580   3.870  0.1121 -0.5894 -0.8147
   13MOL    C2010844   7.169   5.693   3.858 -0.3676  0.2295  0.7725
   13MOL    C2110845   7.269   5.686   3.759 -0.0038 -0.0400 -1.1765
   13MOL    C2210846   7.291   5.562   3.692  0.0781 -0.1103 -0.3138
   13MOL    C2310847   7.154   5.818   3.938 -0.6660  0.2097  0.3669
   13MOL    C2410848   7.262   5.900   3.975  0.1820 -0.4757  0.3091
   13MOL    C2510849   7.241   6.007   4.064 -0.4969  0.4191  0.1357
   13MOL    C2610850   7.112   6.040   4.108  0.1548 -0.2717 -0.3172
   13MOL    C2710851   7.000   5.968   4.054 -0.2914 -0.2720 -0.9053
   13MOL    C2810852   7.018   5.851   3.973 -0.3557  0.6101 -0.1472
   13MOL    O2910853   7.096   6.147   4.186 -0.2738 -0.1529 -0.2423
   13MOL    H3010854   8.168   5.183   3.784  0.4716 -0.4469 -2.8656
   13MOL    H3110855   8.028   5.217   3.597 -0.4563  0.6705  0.0515
   13MOL    H3210856   7.738   4.933   3.757  1.1530 -1.6509  2.9298
   13MOL    H3310857   7.869   4.922   3.953  1.8654 -0.4909 -0.3512
   13MOL    H3410858   7.559   5.203   3.338  2.2612 -1.0568  0.2036
   13MOL    H3510859   7.331   5.296   3.393 -0.0492 -0.5729  0.5309
   13MOL    H3610860   7.425   5.276   3.818  1.9053 -2.1765  0.5163
   13MOL    H3710861   7.649   5.189   3.767 -0.6933 -0.2144 -0.4225
   13MOL    H3810862   7.033   5.376   3.820  0.6343  0.2563  1.7273
   13MOL    H3910863   7.011   5.562   3.947  1.7034 -2.8806  0.1975
   13MOL    H4010864   7.329   5.772   3.733  0.4127  0.1448  0.3798
   13MOL    H4110865   7.374   5.560   3.622  0.0271 -0.4641 -0.3634
   13MOL    H4210866   7.365   5.877   3.949  0.7316  1.5348  0.6652
   13MOL    H4310867   7.326   6.059   4.105 -0.4453  0.6132 -0.2080
   13MOL    H4410868   6.900   6.008   4.061 -0.0032  0.0177  2.9555
   13MOL    H4510869   6.931   5.802   3.930  1.6845 -0.6318 -3.0546
   13MOL    H4610870   8.080   5.038   3.980 -1.6638 -0.6871  0.3861
   13MOL    C4710871   7.061   6.113   4.319  1.1209 -0.1223  0.4364
   13MOL    C4810872   6.933   6.137   4.368  0.2728  0.5938  0.2945
   13MOL    C4910873   6.908   6.101   4.502 -0.6473  0.5641 -0.4451
   13MOL    C5010874   7.019   6.070   4.584  0.0963 -0.5911 -0.8202
   13MOL    C5110875   7.146   6.050   4.531  0.0245  0.2425  0.0684
   13MOL    C5210876   7.173   6.072   4.393 -0.6159 -0.6383  0.0408
   13MOL    S5310877   6.993   6.039   4.762 -0.3414  0.3886 -0.3619
   13MOL    O5410878   7.056   6.149   4.837  0.4695  0.3920 -0.2750
   13MOL    O5510879   7.051   5.906   4.793  0.2943 -0.2683  0.6315
   13MOL    C5610880   6.820   6.034   4.807 -1.7612 -0.7722 -0.1279
   13MOL    C5710881   6.755   6.144   4.869  0.4401 -0.3028 -0.6110
   13MOL    C5810882   6.618   6.139   4.901  0.7605 -0.3102  1.0461
   13MOL    C5910883   6.542   6.021   4.868 -0.0084  0.2438 -0.9332
   13MOL    C6010884   6.600   5.915   4.799  0.2733  0.3950 -0.1217
   13MOL    C6110885   6.742   5.919   4.770 -0.8183  0.4722 -0.0202
   13MOL    O6210886   6.410   6.019   4.922 -0.2111 -0.5274  0.2434
   13MOL    C6310887   6.397   5.989   5.056  0.3916  0.1749  0.2732
   13MOL    C6410888   6.270   5.952   5.097  0.6466  0.8601 -0.0243
   13MOL    C6510889   6.254   5.891   5.221  0.4181 -0.4489  0.1083
   13MOL    C6610890   6.361   5.880   5.316 -0.5303 -0.0672  0.1487
   13MOL    C6710891   6.490   5.913   5.270  0.1600 -0.1782  0.2520
   13MOL    C6810892   6.508   5.978   5.145 -0.1125  0.1126  0.1588
   13MOL    C6910893   6.346   5.839   5.455 -0.0779 -0.2440 -0.5676
   13MOL    C7010894   6.276   5.722   5.495  0.2681  0.4528  0.1990
   13MOL    C7110895   6.262   5.693   5.631  0.7317 -0.0789  0.4042
   13MOL    C7210896   6.331   5.771   5.728 -0.0098 -0.0275  0.1416
   13MOL    C7310897   6.410   5.885   5.686  0.3288  0.3874  0.2503
   13MOL    C7410898   6.404   5.929   5.549 -0.7135 -0.0372  0.2838
   13MOL    O7510899   6.324   5.729   5.856 -0.4543  0.8918  0.0038
   13MOL    H7610900   6.844   6.171   4.318 -1.1151 -0.8819  1.6997
   13MOL    H7710901   6.809   6.111   4.543 -0.1264  0.2825  0.9249
   13MOL    H7810902   7.228   6.038   4.599 -0.3077  0.1665  0.4586
   13MOL    H7910903   7.271   6.059   4.349  0.1707 -0.9977  1.8269
   13MOL    H8010904   6.820   6.227   4.893 -1.0980  0.2873  1.6452
   13MOL    H8110905   6.574   6.219   4.959  1.9806  1.9538 -1.0650
   13MOL    H8210906   6.542   5.825   4.783 -0.1174  1.1682 -3.3236
   13MOL    H8310907   6.784   5.830   4.724  0.0472  0.7832  0.1641
   13MOL    H8410908   6.182   5.962   5.035  1.1799 -1.4925 -1.2294
   13MOL    H8510909   6.156   5.857   5.248  0.3640 -0.9177 -0.6704
   13MOL    H8610910   6.580   5.898   5.328  0.2569 -0.8845 -0.0815
   13MOL    H8710911   6.609   5.997   5.112  0.3179  2.2324  2.5451
   13MOL    H8810912   6.226   5.672   5.414 -0.9076  2.6189 -0.4616
   13MOL    H8910913   6.208   5.601   5.646  0.9946 -0.8961 -3.2447
   13MOL    H9010914   6.463   5.944   5.760  1.0147  0.0327  0.0499
   13MOL    H9110915   6.458   6.016   5.515 -0.4107  0.4998  2.0966
   13MOL    C9210916   6.379   5.605   5.887 -0.3313 -0.3646 -0.7557
   13MOL    C9310917   6.487   5.556   5.813  0.0034  0.2516  0.2056
   13MOL    C9410918   6.542   5.429   5.849  0.4396  0.4512  0.4309
   13MOL    C9510919   6.485   5.351   5.953 -0.4874 -0.5864  0.5936
   13MOL    C9610920   6.371   5.391   6.021 -0.1002 -0.8904  0.8832
   13MOL    C9710921   6.322   5.521   5.994  0.0009  0.1975 -0.0399
   13MOL    S9810922   6.564   5.197   5.985 -0.2329 -0.1107 -0.5227
   13MOL    O9910923   6.702   5.231   6.023 -0.6492  0.0411  0.0596
   13MOL   O10010924   6.534   5.110   5.870 -0.3173  0.6231  0.4965
   13MOL   C10110925   6.475   5.130   6.121 -0.4174  0.3437  0.0088
   13MOL   C10210926   6.513   5.172   6.250  0.7169  0.1174 -0.2746
   13MOL   C10310927   6.444   5.128   6.365 -0.2859 -0.1930 -0.5041
   13MOL   C10410928   6.341   5.033   6.349 -0.4147 -0.0021 -0.2916
   13MOL   C10510929   6.311   4.976   6.224 -0.4540 -0.0169 -0.2188
   13MOL   C10610930   6.374   5.033   6.113 -0.0287 -0.0918 -0.1137
   13MOL   O10710931   6.268   4.989   6.454 -1.3366 -0.0602 -0.1961
   13MOL   C10810932   6.142   5.026   6.464 -0.4141  0.8310  0.5480
   13MOL   C10910933   6.033   4.945   6.439  0.1467 -0.4229 -0.4938
   13MOL   C11010934   5.899   5.000   6.455  0.3076 -0.2087 -0.2833
   13MOL   C11110935   5.884   5.129   6.496 -0.0309  0.4078 -0.2533
   13MOL   C11210936   5.995   5.209   6.519 -0.8948  0.2079 -0.2998
   13MOL   C11310937   6.121   5.156   6.511 -0.7020  1.1831  0.1789
   13MOL   C11410938   5.748   5.182   6.534  0.2245  1.2776 -0.3598
   13MOL   C11510939   5.737   5.221   6.667 -0.0096 -0.1069 -0.4316
   13MOL   C11610940   5.620   5.277   6.715  0.8801  0.0906 -0.3169
   13MOL   C11710941   5.514   5.309   6.626  0.0472 -1.1826  0.1705
   13MOL   C11810942   5.525   5.269   6.485 -0.2709 -0.1524 -0.4101
   13MOL   C11910943   5.643   5.205   6.445 -0.4088 -0.3678  0.7217
   13MOL   O12010944   5.411   5.383   6.669  0.3300 -0.7347  0.1113
   13MOL   H12110945   6.522   5.607   5.725 -0.7055  0.4683  0.0448
   13MOL   H12210946   6.624   5.382   5.797  0.3983  0.5605  0.2675
   13MOL   H12310947   6.323   5.343   6.105 -0.7693  1.0202  1.6293
   13MOL   H12410948   6.241   5.564   6.051 -0.5182  1.0154 -1.3551
   13MOL   H12510949   6.592   5.245   6.262  1.8039 -1.2838  1.2687
   13MOL   H12610950   6.467   5.162   6.465  2.6137 -1.4813 -0.6458
   13MOL   H12710951   6.221   4.916   6.221 -0.6403  0.2034  0.7953
   13MOL   H12810952   6.339   4.999   6.017  0.6886 -0.9345 -0.0854
   13MOL   H12910953   6.043   4.844   6.401 -0.1481  0.0637 -1.9076
   13MOL   H13010954   5.809   4.939   6.453 -0.3987  0.8224 -0.1958
   13MOL   H13110955   5.986   5.308   6.563 -2.4024  0.7442 -1.7792
   13MOL   H13210956   6.210   5.216   6.524  1.4582 -1.2154 -2.8366
   13MOL   H13310957   5.818   5.212   6.738 -0.8658  2.4944  0.9692
   13MOL   H13410958   5.609   5.306   6.818 -1.7775 -0.2161 -0.4669
   13MOL   H13510959   5.439   5.300   6.427 -0.5304 -0.0958  0.0080
   13MOL   H13610960   5.653   5.175   6.342 -1.6067  0.4078  0.3743
   13MOL   C13710961   5.385   5.507   6.619 -0.1066 -0.4492 -0.0933
   13MOL   C13810962   5.438   5.621   6.677  1.1456 -1.2966 -0.3549
   13MOL   C13910963   5.401   5.750   6.628 -0.6906  0.4980 -0.2442
   13MOL   C14010964   5.310   5.753   6.520  0.0421  0.5447  0.5752
   13MOL   C14110965   5.268   5.637   6.457 -0.1627  0.3796  0.3897
   13MOL   C14210966   5.315   5.516   6.500 -0.4682 -0.6441 -0.1801
   13MOL   S14310967   5.250   5.914   6.451 -0.0963 -0.2845 -0.7403
   13MOL   O14410968   5.250   6.013   6.559 -0.1865  0.3728 -0.0388
   13MOL   O14510969   5.130   5.890   6.379  0.3679  0.4423 -0.3550
   13MOL   C14610970   5.386   5.959   6.332  0.1099  0.4000  0.5885
   13MOL   C14710971   5.379   5.920   6.196 -0.3270  0.3999 -0.3762
   13MOL   C14810972   5.485   5.965   6.108  0.5282 -0.0539 -0.0469
   13MOL   C14910973   5.583   6.056   6.149 -0.1158  0.3753 -0.2076
   13MOL   C15010974   5.589   6.094   6.285 -0.0776  0.4245 -0.0189
   13MOL   C15110975   5.492   6.043   6.376  0.7697 -0.4051 -0.5176
   13MOL   O15210976   5.683   6.097   6.067 -0.9935 -0.2224 -0.6480
   13MOL   C15310977   5.673   6.218   6.004  0.5562 -0.8075 -0.1763
   13MOL   C15410978   5.684   6.341   6.072 -0.5818 -0.1730  0.1949
   13MOL   C15510979   5.679   6.463   5.996 -0.1374 -0.1544 -0.4012
   13MOL   C15610980   5.657   6.459   5.857 -0.2804  0.3541  0.4830
   13MOL   C15710981   5.629   6.331   5.799 -0.6875  0.5229 -0.0195
   13MOL   C15810982   5.628   6.212   5.876 -0.2535  0.1195  0.1779
   13MOL   C15910983   5.648   6.587   5.783  0.0440  0.3995  0.3772
   13MOL   C16010984   5.702   6.709   5.839 -0.1443  0.5653  0.2670
   13MOL   C16110985   5.716   6.828   5.762  0.3244  0.0692  0.2427
   13MOL   C16210986   5.661   6.827   5.631 -0.0449 -0.2950  0.4650
   13MOL   C16310987   5.599   6.712   5.580  0.1130 -0.7247 -0.4272
   13MOL   C16410988   5.596   6.597   5.651  1.0350 -0.3291  0.0444
   13MOL   O16510989   5.686   6.933   5.538 -0.0775  0.1454  0.2211
   13MOL   H16610990   5.499   5.618   6.766  1.0906  0.7541 -0.2109
   13MOL   H16710991   5.434   5.843   6.672 -0.2610  0.5070 -0.5846
   13MOL   H16810992   5.210   5.640   6.366 -1.1341 -1.6521  0.9174
   13MOL   H16910993   5.267   5.429   6.458 -0.9862  0.1267 -1.1949
   13MOL   H17010994   5.302   5.851   6.165 -0.3275  1.1476 -2.0928
   13MOL   H17110995   5.493   5.927   6.007 -0.2349 -0.5917  0.0933
   13MOL   H17210996   5.670   6.153   6.326 -1.3083  0.4685  2.4395
   13MOL   H17310997   5.489   6.077   6.478  2.5356  0.1906 -0.6276
   13MOL   H17410998   5.698   6.348   6.178  1.0546 -2.1321  0.1377
   13MOL   H17510999   5.701   6.550   6.056  0.5724  0.3095 -1.3439
   13MOL   H17611000   5.594   6.319   5.697 -1.4709 -2.8863  0.6101
   13MOL   H17711001   5.614   6.110   5.843  2.2107 -0.8646  2.0222
   13MOL   H17811002   5.743   6.717   5.938 -0.5691  1.1927  0.3883
   13MOL   H17911003   5.784   6.901   5.803  0.9427 -0.0749 -0.5148
   13MOL   H18011004   5.562   6.720   5.479 -0.4160 -0.0229 -0.1882
   13MOL   H18111005   5.553   6.509   5.608 -0.5346 -0.0001  0.9229
   13MOL   C18211006   5.817   6.980   5.531 -0.4766  0.0244  0.7305
   13MOL   C18311007   5.847   7.111   5.572 -0.1309 -0.0032 -0.3703
   13MOL   C18411008   5.977   7.160   5.553 -0.0320  0.1010 -0.2437
   13MOL   C18511009   6.074   7.083   5.495 -0.4796  0.0128 -0.1629
   13MOL   C18611010   6.045   6.950   5.449 -0.1827  0.1376 -0.8679
   13MOL   C18711011   5.915   6.892   5.476 -1.1619  0.0231 -0.1731
   13MOL   S18811012   6.234   7.145   5.466  0.3059 -0.3194  0.0937
   13MOL   O18911013   6.225   7.285   5.514 -0.3027  0.5012 -0.2951
   13MOL   O19011014   6.257   7.111   5.323  0.1909  0.6022  0.2498
   13MOL   C19111015   6.363   7.047   5.558  0.1701 -0.4371 -0.9034
   13MOL   C19211016   6.398   6.918   5.516 -0.6792 -0.1627 -0.3910
   13MOL   C19311017   6.491   6.841   5.588  0.1078  0.0140  0.1487
   13MOL   C19411018   6.564   6.906   5.686 -0.1498 -0.8072 -0.0495
   13MOL   C19511019   6.534   7.035   5.733  0.2714 -0.0205 -0.0695
   13MOL   C19611020   6.433   7.105   5.668 -0.0921  0.3253 -0.7715
   13MOL   O19711021   6.666   6.841   5.747  0.1570  0.4241 -0.1450
   13MOL   C19811022   6.763   6.807   5.660 -0.6302 -0.3802 -0.0738
   13MOL   C19911023   6.783   6.675   5.643 -0.2824  0.5879 -0.5373
   13MOL   C20011024   6.875   6.628   5.549  0.7318 -0.2250 -0.4698
   13MOL   C20111025   6.947   6.723   5.468  0.3937 -0.3880  0.9622
   13MOL   C20211026   6.932   6.856   5.500  0.0296  0.5497 -0.4855
   13MOL   C20311027   6.838   6.903   5.593 -0.0970 -0.2853  0.9387
   13MOL   C20411028   7.046   6.678   5.367 -0.6575  0.1671  0.2368
   13MOL   C20511029   6.986   6.601   5.268  0.1567 -0.0469  0.8851
   13MOL   C20611030   7.063   6.551   5.160  0.4084  0.0159 -0.1496
   13MOL   C20711031   7.201   6.572   5.159  0.4519 -0.2309 -0.7209
   13MOL   C20811032   7.265   6.649   5.268  0.2218  0.0445  0.0537
   13MOL   C20911033   7.185   6.703   5.374 -0.1608 -0.3618  0.1219
   13MOL   O21011034   7.287   6.519   5.068 -0.1358  0.4973  0.0447
   13MOL   H21111035   5.777   7.169   5.630 -0.3437 -2.3191  1.8188
   13MOL   H21211036   6.004   7.263   5.571  1.2209 -0.1232 -0.7719
   13MOL   H21311037   6.115   6.874   5.420 -0.2037 -0.8347  1.5167
   13MOL   H21411038   5.896   6.787   5.458 -0.5536 -0.2569  0.7345
   13MOL   H21511039   6.333   6.888   5.435 -2.1243 -2.7299  1.6657
   13MOL   H21611040   6.513   6.745   5.544 -0.8179  0.3522 -1.0886
   13MOL   H21711041   6.587   7.083   5.814  0.6016  0.9063 -0.8230
   13MOL   H21811042   6.410   7.208   5.692 -4.2050 -0.2930 -1.5716
   13MOL   H21911043   6.737   6.600   5.707  0.8041 -2.8972 -3.6688
   13MOL   H22011044   6.901   6.523   5.546  0.6909 -0.2962  0.9871
   13MOL   H22111045   6.993   6.923   5.442  0.7761  0.9410  0.7360
   13MOL   H22211046   6.826   7.009   5.610 -0.4763 -0.4131  1.5039
   13MOL   H22311047   6.881   6.575   5.272 -0.1936  0.7534 -1.7653
   13MOL   H22411048   7.017   6.492   5.082 -0.9101  1.2806 -0.3641
   13MOL   H22511049   7.372   6.663   5.269  0.1622  1.0222 -2.4128
   13MOL   H22611050   7.227   6.760   5.455 -0.6468  0.9305 -0.5203
   13MOL   C22711051   7.301   6.378   5.048 -0.0934  0.5947  1.0356
   13MOL   C22811052   7.286   6.289   5.153  0.9390 -0.3544 -0.6731
   13MOL   C22911053   7.315   6.150   5.135 -0.5763 -0.4172 -0.4008
   13MOL   C23011054   7.366   6.103   5.014 -0.0266 -0.3823 -0.1039
   13MOL   C23111055   7.377   6.195   4.907 -0.5257 -0.1775 -0.2540
   13MOL   C23211056   7.351   6.334   4.924  0.1317  0.3376 -0.3641
   13MOL   S23311057   7.421   5.935   4.997  0.0946  0.2479  0.1398
   13MOL   O23411058   7.555   5.928   5.056  0.0371 -0.0884  0.0281
   13MOL   O23511059   7.404   5.888   4.860  0.2952 -0.0582 -0.0784
   13MOL   C23611060   7.314   5.838   5.116 -0.2598  0.0187  0.5058
   13MOL   C23711061   7.369   5.799   5.239  0.1709 -0.9326 -0.1863
   13MOL   C23811062   7.289   5.734   5.340  0.3014  0.2210 -0.0335
   13MOL   C23911063   7.149   5.728   5.324 -0.3806  0.0777 -0.4010
   13MOL   C24011064   7.099   5.758   5.197  0.5928 -0.2803  0.4538
   13MOL   C24111065   7.176   5.818   5.093  0.3190 -0.5458  0.1425
   13MOL   O24211066   7.077   5.671   5.428 -0.4333  0.2310  0.1750
   13MOL   C24311067   6.953   5.613   5.403  1.2193 -0.7100 -0.2654
   13MOL   C24411068   6.835   5.686   5.435  0.3287  0.5058 -0.3721
   13MOL   C24511069   6.705   5.622   5.428 -0.3492 -0.7247  0.4505
   13MOL   C24611070   6.701   5.485   5.383 -0.2703  0.3766  0.1012
   13MOL   C24711071   6.817   5.418   5.331 -0.0637 -0.7953  0.0424
   13MOL   C24811072   6.942   5.485   5.347 -0.5177 -0.1950  0.3796
   13MOL   C24911073   6.580   5.410   5.404  0.6541 -0.4995  0.2017
   13MOL   C25011074   6.463   5.462   5.352  1.0254 -0.0400  0.4042
   13MOL   C25111075   6.336   5.395   5.380 -0.4794 -0.6319  0.6924
   13MOL   C25211076   6.336   5.269   5.443  0.5703 -0.1207  0.0340
   13MOL   C25311077   6.461   5.215   5.481 -0.0885 -0.9131 -0.5564
   13MOL   C25411078   6.584   5.283   5.467 -0.2990 -0.6466  0.2924
   13MOL   O25511079   6.219   5.207   5.465 -0.2761  0.6518 -0.3781
   13MOL   H25611080   7.278   6.333   5.251  1.6365  2.6103 -1.8870
   13MOL   H25711081   7.315   6.084   5.221 -0.5795 -0.4721 -0.4436
   13MOL   H25811082   7.421   6.159   4.816 -0.7260  0.0311 -0.4338
   13MOL   H25911083   7.368   6.402   4.842  0.5697 -0.2064 -0.7307
   13MOL   H26011084   7.472   5.828   5.258 -0.1112 -0.2028  0.2547
   13MOL   H26111085   7.337   5.713   5.434  0.8497  1.0850 -0.1082
   13MOL   H26211086   6.993   5.743   5.187  0.6412 -0.8535  0.7462
   13MOL   H26311087   7.132   5.841   4.997  1.5693 -1.4138 -0.6536
   13MOL   H26411088   6.842   5.790   5.463  0.6818  0.2576  0.4713
   13MOL   H26511089   6.620   5.678   5.463 -1.3498 -1.7005 -0.3926
   13MOL   H26611090   6.803   5.316   5.299  1.6283 -0.4056 -2.1125
   13MOL   H26711091   7.029   5.431   5.311 -1.3198 -0.0193 -1.8777
   13MOL   H26811092   6.462   5.558   5.301 -3.7191 -1.6162 -2.8896
   13MOL   H26911093   6.249   5.439   5.335  0.4562  1.1233  0.5633
   13MOL   H27011094   6.458   5.115   5.522 -2.4119  0.0075  1.6371
   13MOL   H27111095   6.676   5.237   5.499  0.3644 -0.0361 -0.7139
   13MOL   C27211096   6.180   5.196   5.591 -0.0651 -0.2177 -1.1362
   13MOL   C27311097   6.170   5.311   5.675  0.2492 -0.7219 -0.8694
   13MOL   C27411098   6.117   5.300   5.804 -0.5807  0.4746 -0.1644
   13MOL   C27511099   6.086   5.169   5.862 -0.7824 -0.8132 -0.2132
   13MOL   C27611100   6.106   5.057   5.774 -0.0460  0.1678 -0.2110
   13MOL   C27711101   6.152   5.066   5.641  0.3409 -0.1568 -0.0598
   13MOL   S27811102   6.045   5.146   6.034  0.0626 -0.3676  0.1641
   13MOL   O27911103   6.140   5.220   6.111  0.1800  0.2949 -0.2804
   13MOL   O28011104   6.036   5.002   6.055 -0.1192 -0.0464 -0.1596
   13MOL   C28111105   5.878   5.221   6.057  0.0556 -0.2997 -0.1313
   13MOL   C28211106   5.770   5.183   5.976  0.3963 -0.0994  0.0989
   13MOL   C28311107   5.645   5.250   5.995  0.5204 -0.5098 -0.6739
   13MOL   C28411108   5.635   5.353   6.089 -0.1595 -0.0795  0.4785
   13MOL   C28511109   5.746   5.388   6.175 -0.2315  0.6937 -1.1898
   13MOL   C28611110   5.864   5.319   6.158 -0.0921  0.5076 -0.1753
   13MOL   O28711111   5.520   5.425   6.104 -0.2905  0.2061  0.2407
   13MOL   C28811112   5.504   5.533   6.024  1.0879 -0.0178 -0.9775
   13MOL   C28911113   5.374   5.587   6.016  0.0263  0.2643  0.5154
   13MOL   C29011114   5.333   5.684   5.924  0.3092 -1.1306 -0.1316
   13MOL   C29111115   5.425   5.731   5.835 -0.3849 -0.2095 -0.4717
   13MOL   C29211116   5.556   5.667   5.835  0.1454  0.1932  0.1527
   13MOL   C29311117   5.596   5.569   5.930  0.2953 -1.1127  0.2867
   13MOL   C29411118   5.391   5.822   5.732 -0.9613 -0.5406  0.3401
   13MOL   C29511119   5.265   5.811   5.664 -0.4178  0.7264  0.2339
   13MOL   C29611120   5.225   5.909   5.576 -1.4933  0.5719  0.5438
   13MOL   C29711121   5.304   6.023   5.564 -0.2929  0.1030 -0.8464
   13MOL   C29811122   5.432   6.035   5.617 -1.2816 -0.0424  0.2589
   13MOL   C29911123   5.480   5.931   5.696  0.3914  0.7337 -0.0609
   13MOL   O30011124   5.256   6.134   5.500 -0.4943 -0.2016 -0.3923
   13MOL   H30111125   6.190   5.413   5.647  0.0203 -0.5813 -0.5232
   13MOL   H30211126   6.111   5.391   5.861  0.2576  0.2231  0.3332
   13MOL   H30311127   6.080   4.963   5.820  0.2844  0.6808  1.0566
   13MOL   H30411128   6.160   4.976   5.582 -0.0588  0.2228 -0.6960
   13MOL   H30511129   5.789   5.111   5.898  0.7316 -0.7959  0.8132
   13MOL   H30611130   5.563   5.230   5.928  1.5337 -0.5995 -1.9042
   13MOL   H30711131   5.737   5.467   6.248 -1.2851  1.1069 -1.7493
   13MOL   H30811132   5.945   5.356   6.219 -1.6214  0.5454  1.9005
   13MOL   H30911133   5.295   5.555   6.082  0.3022 -0.2859  0.5856
   13MOL   H31011134   5.229   5.711   5.930  0.4929 -0.5914  0.7577
   13MOL   H31111135   5.620   5.695   5.753 -2.1649  2.3991 -0.9644
   13MOL   H31211136   5.697   5.532   5.923  1.4517  1.5242  2.0612
   13MOL   H31311137   5.196   5.728   5.673  1.6815 -0.9573  1.4597
   13MOL   H31411138   5.137   5.905   5.513 -0.1620  1.4935 -1.4200
   13MOL   H31511139   5.495   6.121   5.600 -2.5319  1.3609  2.6028
   13MOL   H31611140   5.581   5.927   5.732  0.2547  1.6711  0.4479
   13MOL   C31711141   5.194   6.229   5.576  0.3526 -0.3161  0.1037
   13MOL   C31811142   5.053   6.245   5.578  0.2313 -0.5265  0.8017
   13MOL   C31911143   4.999   6.352   5.646 -0.0540  0.5133 -0.0625
   13MOL   C32011144   5.082   6.453   5.695 -0.3591 -0.5377  0.3868
   13MOL   C32111145   5.221   6.444   5.688  0.3207  0.1350 -0.0124
   13MOL   C32211146   5.279   6.332   5.628  0.5649 -0.3387 -0.8849
   13MOL   S32311147   5.007   6.600   5.753  0.2013  0.3297  0.0313
   13MOL   O32411148   4.985   6.584   5.901  0.3544 -0.3421  0.8360
   13MOL   O32511149   4.887   6.624   5.672 -0.0438  0.5168  0.3876
   13MOL   C32611150   5.121   6.730   5.722 -0.8463  0.3140  0.0065
   13MOL   C32711151   5.195   6.789   5.829 -0.1036  0.0660  1.2549
   13MOL   C32811152   5.291   6.886   5.796  0.3276  0.4859  0.0433
   13MOL   C32911153   5.310   6.923   5.659  0.5580  0.3751 -0.4289
   13MOL   C33011154   5.236   6.860   5.560 -1.0148  0.3076 -0.3088
   13MOL   C33111155   5.140   6.768   5.593 -0.2379 -0.1901  0.0751
   13MOL   O33211156   5.413   7.006   5.635 -0.2769  0.3437 -0.1873
   13MOL   C33311157   5.392   7.143   5.644  0.3126 -0.1772  0.2181
   13MOL   C33411158   5.275   7.198   5.587 -0.2007 -0.7576  0.2939
   13MOL   C33511159   5.246   7.336   5.597  0.4903  0.0777 -0.2245
   13MOL   C33611160   5.333   7.425   5.663 -0.0887 -0.1280  0.4628
   13MOL   C33711161   5.447   7.368   5.718  0.2364  0.3235 -0.0647
   13MOL   C33811162   5.484   7.230   5.704 -0.2919 -0.1665 -0.2953
   13MOL   C33911163   5.311   7.567   5.677 -0.8549 -0.0451  0.1296
   13MOL   C34011164   5.325   7.631   5.801  0.6292 -0.1125 -1.0581
   13MOL   C34111165   5.303   7.770   5.813 -0.7632 -1.1021 -0.4600
   13MOL   C34211166   5.281   7.849   5.700 -0.0113  0.0553  0.4337
   13MOL   C34311167   5.288   7.786   5.575  0.2604  0.4762  0.0336
   13MOL   C34411168   5.291   7.645   5.563  0.4331 -0.0069  0.2319
   13MOL   O34511169   5.267   7.983   5.715 -0.1917  0.2914 -0.5740
   13MOL   H34611170   4.981   6.178   5.535 -0.2769  0.2148  0.4894
   13MOL   H34711171   4.895   6.377   5.638 -0.5191 -1.5983 -1.1597
   13MOL   H34811172   5.281   6.529   5.718 -0.2466  0.4382  0.2620
   13MOL   H34911173   5.386   6.335   5.620  0.5656  1.6551 -0.2392
   13MOL   H35011174   5.175   6.759   5.931 -0.3132 -1.9155  0.6551
   13MOL   H35111175   5.350   6.930   5.876 -0.3260 -1.1617  1.4751
   13MOL   H35211176   5.264   6.871   5.457  1.5663 -0.2846  0.3087
   13MOL   H35311177   5.074   6.715   5.526 -1.1895  1.2112 -0.1055
   13MOL   H35411178   5.213   7.133   5.527  0.0069  0.3270 -1.1060
   13MOL   H35511179   5.165   7.375   5.537 -0.9074 -1.5730  0.5436
   13MOL   H35611180   5.504   7.424   5.792 -1.7097 -0.5387  2.1528
   13MOL   H35711181   5.575   7.201   5.754  1.0411 -0.3340 -2.7540
   13MOL   H35811182   5.349   7.565   5.884 -0.1654  0.5346 -0.3058
   13MOL   H35911183   5.335   7.823   5.901 -0.9519 -2.6347  0.5561
   13MOL   H36011184   5.266   7.849   5.490 -1.6085 -1.9516 -1.3313
   13MOL   H36111185   5.278   7.601   5.465  0.7648  1.7410 -0.5993
   13MOL   C36211186   5.386   8.049   5.715  0.5885  0.0483 -0.2051
   13MOL   C36311187   5.474   8.049   5.609  1.3041  0.2612 -0.3289
   13MOL   C36411188   5.595   8.115   5.607 -0.6988 -0.0589 -0.5316
   13MOL   C36511189   5.638   8.180   5.724 -0.4827  0.3432  0.0865
   13MOL   C36611190   5.549   8.189   5.836  0.3415  0.0173  0.0373
   13MOL   C36711191   5.421   8.119   5.830 -0.2987 -0.3741  0.0647
   13MOL   S36811192   5.801   8.260   5.725  0.0991 -0.2165  0.0014
   13MOL   O36911193   5.813   8.359   5.831  0.3042  0.4067 -0.6122
   13MOL   O37011194   5.836   8.301   5.591  0.0644  0.1075  0.2337
   13MOL   C37111195   5.923   8.137   5.763  0.4481 -0.1602 -0.0004
   13MOL   C37211196   5.959   8.111   5.900 -0.0325  0.3409  0.5607
   13MOL   C37311197   6.054   8.012   5.926  0.0934 -0.6464  0.5219
   13MOL   C37411198   6.106   7.933   5.819 -0.2511 -0.3757 -0.7171
   13MOL   C37511199   6.056   7.951   5.690 -0.0666 -0.6526 -0.0351
   13MOL   C37611200   5.966   8.055   5.657  0.2441 -0.5968 -0.6464
   13MOL   O37711201   6.219   7.860   5.842  0.3983  0.6929  0.5557
   13MOL   C37811202   6.210   7.733   5.866  0.2004  0.4274 -0.2742
   13MOL   C37911203   6.239   7.637   5.768 -0.4605 -0.2322 -0.8259
   13MOL   C38011204   6.232   7.496   5.791 -0.0760  0.7602  0.3065
   13MOL   C38111205   6.173   7.455   5.914 -0.0172  0.0806  0.3683
   13MOL   C38211206   6.145   7.543   6.014 -0.1266 -0.4837  0.6567
   13MOL   C38311207   6.162   7.682   5.989  0.6572  0.4470  0.4743
   13MOL   C38411208   6.134   7.313   5.935 -0.3001 -0.3359  0.2194
   13MOL   C38511209   6.001   7.280   5.956  0.0779  0.5834 -0.5609
   13MOL   C38611210   5.970   7.146   5.980 -0.3576  0.4644  0.9412
   13MOL   C38711211   6.061   7.039   5.964 -0.6520  0.6434 -0.3801
   13MOL   C38811212   6.196   7.071   5.944 -0.4520 -0.2205  0.2669
   13MOL   C38911213   6.230   7.205   5.925  0.2777 -0.7540 -0.5840
   13MOL   O39011214   6.022   6.908   5.999 -0.1169 -0.1111  0.1981
   13MOL   H39111215   5.449   7.990   5.522 -0.5916 -1.8103  1.5464
   13MOL   H39211216   5.662   8.113   5.522  2.4929  3.6004  1.7266
   13MOL   H39311217   5.578   8.248   5.922  1.6641 -0.7162  0.1084
   13MOL   H39411218   5.360   8.133   5.918  2.2233 -0.5983  1.9089
   13MOL   H39511219   5.921   8.174   5.979 -1.3542  1.3581 -0.8382
   13MOL   H39611220   6.095   8.013   6.026  0.5087 -1.1924  0.3576
   13MOL   H39711221   6.103   7.889   5.615  0.6317 -1.5369  1.1108
   13MOL   H39811222   5.932   8.080   5.557  0.9487 -1.9787 -1.2479
   13MOL   H39911223   6.282   7.670   5.674  4.7140 -1.5452  0.8775
   13MOL   H40011224   6.261   7.426   5.714  3.0245 -1.1651  3.1075
   13MOL   H40111225   6.108   7.519   6.112  4.1388 -1.6649  2.0954
   13MOL   H40211226   6.142   7.764   6.056 -1.9270 -0.6136  1.0481
   13MOL   H40311227   5.918   7.350   5.959 -1.0598 -0.6851 -1.8848
   13MOL   H40411228   5.868   7.130   6.011 -0.3077 -2.3235 -0.1814
   13MOL   H40511229   6.271   6.994   5.950 -0.5457 -0.2444  1.2673
   13MOL   H40611230   6.333   7.221   5.898  0.0002  1.2100 -0.6074
   13MOL   C40711231   6.081   6.801   5.926  0.1229  0.4345 -0.1631
   13MOL   C40811232   6.154   6.701   6.001 -0.2304  0.5460  0.2925
   13MOL   C40911233   6.210   6.584   5.936 -0.3313 -0.2000 -0.5080
   13MOL   C41011234   6.197   6.575   5.797 -0.2203 -0.3146  0.1415
   13MOL   C41111235   6.123   6.668   5.720  0.8454 -0.2149  0.0794
   13MOL   C41211236   6.060   6.783   5.786  0.5048  0.0069  0.4197
   13MOL   S41311237   6.287   6.454   5.708  0.1475 -0.1736  0.4402
   13MOL   O41411238   6.364   6.526   5.606 -0.4137 -0.1548 -0.0007
   13MOL   O41511239   6.190   6.358   5.660 -0.3234  0.3240  0.1800
   13MOL   C41611240   6.396   6.377   5.828 -0.8124  0.8219  0.6649
   13MOL   C41711241   6.380   6.238   5.847 -0.0268 -0.0356 -0.4407
   13MOL   C41811242   6.455   6.174   5.942 -0.0917  0.7030 -0.0026
   13MOL   C41911243   6.551   6.246   6.021 -0.9514 -0.1423 -0.1261
   13MOL   C42011244   6.578   6.385   5.990  0.3923  0.7487 -0.1590
   13MOL   C42111245   6.505   6.448   5.891 -0.6277 -0.2196  0.5222
   13MOL   O42211246   6.616   6.172   6.113  0.2662  0.3861 -0.1365
   13MOL   C42311247   6.615   6.212   6.240 -0.5779  0.3714  0.7853
   13MOL   C42411248   6.709   6.304   6.285 -0.0605 -0.1875 -0.6371
   13MOL   C42511249   6.712   6.351   6.417 -0.3102 -0.4535 -0.2327
   13MOL   C42611250   6.615   6.312   6.509 -0.6201  0.3521 -0.4914
   13MOL   C42711251   6.516   6.219   6.463 -0.1544  0.0125  0.3253
   13MOL   C42811252   6.516   6.165   6.329 -0.2361  0.6631  0.0311
   13MOL   C42911253   6.615   6.384   6.638 -0.2159  0.3399  0.1447
   13MOL   C43011254   6.498   6.458   6.672 -0.3547 -0.1821  0.1181
   13MOL   C43111255   6.497   6.534   6.791 -0.9370  0.3260 -0.2363
   13MOL   C43211256   6.611   6.549   6.872  0.0343 -1.0860  0.2079
   13MOL   C43311257   6.720   6.471   6.840  0.1737  0.2383 -0.0955
   13MOL   C43411258   6.723   6.388   6.722 -0.1260 -1.1330  0.4318
   13MOL   O43511259   6.603   6.617   6.990 -0.0901 -0.8089  0.3781
   13MOL   H43611260   6.167   6.705   6.108 -0.3739  1.5207  0.2752
   13MOL   H43711261   6.266   6.512   5.993 -2.4446 -1.4448  0.0444
   13MOL   H43811262   6.109   6.656   5.614 -1.8955 -2.0045  0.6202
   13MOL   H43911263   6.007   6.857   5.727  0.8306 -0.2998 -0.2666
   13MOL   H44011264   6.296   6.183   5.809 -0.0718  0.3831 -0.9524
   13MOL   H44111265   6.441   6.073   5.977 -1.7759 -0.4380 -3.6240
   13MOL   H44211266   6.654   6.428   6.053  1.3980 -1.1022 -0.0634
   13MOL   H44311267   6.534   6.548   5.864 -0.2188 -0.4387  0.1370
   13MOL   H44411268   6.779   6.339   6.210 -0.8268  0.2326 -1.1675
   13MOL   H44511269   6.780   6.432   6.436 -1.7974  0.5936  0.7057
   13MOL   H44611270   6.442   6.185   6.534  0.9283 -0.3618  1.2902
   13MOL   H44711271   6.436   6.102   6.295 -0.0353  0.1496  0.5094
   13MOL   H44811272   6.406   6.451   6.616 -0.9046  0.2593  0.9590
   13MOL   H44911273   6.413   6.593   6.824 -0.4549  2.0797 -1.9998
   13MOL   H45011274   6.809   6.470   6.900  1.1319 -0.3660 -1.5016
   13MOL   H45111275   6.811   6.334   6.690 -1.1544 -2.8890  0.5126
   13MOL   C45211276   6.618   6.753   6.978 -0.5170 -0.1409 -0.2251
   13MOL   C45311277   6.735   6.809   6.918 -0.5520  0.2227  0.0841
   13MOL   C45411278   6.745   6.943   6.905  0.1525  0.0244 -0.4403
   13MOL   C45511279   6.647   7.021   6.970  0.9515  0.0907 -0.2713
   13MOL   C45611280   6.542   6.969   7.045 -0.2669  0.2290 -0.2825
   13MOL   C45711281   6.527   6.830   7.048 -0.2737 -0.2356  0.0277
   13MOL   S45811282   6.674   7.198   6.957 -0.0213 -0.2693  0.3004
   13MOL   O45911283   6.748   7.234   6.836 -0.0644 -0.3107 -0.0237
   13MOL   O46011284   6.722   7.240   7.091  0.3367 -0.2458  0.3032
   13MOL   C46111285   6.503   7.250   6.938 -0.1188  0.1779  0.7001
   13MOL   C46211286   6.417   7.198   6.839 -1.0039  0.1453 -0.3443
   13MOL   C46311287   6.285   7.236   6.843 -0.0577 -0.1880  0.6088
   13MOL   C46411288   6.237   7.332   6.927  0.1050 -0.3715 -0.1858
   13MOL   C46511289   6.318   7.378   7.034 -0.6819  0.3136  0.1171
   13MOL   C46611290   6.456   7.339   7.035 -0.3634 -0.5372  0.0263
   13MOL   O46711291   6.117   7.390   6.901 -0.3463  0.3680  0.4450
   13MOL   C46811292   6.115   7.491   6.806  0.4982 -0.1117  0.8262
   13MOL   C46911293   6.225   7.575   6.789 -0.0998  0.0199  0.0234
   13MOL   C47011294   6.213   7.686   6.701  0.0766 -0.7100 -0.3723
   13MOL   C47111295   6.086   7.715   6.644 -0.0226  0.9551  0.8211
   13MOL   C47211296   5.972   7.633   6.679 -0.3414  0.3678  0.5804
   13MOL   C47311297   5.985   7.516   6.753 -0.1633  0.0673 -0.0563
   13MOL   C47411298   6.072   7.824   6.552 -0.3331 -0.4845 -0.5892
   13MOL   C47511299   6.058   7.802   6.413 -0.5733 -0.1085 -0.0208
   13MOL   C47611300   6.032   7.912   6.324 -0.3403  0.4354 -0.5242
   13MOL   C47711301   6.017   8.043   6.379  0.0566  0.4266  0.3824
   13MOL   C47811302   6.023   8.062   6.522 -0.0643  0.2224  0.0256
   13MOL   C47911303   6.056   7.955   6.604  0.7315  0.2823 -0.7936
   13MOL   O48011304   5.986   8.155   6.304 -0.0912  0.4717 -0.3408
   13MOL   H48111305   6.799   6.748   6.857 -1.3586  0.1729 -0.7157
   13MOL   H48211306   6.835   6.986   6.865  1.3587  1.0385  3.1655
   13MOL   H48311307   6.471   7.038   7.088  1.8619  0.8996  2.2404
   13MOL   H48411308   6.438   6.789   7.093  0.4542  0.0765  1.7896
   13MOL   H48511309   6.459   7.125   6.771 -1.7144 -1.1482  0.5968
   13MOL   H48611310   6.223   7.189   6.768  2.2430 -1.2235 -0.7063
   13MOL   H48711311   6.268   7.444   7.103 -1.2954 -0.3028  0.2689
   13MOL   H48811312   6.518   7.364   7.120  0.1890  0.9734 -0.7920
   13MOL   H48911313   6.324   7.553   6.825  0.3025  0.6587 -0.6850
   13MOL   H49011314   6.304   7.734   6.668 -0.6008  1.1348  0.3847
   13MOL   H49111315   5.877   7.653   6.632 -0.3640 -0.6665  0.1795
   13MOL   H49211316   5.903   7.454   6.786  0.1108  0.5459  1.5448
   13MOL   H49311317   6.060   7.707   6.362  0.7711  0.4321 -1.0320
   13MOL   H49411318   6.016   7.888   6.220  2.3886  0.9138 -1.0978
   13MOL   H49511319   6.006   8.159   6.566 -1.8595 -0.4299  0.8391
   13MOL   H49611320   6.063   7.981   6.709  1.1844 -1.5871 -0.3406
   13MOL   C49711321   5.858   8.189   6.307 -0.3126 -0.2335  0.2509
   13MOL   C49811322   5.829   8.297   6.391 -0.0672 -0.1171 -0.5370
   13MOL   C49911323   5.692   8.336   6.403  0.0173  0.4818  0.3467
   13MOL   C50011324   5.589   8.264   6.344  0.2883 -0.5069 -0.0381
   13MOL   C50111325   5.616   8.155   6.260 -0.3317  0.1031 -0.1396
   13MOL   C50211326   5.750   8.109   6.249 -0.3282  0.0952 -0.5425
   13MOL   S50311327   5.420   8.292   6.400  0.6015  0.2252  0.1264
   13MOL   O50411328   5.421   0.031   6.506 -0.5062 -0.4087  0.6496
   13MOL   O50511329   5.359   8.161   6.415 -0.0283 -0.3404 -0.1655
   13MOL   C50611330   5.340   8.361   6.252  0.0018 -0.2087  0.5274
   13MOL   C50711331   5.417   0.068   6.161 -0.0728 -0.3964  0.3530
   13MOL   C50811332   5.372   0.115   6.040  0.2345  1.1162 -0.4334
   13MOL   C50911333   5.230   0.099   6.017  0.2042 -0.2110 -0.2023
   13MOL   C51011334   5.154   0.020   6.104 -0.6377 -0.3144  0.1198
   13MOL   C51111335   5.206   8.333   6.222  0.0028 -1.0752  0.2186
   13MOL   O51211336   5.176   0.153   5.901  0.1181  0.3304 -0.4953
   13MOL   C51311337   5.231   0.120   5.777 -0.5135 -0.0817 -0.5799
   13MOL   C51411338   5.317   0.218   5.715  1.4363  0.3259  0.4606
   13MOL   C51511339   5.395   0.171   5.607  0.1378 -0.2428  0.6876
   13MOL   C51611340   5.370   0.051   5.547  0.1972 -0.0410  0.6630
   13MOL   C51711341   5.283   8.325   5.608  0.1101  0.1101 -0.4795
   13MOL   C51811342   5.219   8.354   5.729 -0.3027  0.4720  0.6855
   13MOL   C51911343   5.443   0.018   5.419 -0.0216  0.3122 -0.0994
   13MOL   C52011344   5.549   0.093   5.366  0.1857  0.2105  0.1079
   13MOL   C52111345   5.620   0.053   5.251  0.0584  0.4207  0.0893
   13MOL   C52211346   5.586   8.306   5.181  0.5552  0.5000  0.1087
   13MOL   C52311347   5.475   8.228   5.224 -0.2748 -0.4360  0.1514
   13MOL   C52411348   5.399   8.272   5.341  0.3211  0.2808  0.1880
   13MOL   O52511349   5.670   8.267   5.080  0.3223 -0.3694 -1.0488
   13MOL   H52611350   5.909   8.348   6.440  0.6977  0.0138 -1.8844
   13MOL   H52711351   5.669   0.048   6.473 -1.4310 -0.3536  0.8355
   13MOL   H52811352   5.539   8.105   6.203  0.1586 -0.5696 -0.2202
   13MOL   H52911353   5.786   8.023   6.194 -0.6057 -0.5087  0.2035
   13MOL   H53011354   5.522   0.080   6.183  0.1347 -1.2949 -0.1091
   13MOL   H53111355   5.432   0.169   5.968 -1.4051  0.9820 -1.9105
   13MOL   H53211356   5.053   8.355   6.079 -0.5008  0.9861 -2.0955
   13MOL   H53311357   5.151   8.273   6.293  1.2724 -2.2485  0.2131
   13MOL   H53411358   5.328   0.321   5.746 -4.5534  0.8431  1.6136
   13MOL   H53511359   5.463   0.239   5.557  0.2344 -0.2959  0.7461
   13MOL   H53611360   5.278   8.225   5.566 -1.6034 -0.0005 -0.0326
   13MOL   H53711361   5.161   8.274   5.774  0.9065 -1.9229 -1.8841
   13MOL   H53811362   5.587   0.180   5.417 -0.2621  0.1478  0.5501
   13MOL   H53911363   5.704   0.114   5.223  1.5433 -2.3212 -1.6119
   13MOL   H54011364   5.456   8.140   5.166 -1.1727  0.1220 -0.3982
   13MOL   H54111365   5.315   8.216   5.379 -1.5561  0.6131 -3.3386
   13MOL   C54211366   5.637   8.288   4.946  0.0331  0.1715 -0.5415
   13MOL   C54311367   5.562   0.030   4.903 -0.1290  0.8177  0.5801
   13MOL   C54411368   5.543   0.043   4.764 -0.3741  0.0218  0.9273
   13MOL   C54511369   5.618   8.333   4.671  0.8090 -1.0765 -0.9066
   13MOL   C54611370   5.699   8.232   4.718  0.6072 -0.6016 -0.5929
   13MOL   C54711371   5.708   8.208   4.855 -0.4744 -0.1850  0.1171
   13MOL   S54811372   5.599   0.014   4.498  0.2454 -0.0420 -0.0728
   13MOL   O54911373   5.585   0.162   4.492 -0.0288  0.5351  0.0773
   13MOL   O55011374   5.485   8.310   4.435 -0.5296 -0.3053  0.4747
   13MOL   C55111375   5.753   8.334   4.420 -0.0136  0.0057 -0.3551
   13MOL   C55211376   5.876   0.011   4.473  0.7488  0.0577  0.3876
   13MOL   C55311377   5.998   8.345   4.404  0.1140  0.4025 -0.1531
   13MOL   C55411378   5.993   8.266   4.291 -0.4697  0.6277 -0.6574
   13MOL   C55511379   5.866   8.225   4.235 -0.2758  0.5334 -0.0923
   13MOL   C55611380   5.745   8.256   4.300  0.8456 -0.7536  0.2859
   13MOL   O55711381   6.112   8.231   4.237 -0.3059 -0.2788 -0.2184
   13MOL   C55811382   6.133   8.107   4.176  0.2261 -0.3801  0.4571
   13MOL   C55911383   6.207   8.096   4.055  0.8424 -0.1957 -0.0354
   13MOL   C56011384   6.241   7.973   3.999 -0.2240  0.5474 -0.1017
   13MOL   C56111385   6.202   7.856   4.064  0.2510  0.1125  0.6660
   13MOL   C56211386   6.125   7.861   4.183 -0.1033 -0.0225  0.2865
   13MOL   C56311387   6.095   7.989   4.242 -0.1763  1.0826 -0.2444
   13MOL   C56411388   6.243   7.721   4.016 -0.4487  0.5502  0.2987
   13MOL   C56511389   6.374   7.700   3.967 -0.2853 -0.3165  0.0385
   13MOL   C56611390   6.410   7.574   3.909  0.0269 -0.6334 -0.1958
   13MOL   C56711391   6.314   7.465   3.900 -0.3435  0.5370 -0.0821
   13MOL   C56811392   6.193   7.487   3.963  0.2700 -0.0755 -0.1083
   13MOL   C56911393   6.154   7.612   4.014 -0.6182 -0.2958 -0.0776
   13MOL   O57011394   6.356   7.347   3.852 -0.3112  0.4026 -0.4819
   13MOL   H57111395   5.508   0.073   4.986  0.5079 -0.5458  1.7211
   13MOL   H57211396   5.465   0.108   4.727  0.0597  0.9638  1.6629
   13MOL   H57311397   5.759   8.175   4.648  0.8478  0.0957 -0.9582
   13MOL   H57411398   5.768   8.131   4.900 -0.7827 -1.5453 -1.7274
   13MOL   H57511399   5.874   0.083   4.554 -0.8244 -0.4225  0.7979
   13MOL   H57611400   6.095   0.014   4.437  0.2171 -1.6007  1.7534
   13MOL   H57711401   5.873   8.176   4.139  1.3698  0.8510 -0.1532
   13MOL   H57811402   5.653   8.210   4.265  1.8201 -1.1854 -1.7865
   13MOL   H57911403   6.238   8.185   4.001 -0.5926  0.1736 -0.2785
   13MOL   H58011404   6.300   7.963   3.909 -1.5691 -2.0308 -0.7443
   13MOL   H58111405   6.092   7.769   4.230 -1.9194 -0.4548 -1.7409
   13MOL   H58211406   6.030   7.992   4.329  2.3798  0.4702  1.7352
   13MOL   H58311407   6.438   7.787   3.970  0.1271 -0.6834  2.6567
   13MOL   H58411408   6.506   7.552   3.865  1.0987  0.1721  1.6795
   13MOL   H58511409   6.118   7.409   3.963 -0.1034  0.2783 -0.7160
   13MOL   H58611410   6.056   7.614   4.061 -1.1837  0.6935 -1.2598
   13MOL   C58711411   6.286   7.281   3.753 -0.0697 -0.0016 -0.2764
   13MOL   C58811412   6.247   7.342   3.635  0.3682 -0.4925 -0.2872
   13MOL   C58911413   6.174   7.272   3.536  0.2081 -0.9011 -0.0580
   13MOL   C59011414   6.145   7.137   3.562 -0.0965  0.4915  0.1530
   13MOL   C59111415   6.183   7.070   3.684  0.2327  0.3635 -0.3749
   13MOL   C59211416   6.251   7.149   3.775 -0.2244 -0.2490 -0.2150
   13MOL   S59311417   6.066   7.035   3.431 -0.4472 -0.0166 -0.2114
   13MOL   O59411418   6.049   7.124   3.312 -0.0467  0.1982 -0.5100
   13MOL   O59511419   5.945   6.969   3.486  0.1435 -0.0717  0.6240
   13MOL   C59611420   6.191   6.911   3.391 -0.7637  0.7016 -0.3331
   13MOL   C59711421   6.153   6.785   3.343  0.0782 -0.5933 -0.3093
   13MOL   C59811422   6.242   6.685   3.310 -0.3797 -0.1497  0.9179
   13MOL   C59911423   6.378   6.719   3.314 -0.3969 -0.5581 -0.1174
   13MOL   C60011424   6.429   6.851   3.349 -1.0454  0.3631 -0.1435
   13MOL   C60111425   6.331   6.941   3.387 -0.1067  0.5555  0.0506
   13MOL   O60211426   6.461   6.621   3.271 -0.1207  0.2843 -0.8755
   13MOL   C60311427   6.486   6.514   3.353  0.1931 -0.6650 -0.8515
   13MOL   C60411428   6.421   6.393   3.317 -0.4133 -0.3937  0.4769
   13MOL   C60511429   6.455   6.278   3.392 -0.1782  0.0501  0.0844
   13MOL   C60611430   6.559   6.278   3.494 -0.8165 -0.2245  0.8476
   13MOL   C60711431   6.625   6.404   3.523  0.2840 -0.3952 -0.0209
   13MOL   C60811432   6.579   6.522   3.458 -0.0431 -0.1923 -0.4130
   13MOL   C60911433   6.607   6.155   3.546 -0.8972  1.2519 -1.0902
   13MOL   C61011434   6.629   6.134   3.686 -0.0731 -0.4146 -0.1984
   13MOL   C61111435   6.703   6.023   3.735  0.0161 -0.4342 -0.5050
   13MOL   C61211436   6.770   5.938   3.642  0.0875  0.1452 -0.0517
   13MOL   C61311437   6.746   5.954   3.504 -0.7109  0.3949 -0.2083
   13MOL   C61411438   6.668   6.058   3.457 -0.0842 -0.1665 -0.4205
   13MOL   O61511439   6.846   5.841   3.698 -0.3471  0.0879 -0.2421
   13MOL   H61611440   6.270   7.446   3.618 -2.9627 -0.3011 -4.5499
   13MOL   H61711441   6.150   7.318   3.442  2.0800 -2.8945 -1.5490
   13MOL   H61811442   6.172   6.969   3.720 -1.9210  1.8923  3.6836
   13MOL   H61911443   6.284   7.108   3.870  0.7930 -0.6447 -0.7335
   13MOL   H62011444   6.049   6.763   3.324 -0.3335  1.7525 -0.9705
   13MOL   H62111445   6.214   6.585   3.281 -1.8057  0.7111 -0.7426
   13MOL   H62211446   6.533   6.878   3.358 -0.8589 -0.3719 -0.0143
   13MOL   H62311447   6.365   7.040   3.412 -1.0800  0.8061  0.4062
   13MOL   H62411448   6.341   6.384   3.245 -0.1432 -1.4960  0.3171
   13MOL   H62511449   6.408   6.184   3.369 -2.3244  0.6553  1.8506
   13MOL   H62611450   6.706   6.409   3.594  0.0640  2.1671  0.0835
   13MOL   H62711451   6.622   6.616   3.491  0.2602 -0.7585  0.8621
   13MOL   H62811452   6.571   6.199   3.750 -0.8753 -0.6060 -0.7328
   13MOL   H62911453   6.705   6.000   3.840  0.7434  2.2569  0.1121
   13MOL   H63011454   6.799   5.890   3.434  0.9168 -0.4932  1.7602
   13MOL   H63111455   6.649   6.067   3.351 -2.9337 -2.6442 -0.1819
   13MOL   C63211456   6.854   5.722   3.634 -0.4285  0.2823 -0.3483
   13MOL   C63311457   6.975   5.686   3.569  0.8075 -0.2236 -0.0256
   13MOL   C63411458   6.979   5.574   3.486  0.4274  0.2059 -0.2114
   13MOL   C63511459   6.868   5.488   3.474  0.4976  0.0395  0.1624
   13MOL   C63611460   6.746   5.522   3.539  0.3730  0.0997 -0.3158
   13MOL   C63711461   6.742   5.637   3.621  0.2580  0.5879 -0.2038
   13MOL   S63811462   6.870   5.335   3.383  0.2361  0.5256  0.0248
   13MOL   O63911463   7.006   5.325   3.327  0.2512  0.3171 -0.1322
   13MOL   O64011464   6.754   5.339   3.290  0.1326 -0.0371  0.4987
   13MOL   C64111465   6.848   5.211   3.510  0.2922  0.6433  0.6280
   13MOL   C64211466   6.961   5.149   3.570  0.2609 -0.2395  0.0075
   13MOL   C64311467   6.952   5.073   3.688  0.9196 -0.0376  0.2762
   13MOL   C64411468   6.823   5.035   3.734  0.4642 -0.0124  0.3116
   13MOL   C64511469   6.711   5.081   3.667 -0.5220  0.5070  0.8458
   13MOL   C64611470   6.722   5.170   3.557 -0.0484 -0.5314 -0.4201
   13MOL   O64711471   6.812   4.938   3.829 -0.0569  0.1681 -0.0028
   13MOL   C64811472   6.858   4.815   3.790  0.3752 -0.4853  0.9274
   13MOL   C64911473   6.824   4.753   3.671  0.8364  0.0315 -0.2680
   13MOL   C65011474   6.873   4.628   3.637 -0.2586 -0.5689  0.0049
   13MOL   C65111475   6.963   4.558   3.722 -0.5227 -0.8118  0.1261
   13MOL   C65211476   6.973   4.609   3.857  0.3323  0.5621  0.3502
   13MOL   C65311477   6.927   4.737   3.886  0.0176  0.3802  0.3375
   13MOL   C65411478   7.038   4.434   3.678  0.2175 -0.9002 -0.5232
   13MOL   C65511479   7.163   4.413   3.734  0.1415 -0.3498 -0.4316
   13MOL   C65611480   7.247   4.312   3.677  0.2722  0.1008  0.4241
   13MOL   C65711481   7.206   4.231   3.565  0.2349  0.2089  0.4557
   13MOL   C65811482   7.073   4.237   3.530  0.4548  0.0624 -0.1034
   13MOL   C65911483   6.988   4.342   3.582  0.1528 -0.1465 -0.0579
   13MOL   O66011484   7.290   4.136   3.509  0.0327 -0.2736 -0.0345
   13MOL   H66111485   7.068   5.736   3.591  0.4452 -0.0498  1.1324
   13MOL   H66211486   7.074   5.547   3.441 -0.2468  0.2579 -1.6838
   13MOL   H66311487   6.651   5.473   3.531 -0.0053  0.9260 -0.9549
   13MOL   H66411488   6.656   5.652   3.685 -1.3575 -3.0198 -1.3853
   13MOL   H66511489   7.057   5.165   3.524  0.5052  0.6031  0.7749
   13MOL   H66611490   7.044   5.035   3.730  0.8152 -1.3115 -0.5898
   13MOL   H66711491   6.610   5.050   3.690  0.0486 -3.7844 -1.8294
   13MOL   H66811492   6.631   5.198   3.506  0.2137  1.0755 -0.0440
   13MOL   H66911493   6.753   4.801   3.605  1.4153  1.5359  0.1861
   13MOL   H67011494   6.848   4.575   3.547 -2.6234 -0.4772  0.5753
   13MOL   H67111495   7.030   4.568   3.939  1.1278  1.0823  0.0685
   13MOL   H67211496   6.940   4.782   3.984  2.0395 -0.9119  0.7077
   13MOL   H67311497   7.195   4.477   3.815  1.0307 -2.2828  0.7807
   13MOL   H67411498   7.347   4.288   3.710  0.1963 -0.2736  0.3890
   13MOL   H67511499   7.024   4.161   3.471  0.0119  0.5031 -0.3093
   13MOL   H67611500   6.885   4.354   3.552 -0.2747  0.3598  1.5494
   13MOL   C67711501   7.301   4.005   3.542 -0.0763 -0.2042  0.1608
   13MOL   C67811502   7.351   3.968   3.671  1.0039 -0.2177  0.2450
   13MOL   C67911503   7.343   3.835   3.715 -0.3546 -0.2274  0.6509
   13MOL   C68011504   7.302   3.737   3.621 -0.2076  1.5713 -0.7090
   13MOL   C68111505   7.255   3.770   3.492 -0.1011  0.0187  0.2541
   13MOL   C68211506   7.249   3.907   3.454  0.0539  0.0203 -0.5658
   13MOL   S68311507   7.320   3.574   3.674 -0.1807  0.0335  0.2241
   13MOL   O68411508   7.321   3.564   3.819 -0.0020 -0.0348 -0.1634
   13MOL   O68511509   7.430   3.514   3.592 -0.1140  1.0524  0.1408
   13MOL   C68611510   7.162   3.500   3.621 -0.1235  0.5572  0.4502
   13MOL   C68711511   7.155   3.428   3.500 -1.1855 -0.9212 -0.0752
   13MOL   C68811512   7.038   3.356   3.467  0.0579 -0.3437  0.1031
   13MOL   C68911513   6.930   3.348   3.556 -0.8102 -0.0392 -0.1785
   13MOL   C69011514   6.933   3.428   3.677 -0.5902 -0.1588  0.3725
   13MOL   C69111515   7.043   3.510   3.707 -0.3510  0.0628 -0.4392
   13MOL   O69211516   6.817   3.276   3.540  0.5204 -0.4106  0.0672
   13MOL   C69311517   6.817   3.175   3.446 -0.1122 -0.0461 -0.1919
   13MOL   C69411518   6.714   3.175   3.356 -0.7355 -1.0761 -0.4365
   13MOL   C69511519   6.701   3.061   3.268 -0.3557  0.0090  0.0649
   13MOL   C69611520   6.794   2.956   3.269 -0.0800  0.0828 -0.6350
   13MOL   C69711521   6.894   2.955   3.366 -0.7153 -0.4143 -0.2866
   13MOL   C69811522   6.903   3.066   3.459  0.4918  0.1067  0.4686
   13MOL   C69911523   6.797   2.847   3.161 -0.1321  0.5488 -0.2503
   13MOL   C70011524   6.696   2.748   3.146  0.8252  0.7882 -0.4850
   13MOL   C70111525   6.711   2.651   3.049 -0.2081  0.3742  0.3535
   13MOL   C70211526   6.817   2.648   2.966  0.5639  0.2176 -0.4829
   13MOL   C70311527   6.924   2.744   2.980  0.6293  0.0852  0.7744
   13MOL   C70411528   6.907   2.847   3.076 -0.0896  0.0843  0.7605
   13MOL   O70511529   6.815   2.558   2.865 -0.0499  0.1255  0.1091
   13MOL   H70611530   7.384   4.040   3.746  0.3404  0.5881 -0.2343
   13MOL   H70711531   7.387   3.808   3.809 -1.0265 -1.5126  0.6113
   13MOL   H70811532   7.228   3.694   3.420  1.1622  1.7320 -2.1137
   13MOL   H70911533   7.212   3.919   3.353 -0.4810  0.3728 -0.3348
   13MOL   H71011534   7.243   3.419   3.438  0.6975  2.4224  1.9784
   13MOL   H71111535   7.031   3.311   3.369  1.0478  0.6145 -0.4064
   13MOL   H71211536   6.850   3.410   3.744 -0.4069 -0.7015  0.4533
   13MOL   H71311537   7.039   3.566   3.799 -0.6212  0.6189 -0.7870
   13MOL   H71411538   6.637   3.250   3.352  2.0501  2.1138  2.4059
   13MOL   H71511539   6.628   3.064   3.188  1.1405 -1.4656 -1.4021
   13MOL   H71611540   6.969   2.880   3.380  0.6282  1.2047  1.5042
   13MOL   H71711541   6.966   3.057   3.547  0.0359  0.3986  0.8276
   13MOL   H71811542   6.617   2.747   3.220  0.8696 -1.4950 -0.4359
   13MOL   H71911543   6.625   2.589   3.026  0.2744 -0.4171  0.6588
   13MOL   H72011544   7.013   2.752   2.920  1.9564 -1.4330  2.4762
   13MOL   H72111545   6.985   2.915   3.107  0.1012  0.0792  0.3005
   13MOL   C72211546   6.938   2.497   2.846  0.3724 -0.2454  0.2739
   13MOL   C72311547   6.985   2.396   2.933 -0.4684 -0.4571 -0.0439
   13MOL   C72411548   7.094   2.309   2.907 -0.4545 -0.6904 -0.6092
   13MOL   C72511549   7.159   2.333   2.788 -0.0047  0.1948  0.4430
   13MOL   C72611550   7.115   2.439   2.706  0.1285  0.7294  0.3741
   13MOL   C72711551   7.007   2.518   2.728  0.0350 -0.3658 -0.1624
   13MOL   S72811552   7.303   2.240   2.745  0.1245 -0.2788 -0.4209
   13MOL   O72911553   7.275   2.141   2.640  0.2847 -0.1218 -0.8029
   13MOL   O73011554   7.370   2.204   2.873  0.3975 -0.7095  0.0691
   13MOL   C73111555   7.410   2.359   2.672 -0.2132 -0.2796  0.8652
   13MOL   C73211556   7.440   2.362   2.534  0.1462 -0.4784  0.0803
   13MOL   C73311557   7.541   2.449   2.487  0.5536  0.2585 -0.8285
   13MOL   C73411558   7.598   2.545   2.575 -0.4456  0.7468  0.0002
   13MOL   C73511559   7.565   2.544   2.712  0.3965  0.1243  0.3852
   13MOL   C73611560   7.471   2.450   2.757  0.4994  0.1120  0.6324
   13MOL   O73711561   7.691   2.638   2.533 -0.5640  0.2104 -0.0181
   13MOL   C73811562   7.636   2.742   2.461  0.8029 -0.0792 -0.1363
   13MOL   C73911563   7.522   2.814   2.502 -0.5335 -0.4943  0.4277
   13MOL   C74011564   7.466   2.907   2.413 -0.0376  0.5691 -0.4431
   13MOL   C74111565   7.528   2.929   2.287  0.0095 -0.3983  0.9489
   13MOL   C74211566   7.643   2.861   2.254 -0.2301 -0.1144  0.3161
   13MOL   C74311567   7.701   2.769   2.340  0.1685 -0.1041  0.4679
   13MOL   C74411568   7.463   3.023   2.193 -0.2976 -0.5132 -0.3316
   13MOL   C74511569   7.321   3.040   2.186  0.0273 -0.2148 -0.0785
   13MOL   C74611570   7.259   3.115   2.089  0.0689  0.8724  0.2294
   13MOL   C74711571   7.343   3.188   2.004  1.0604 -0.0921  0.0867
   13MOL   C74811572   7.484   3.176   2.011  0.5378 -0.7447 -0.0719
   13MOL   C74911573   7.543   3.084   2.100 -0.0929 -0.4910 -0.0011
   13MOL   O75011574   7.281   3.269   1.912 -0.3022 -0.3341  0.2373
   13MOL   H75111575   6.941   2.376   3.029  1.2712 -1.1686  0.6189
   13MOL   H75211576   7.135   2.240   2.979  0.9277 -0.1867 -0.8978
   13MOL   H75311577   7.163   2.449   2.609 -2.0891 -3.1218 -1.2452
   13MOL   H75411578   6.964   2.588   2.658  0.5885 -0.4826 -0.6269
   13MOL   H75511579   7.399   2.289   2.466 -0.1652 -1.1814  1.0067
   13MOL   H75611580   7.571   2.439   2.384  1.1262 -0.5225 -0.5929
   13MOL   H75711581   7.608   2.608   2.788 -0.5032 -0.7937  1.7143
   13MOL   H75811582   7.453   2.451   2.863 -0.9973  1.5996  0.3929
   13MOL   H75911583   7.473   2.783   2.594 -0.8729 -1.2099  0.0175
   13MOL   H76011584   7.378   2.964   2.441  0.4021  1.8403 -1.6211
   13MOL   H76111585   7.697   2.880   2.163 -1.3373  1.1604 -0.0874
   13MOL   H76211586   7.789   2.718   2.305  0.4281  0.3073  0.5145
   13MOL   H76311587   7.259   2.977   2.249  0.2498  0.3189  0.6814
   13MOL   H76411588   7.153   3.107   2.072  0.0429 -0.8187  1.0710
   13MOL   H76511589   7.553   3.233   1.950  1.5374 -2.9053 -0.9832
   13MOL   H76611590   7.651   3.074   2.097 -0.1755 -1.7054  0.7760
   13MOL   C76711591   7.200   3.372   1.955  0.3014  0.1916 -0.0884
   13MOL   C76811592   7.238   3.459   2.056  0.5126  0.2827 -0.5361
   13MOL   C76911593   7.153   3.558   2.102 -0.3865 -0.2574 -0.0987
   13MOL   C77011594   7.027   3.582   2.046  0.3707  0.2253  0.6788
   13MOL   C77111595   6.989   3.502   1.937 -0.3502 -0.2603  0.0797
   13MOL   C77211596   7.076   3.396   1.895 -0.4249  0.9383  0.0850
   13MOL   S77311597   6.913   3.708   2.096  0.2202 -0.1251 -0.1591
   13MOL   O77411598   6.804   3.648   2.173 -0.2437  0.3100  0.1618
   13MOL   O77511599   6.875   3.763   1.968  1.0122  0.0502 -0.2658
   13MOL   C77611600   7.006   3.826   2.197  0.3224  0.1503 -0.7130
   13MOL   C77711601   6.958   3.867   2.321 -0.1745 -0.6380 -0.3211
   13MOL   C77811602   7.019   3.973   2.389 -0.3769  0.7311  1.1533
   13MOL   C77911603   7.140   4.021   2.347 -0.7171 -0.6690  0.5321
   13MOL   C78011604   7.193   3.972   2.222 -0.0594  0.0931 -0.7253
   13MOL   C78111605   7.128   3.873   2.149 -0.4533  0.3683 -0.4099
   13MOL   O78211606   7.211   4.121   2.417  0.2548  0.2731  0.6478
   13MOL   C78311607   7.221   4.251   2.362 -0.2191  0.0067 -0.2341
   13MOL   C78411608   7.338   4.314   2.332  0.0059 -0.2676  0.7185
   13MOL   C78511609   7.344   4.453   2.302  0.7019  0.5874  0.6107
   13MOL   C78611610   7.228   4.533   2.291 -0.1286  0.4751  0.1240
   13MOL   C78711611   7.107   4.463   2.318 -0.6475 -0.3363 -0.6424
   13MOL   C78811612   7.103   4.325   2.348  0.3596 -0.7286  0.1062
   13MOL   C78911613   7.230   4.675   2.272  0.3674  0.0451 -0.9059
   13MOL   C79011614   7.128   4.748   2.208  0.2839 -0.0564  0.0510
   13MOL   C79111615   7.114   4.884   2.218 -0.2991 -0.4698 -0.1900
   13MOL   C79211616   7.224   4.956   2.275 -0.0956  0.4435  0.7062
   13MOL   C79311617   7.339   4.892   2.310  0.3200  0.5179 -0.9812
   13MOL   C79411618   7.342   4.751   2.315 -0.1542 -0.7157  0.3580
   13MOL   O79511619   7.217   5.087   2.288  0.3361  0.4026  0.3174
   13MOL   H79611620   7.335   3.459   2.103  0.6830  1.1789 -0.8756
   13MOL   H79711621   7.181   3.619   2.186 -0.6465 -0.8301  0.4004
   13MOL   H79811622   6.895   3.516   1.886 -0.7224 -3.0753 -0.1159
   13MOL   H79911623   7.054   3.330   1.813 -0.7461 -0.1665  1.0509
   13MOL   H80011624   6.867   3.846   2.375 -0.0477 -1.3973 -0.3942
   13MOL   H80111625   6.972   4.013   2.478 -1.6769  1.6449  0.0790
   13MOL   H80211626   7.291   4.003   2.189 -0.1379 -1.6477 -2.7117
   13MOL   H80311627   7.172   3.847   2.054 -1.6449  0.2150 -0.9275
   13MOL   H80411628   7.429   4.256   2.340 -0.3972 -1.2340 -1.3130
   13MOL   H80511629   7.447   4.486   2.296  0.8402  0.3706  1.6772
   13MOL   H80611630   7.018   4.524   2.314 -2.0042 -2.2870 -0.8604
   13MOL   H80711631   7.008   4.280   2.373 -1.4707  2.2800 -1.2200
   13MOL   H80811632   7.052   4.695   2.152 -0.2487  0.8481 -0.0842
   13MOL   H80911633   7.027   4.929   2.173 -1.0040 -2.3618 -0.7861
   13MOL   H81011634   7.428   4.948   2.337  0.4255  0.9568 -2.2065
   13MOL   H81111635   7.429   4.701   2.356  0.5421  0.0888 -0.1114
   13MOL   C81211636   7.118   5.144   2.359 -0.2676 -0.0532 -0.3832
   13MOL   C81311637   7.115   5.123   2.493 -0.7636  0.9485 -0.4239
   13MOL   C81411638   7.009   5.180   2.571 -0.0146 -0.0369  0.5990
   13MOL   C81511639   6.908   5.259   2.506 -0.2299 -0.2055  0.2444
   13MOL   C81611640   6.918   5.282   2.366 -0.6566 -0.9532  0.3191
   13MOL   C81711641   7.029   5.237   2.292 -0.3417  0.5340 -0.0151
   13MOL   S81811642   6.771   5.317   2.595  0.0529 -0.0713  0.0407
   13MOL   O81911643   6.654   5.257   2.526  0.1680 -0.3490  0.0067
   13MOL   O82011644   6.781   5.461   2.610  0.3955  0.4335 -0.1632
   13MOL   C82111645   6.787   5.245   2.764  0.2341  0.1126  0.6692
   13MOL   C82211646   6.858   5.316   2.862  0.5656 -0.3300 -0.7677
   13MOL   C82311647   6.891   5.251   2.980  0.0814 -0.2035 -0.7393
   13MOL   C82411648   6.856   5.112   3.004  0.0116 -0.6148  0.0908
   13MOL   C82511649   6.762   5.057   2.907 -0.1363  1.1846  0.3413
   13MOL   C82611650   6.730   5.120   2.786 -0.2010 -0.8669  0.7604
   13MOL   O82711651   6.906   5.045   3.114  0.5101 -0.3349  0.2181
   13MOL   C82811652   6.828   4.947   3.182 -0.4085  0.3075 -0.2260
   13MOL   C82911653   6.705   4.984   3.228 -0.2999 -0.6464  0.5746
   13MOL   C83011654   6.618   4.901   3.301 -0.3443  1.3252 -0.6309
   13MOL   C83111655   6.665   4.767   3.329  0.0919  0.9891 -0.5896
   13MOL   C83211656   6.796   4.726   3.278 -0.0266 -0.7234 -0.1259
   13MOL   C83311657   6.875   4.816   3.207 -0.5734 -0.1452  0.7722
   13MOL   C83411658   6.584   4.668   3.412  0.4926  0.4379  0.0959
   13MOL   C83511659   6.505   4.713   3.520 -0.1130 -0.9479 -0.0757
   13MOL   C83611660   6.438   4.630   3.616 -0.6037  0.2452  0.0575
   13MOL   C83711661   6.439   4.492   3.593 -0.2404 -0.2900 -0.4249
   13MOL   C83811662   6.514   4.442   3.480 -0.2391 -0.0248  0.2036
   13MOL   C83911663   6.593   4.526   3.391  0.8322 -0.3556  0.5153
   13MOL   O84011664   6.379   4.403   3.677 -0.4261 -0.0172  0.2855
   13MOL   H84111665   7.178   5.054   2.548 -1.7200  0.0346 -0.4604
   13MOL   H84211666   7.018   5.155   2.676  0.9187  0.1555  0.5708
   13MOL   H84311667   6.835   5.324   2.310 -0.6443 -1.5131 -0.1296
   13MOL   H84411668   7.044   5.258   2.187 -0.0934  0.0553 -0.0823
   13MOL   H84511669   6.897   5.415   2.846  1.4671 -0.6532 -0.5627
   13MOL   H84611670   6.959   5.293   3.052  0.4352 -0.5899 -0.8453
   13MOL   H84711671   6.718   4.959   2.920 -2.1099  1.8753 -0.9073
   13MOL   H84811672   6.658   5.077   2.718 -1.3548  2.1416  0.0112
   13MOL   H84911673   6.678   5.087   3.210  0.9350 -0.2185  1.0770
   13MOL   H85011674   6.524   4.932   3.343 -0.4955  0.8835 -0.6334
   13MOL   H85111675   6.845   4.637   3.317  0.3675 -0.7115 -0.5877
   13MOL   H85211676   6.975   4.791   3.176 -0.7728  1.2089 -1.0098
   13MOL   H85311677   6.485   4.817   3.538  0.2553 -1.1026  1.2896
   13MOL   H85411678   6.385   4.677   3.697 -0.6035 -0.2534  0.3467
   13MOL   H85511679   6.507   4.337   3.453 -1.2629  0.5477 -1.8515
   13MOL   H85611680   6.657   4.492   3.311 -1.8068  0.7071 -2.1315
   13MOL   C85711681   6.323   4.441   3.799  0.5001  0.4480  0.0004
   13MOL   C85811682   6.180   4.457   3.794 -0.1431 -0.0452  0.1317
   13MOL   C85911683   6.101   4.460   3.907  0.0813 -0.1860 -0.7127
   13MOL   C86011684   6.173   4.469   4.034  0.3238  0.0817  0.6497
   13MOL   C86111685   6.319   4.468   4.037  0.7719 -0.6707 -0.3655
   13MOL   C86211686   6.391   4.456   3.919 -0.4992  0.8611  0.7282
   13MOL   S86311687   6.079   4.490   4.189  0.1030  0.2666  0.1130
   13MOL   O86411688   6.003   4.614   4.178 -0.0743  0.0862 -0.2822
   13MOL   O86511689   6.161   4.471   4.310 -0.4177  0.1245 -0.5703
   13MOL   C86611690   5.966   4.353   4.201 -0.2529  0.1155  0.2108
   13MOL   C86711691   6.013   4.225   4.236  1.4222 -0.5209  0.0972
   13MOL   C86811692   5.927   4.117   4.266  0.1097 -0.4238  0.2104
   13MOL   C86911693   5.786   4.140   4.264  0.0092  0.0771 -0.1994
   13MOL   C87011694   5.737   4.268   4.232 -0.6727 -0.2312  0.1407
   13MOL   C87111695   5.826   4.372   4.192  0.5369  0.1179  0.2554
   13MOL   O87211696   5.699   4.046   4.300 -0.7736 -0.0444  0.3436
   13MOL   C87311697   5.620   3.988   4.208 -0.3350 -0.4471  0.0386
   13MOL   C87411698   5.674   3.895   4.118 -0.2672 -0.3059  0.6164
   13MOL   C87511699   5.584   3.820   4.035  0.3131 -0.3124  0.0454
   13MOL   C87611700   5.446   3.852   4.034  0.4263 -0.3142  0.9772
   13MOL   C87711701   5.395   3.939   4.131 -0.0167  0.0059  0.3686
   13MOL   C87811702   5.485   4.007   4.220 -0.3134 -0.8418 -0.1227
   13MOL   C87911703   5.348   3.803   3.938 -0.1435 -0.3470  0.2060
   13MOL   C88011704   5.211   3.784   3.977 -0.3347 -0.8952 -0.4191
   13MOL   C88111705   5.113   3.735   3.883 -0.1717  0.1901  0.3652
   13MOL   C88211706   5.155   3.693   3.752  0.9949  0.1564 -0.2247
   13MOL   C88311707   5.288   3.721   3.713  0.5953 -0.3909  0.1057
   13MOL   C88411708   5.383   3.780   3.800  0.6194  0.4991  0.1734
   13MOL   O88511709   5.074   3.623   3.665  0.0123 -0.1216  0.4904
   13MOL   H88611710   6.133   4.445   3.697  0.7911 -0.7154 -0.2458
   13MOL   H88711711   5.994   4.452   3.894  0.1159 -1.3462 -0.3350
   13MOL   H88811712   6.364   4.467   4.135 -1.1015  0.2888  0.5313
   13MOL   H88911713   6.497   4.451   3.901 -0.3788  0.8170  1.4344
   13MOL   H89011714   6.120   4.214   4.241  1.8606  3.5293  1.4053
   13MOL   H89111715   5.969   4.023   4.298 -0.5181 -0.6840  0.2845
   13MOL   H89211716   5.631   4.289   4.230 -0.6981 -0.3683  0.0673
   13MOL   H89311717   5.783   4.465   4.159  1.1814  0.2520 -0.2084
   13MOL   H89411718   5.782   3.892   4.119 -0.3005 -1.9963  0.1005
   13MOL   H89511719   5.637   3.740   3.986  2.1558  0.7688  0.2018
   13MOL   H89611720   5.293   3.972   4.143  0.2946  0.5893  1.4499
   13MOL   H89711721   5.450   4.080   4.292  0.8623  2.6977 -2.9847
   13MOL   H89811722   5.180   3.806   4.078 -1.5953 -3.0210 -0.3172
   13MOL   H89911723   5.011   3.708   3.904  0.1492 -1.7471 -0.5154
   13MOL   H90011724   5.313   3.696   3.611 -1.6258  0.5833 -0.7234
   13MOL   H90111725   5.478   3.809   3.756 -1.2880  4.1911 -1.7237
   13MOL   H90211726   4.984   3.630   3.695  0.3848 -2.1939  2.2474
   14MOL     C111727   6.506   7.922   4.408 -0.1924 -0.2660  0.0232
   14MOL     C211728   6.469   7.911   4.548 -0.0843 -0.3004 -0.5586
   14MOL     C311729   6.375   7.813   4.589 -0.6387 -0.2515 -0.6258
   14MOL     C411730   6.331   7.720   4.491  0.2575 -0.2600 -0.6335
   14MOL     C511731   6.369   7.733   4.356  0.0490  0.3664  0.0027
   14MOL     C611732   6.461   7.831   4.311 -0.0741  0.5086 -0.0328
   14MOL     S711733   6.222   7.587   4.532 -0.2431  0.4150 -0.1980
   14MOL     O811734   6.301   7.471   4.579  0.0292  0.5063 -0.0283
   14MOL     O911735   6.128   7.576   4.422  0.5821 -0.6346 -0.7929
   14MOL    C1011736   6.126   7.640   4.682 -0.0241 -0.0350  0.4746
   14MOL    C1111737   6.170   7.610   4.812 -0.2479  0.4874 -0.2631
   14MOL    C1211738   6.103   7.657   4.927  0.6035  0.0375  0.3627
   14MOL    C1311739   5.986   7.737   4.917 -0.2015 -0.0808  0.4278
   14MOL    C1411740   5.954   7.783   4.784  0.3901  0.6212  0.1939
   14MOL    C1511741   6.020   7.730   4.670 -0.0816 -0.6739  0.2031
   14MOL    O1611742   5.924   7.791   5.027  0.1742 -0.1027  0.0351
   14MOL    C1711743   5.952   7.917   5.063 -0.4532  0.2750 -0.3518
   14MOL    C1811744   5.873   7.973   5.157  0.4325 -0.2986  0.2076
   14MOL    C1911745   5.885   8.104   5.193  0.8409  0.2572 -1.3133
   14MOL    C2011746   5.985   8.182   5.142  0.4346  0.4193 -0.4361
   14MOL    C2111747   6.065   8.133   5.039  0.2061 -0.5752  0.2730
   14MOL    C2211748   6.051   8.000   4.999 -0.5662  0.1755  0.3914
   14MOL    C2311749   6.000   8.326   5.178 -0.0420  0.6524 -0.2960
   14MOL    C2411750   6.006   8.361   5.310  1.4162  0.0877 -0.7000
   14MOL    C2511751   6.010   0.130   5.357 -1.0193  0.7441  0.1796
   14MOL    C2611752   6.007   0.230   5.259  0.8236  0.2667  1.2635
   14MOL    C2711753   5.989   0.204   5.130  0.7847  0.5296  0.0090
   14MOL    C2811754   5.981   0.067   5.088 -0.0572 -0.8009  0.0023
   14MOL    O2911755   6.006   0.358   5.298 -0.0016  0.3476  0.2498
   14MOL    H3011756   6.507   7.993   4.607 -2.6829 -1.0136  2.2583
   14MOL    H3111757   6.345   7.800   4.692 -1.2234 -0.4008 -0.8095
   14MOL    H3211758   6.331   7.663   4.284 -0.6840  0.4450  0.3137
   14MOL    H3311759   6.496   7.841   4.210  0.9800 -1.6483  0.0993
   14MOL    H3411760   6.248   7.539   4.832 -1.8305 -0.8890  1.2772
   14MOL    H3511761   6.141   7.630   5.024 -1.1428 -0.6117  0.8848
   14MOL    H3611762   5.872   7.851   4.772  0.3502  0.5445  0.0290
   14MOL    H3711763   5.998   7.761   4.569  0.9231  1.1251  0.5360
   14MOL    H3811764   5.801   7.901   5.193 -2.5877  0.2501 -4.3225
   14MOL    H3911765   5.817   8.126   5.274  0.6454 -1.1835 -1.0671
   14MOL    H4011766   6.144   8.196   5.004 -1.0404  1.4315  0.9710
   14MOL    H4111767   6.110   7.966   4.915 -0.9954 -2.4809  1.1202
   14MOL    H4211768   5.992   8.284   5.385 -4.7171  1.0190 -0.6332
   14MOL    H4311769   6.027   0.147   5.462 -1.6995  0.8025  0.2796
   14MOL    H4411770   5.999   0.286   5.060  2.6661  0.5729  0.3165
   14MOL    H4511771   5.975   0.047   4.982  1.2822  2.1245 -0.6830
   14MOL    H4611772   6.568   8.002   4.370  1.3163 -0.8684  1.1116
   14MOL    C4711773   5.884   0.412   5.337 -0.2093  1.0014 -0.0625
   14MOL    C4811774   5.811   0.504   5.260 -0.1747  0.1570  0.2448
   14MOL    C4911775   5.687   0.566   5.298  0.0674  0.5062 -0.5757
   14MOL    C5011776   5.634   0.526   5.421  0.2011 -0.9999  0.4623
   14MOL    C5111777   5.703   0.429   5.500 -0.1500  0.1500  0.2727
   14MOL    C5211778   5.827   0.374   5.461  0.1621  0.0449 -0.3818
   14MOL    S5311779   5.479   0.594   5.479  0.1136  0.1883  0.2614
   14MOL    O5411780   5.466   0.734   5.434 -0.0571  0.0518  0.2190
   14MOL    O5511781   5.448   0.545   5.616  0.5299 -0.3432  0.4273
   14MOL    C5611782   5.364   0.512   5.382 -0.0346 -0.0297  0.6895
   14MOL    C5711783   5.399   0.419   5.281 -0.3930 -0.8158 -0.1964
   14MOL    C5811784   5.296   0.367   5.203 -0.3362  0.0856 -0.2033
   14MOL    C5911785   5.164   0.407   5.209  0.3353  0.5289 -0.1246
   14MOL    C6011786   5.129   0.501   5.308  0.0783 -0.0693 -0.2478
   14MOL    C6111787   5.226   0.556   5.395  0.0550  0.4309 -0.1518
   14MOL    O6211788   5.075   0.360   5.114  0.5204  0.0164  0.1197
   14MOL    C6311789   5.016   0.241   5.157 -0.3235 -0.0669  0.2781
   14MOL    C6411790   5.086   0.124   5.130  0.4181 -0.0176 -0.0432
   14MOL    C6511791   5.033   0.001   5.175  0.1235  0.1357  0.1299
   14MOL    C6611792   4.919   8.362   5.260 -0.0592  0.0262  0.3894
   14MOL    C6711793   4.840   0.116   5.267 -0.9275 -0.4375 -0.0498
   14MOL    C6811794   4.891   0.240   5.218 -0.3454  0.7390 -0.8417
   14MOL    C6911795   4.890   8.246   5.352  0.1138  0.3657  0.3487
   14MOL    C7011796   4.754   8.206   5.371  0.5738  0.0187 -1.0623
   14MOL    C7111797   4.721   8.103   5.468 -0.4986 -0.7400  0.5492
   14MOL    C7211798   4.831   8.026   5.525 -0.5281  0.0555  0.2931
   14MOL    C7311799   4.962   8.056   5.499 -0.4131 -0.5144  0.3308
   14MOL    C7411800   4.994   8.166   5.414 -0.1412 -0.2162  0.7811
   14MOL    O7511801   4.808   7.923   5.618 -0.0252 -0.0527 -0.1208
   14MOL    H7611802   5.847   0.524   5.160  2.9206  0.5376  1.3591
   14MOL    H7711803   5.648   0.641   5.231 -1.9720  0.2289  0.2579
   14MOL    H7811804   5.670   0.396   5.597  2.2932  1.6715  1.6808
   14MOL    H7911805   5.877   0.296   5.516 -1.5695 -0.8234 -0.0030
   14MOL    H8011806   5.499   0.379   5.272  0.0088  0.0517  0.3418
   14MOL    H8111807   5.329   0.296   5.128 -0.6461 -0.6769  0.3788
   14MOL    H8211808   5.030   0.540   5.326 -0.5157 -1.3934 -0.6033
   14MOL    H8311809   5.208   0.635   5.466  1.8643 -1.4436  2.4790
   14MOL    H8411810   5.176   0.125   5.071 -0.8546 -1.9172 -2.1336
   14MOL    H8511811   5.079   8.271   5.158 -0.5000 -0.1604  0.0982
   14MOL    H8611812   4.749   0.119   5.325 -1.5905 -0.7792 -1.0630
   14MOL    H8711813   4.831   0.327   5.241 -0.6315  0.3011  0.0550
   14MOL    H8811814   4.673   8.262   5.328 -0.5193 -1.4509 -0.9329
   14MOL    H8911815   4.624   8.064   5.492 -1.0906 -0.2513 -0.9747
   14MOL    H9011816   5.041   8.010   5.557 -0.2842 -0.8584 -0.1168
   14MOL    H9111817   5.097   8.195   5.394 -0.0010 -1.1651  0.0833
   14MOL    C9211818   4.879   7.919   5.739  0.5458 -0.0882  0.0446
   14MOL    C9311819   4.920   8.039   5.809 -0.5037  0.3043 -0.4924
   14MOL    C9411820   4.998   8.025   5.926  0.0468  1.0767  0.7761
   14MOL    C9511821   5.025   7.892   5.976  0.0110  0.4830 -0.4306
   14MOL    C9611822   4.978   7.779   5.911  0.2293 -0.1442  0.2092
   14MOL    C9711823   4.912   7.785   5.785 -0.0797  0.5259 -0.6399
   14MOL    S9811824   5.140   7.884   6.127  0.2314 -0.3645  0.0523
   14MOL    O9911825   5.255   7.977   6.104 -0.0195  0.0304 -0.5422
   14MOL   O10011826   5.165   7.738   6.149  0.1147  0.2297 -0.4072
   14MOL   C10111827   5.051   7.966   6.259  0.3440  0.1844  0.1850
   14MOL   C10211828   4.928   8.037   6.252 -0.1158  0.8215 -0.8296
   14MOL   C10311829   4.860   8.081   6.372 -0.2754 -0.0389 -0.4113
   14MOL   C10411830   4.924   8.066   6.498  0.2180 -0.6697 -0.4299
   14MOL   C10511831   5.040   7.989   6.507 -0.0965 -0.0341  0.0750
   14MOL   C10611832   5.102   7.942   6.390 -0.0143 -1.2769  1.1344
   14MOL   O10711833   4.877   8.117   6.614 -0.1619  0.5540  0.0684
   14MOL   C10811834   4.946   8.222   6.671 -0.3724  0.7719  0.2406
   14MOL   C10911835   4.968   8.340   6.593  0.7153 -0.2749  0.5691
   14MOL   C11011836   5.058   0.074   6.648  0.6965 -0.0000 -0.0490
   14MOL   C11111837   5.096   0.067   6.781 -0.8547 -0.0038  0.0691
   14MOL   C11211838   5.064   8.321   6.852 -0.4597 -0.2518 -0.1429
   14MOL   C11311839   5.008   8.204   6.794 -0.0445  0.3211  0.1488
   14MOL   C11411840   5.180   0.169   6.843 -0.1038  0.7896 -0.0997
   14MOL   C11511841   5.140   0.304   6.844  0.0271  0.7827 -1.0015
   14MOL   C11611842   5.226   0.402   6.901  0.7423  0.2391 -0.1749
   14MOL   C11711843   5.345   0.359   6.961 -0.7851 -0.3080  0.4881
   14MOL   C11811844   5.387   0.225   6.959  0.2769  0.6887 -0.6486
   14MOL   C11911845   5.298   0.127   6.906  0.0708 -0.2738 -0.4885
   14MOL   O12011846   5.424   0.449   7.027 -0.4944 -0.4822  0.4832
   14MOL   H12111847   4.890   8.136   5.774  1.7907  1.8034  1.5222
   14MOL   H12211848   5.023   8.112   5.986  0.4096  3.2179 -2.3469
   14MOL   H12311849   5.011   7.685   5.952 -0.1756  0.0209  0.9077
   14MOL   H12411850   4.883   7.695   5.734  0.1657  1.4180 -2.4129
   14MOL   H12511851   4.873   8.054   6.161  0.3011  0.3282 -1.1805
   14MOL   H12611852   4.767   8.135   6.360 -0.1948  0.0284 -0.7425
   14MOL   H12711853   5.091   7.971   6.600 -1.6547  2.2471  1.4047
   14MOL   H12811854   5.196   7.888   6.392  0.1093 -1.3242 -2.7802
   14MOL   H12911855   4.924   8.354   6.495  0.8305  0.7032  0.6595
   14MOL   H13011856   5.077   0.168   6.598 -2.0154  0.8967  0.5005
   14MOL   H13111857   5.104   8.322   6.952 -1.4554 -0.0325  0.2559
   14MOL   H13211858   4.986   8.112   6.845 -2.1529  0.4510 -0.5145
   14MOL   H13311859   5.043   0.336   6.809 -0.4325  1.4821  0.8928
   14MOL   H13411860   5.208   0.508   6.909 -0.2715 -0.0634  1.8664
   14MOL   H13511861   5.481   0.193   7.000 -2.0943 -2.8098  2.4127
   14MOL   H13611862   5.339   0.028   6.891 -0.4813 -0.6325  0.3154
   14MOL   C13711863   5.434   0.445   7.159  0.0786  0.0215 -0.3425
   14MOL   C13811864   5.543   0.517   7.218  0.2624  0.7108  0.9152
   14MOL   C13911865   5.578   0.500   7.353  0.1761  0.4093  0.4586
   14MOL   C14011866   5.499   0.417   7.435 -0.4400 -0.4729  0.0721
   14MOL   C14111867   5.381   0.353   7.380  0.1958 -0.3576 -0.0400
   14MOL   C14211868   5.349   0.369   7.241 -0.1613  0.4163 -0.1318
   14MOL   S14311869   5.555   0.386   7.600  0.2248  0.3005  0.0542
   14MOL   O14411870   5.447   0.317   7.672 -0.2750 -0.0222 -0.3008
   14MOL   O14511871   5.615   0.508   7.654  0.0557  0.0947 -0.5241
   14MOL   C14611872   5.683   0.266   7.575  0.0494 -0.8853 -0.0771
   14MOL   C14711873   5.814   0.310   7.578 -0.0868 -0.1515 -0.2564
   14MOL   C14811874   5.926   0.218   7.569  0.1063  0.0045 -0.6620
   14MOL   C14911875   5.892   0.078   7.563 -0.3105 -0.6473  0.9828
   14MOL   C15011876   5.754   0.038   7.555 -0.5479 -0.1710  0.1082
   14MOL   C15111877   5.653   0.129   7.571 -0.7893 -0.2294 -0.0199
   14MOL   O15211878   5.984   8.342   7.576 -0.4421 -0.0218 -1.0743
   14MOL   C15311879   6.048   8.292   7.467  0.4866 -0.3141 -0.2726
   14MOL   C15411880   6.124   0.017   7.391  0.1906  0.0261  0.1326
   14MOL   C15511881   6.194   8.346   7.274  0.0563  1.2418  0.2045
   14MOL   C15611882   6.188   8.211   7.228 -0.1958  0.1055  0.3911
   14MOL   C15711883   6.112   8.118   7.300 -1.0601 -0.2534 -0.1945
   14MOL   C15811884   6.041   8.162   7.417 -0.2905 -0.1310 -0.0394
   14MOL   C15911885   6.263   8.162   7.111  0.8440 -0.1169 -0.1978
   14MOL   C16011886   6.217   8.054   7.026 -0.2723  0.0069 -0.5413
   14MOL   C16111887   6.292   8.004   6.918  0.2463 -0.2796 -0.2382
   14MOL   C16211888   6.413   8.073   6.888  0.0126  0.6532 -0.3677
   14MOL   C16311889   6.453   8.192   6.959  0.4477  0.7025  0.1587
   14MOL   C16411890   6.377   8.226   7.072  0.4691 -0.4967  0.9257
   14MOL   O16511891   6.489   8.037   6.777  0.1614 -0.1485  0.5342
   14MOL   H16611892   5.619   0.566   7.159  0.0657  0.9521  0.8601
   14MOL   H16711893   5.669   0.541   7.394  0.5289  0.1098 -0.0231
   14MOL   H16811894   5.321   0.298   7.451 -1.1336  0.9941 -0.0763
   14MOL   H16911895   5.275   0.301   7.201  0.9032 -1.5975  1.2151
   14MOL   H17011896   5.843   0.413   7.588 -0.2706 -0.3069  2.2746
   14MOL   H17111897   6.027   0.253   7.582  0.1083 -0.2447 -0.0056
   14MOL   H17211898   5.740   8.297   7.558  1.6907 -0.5190 -1.1833
   14MOL   H17311899   5.553   0.091   7.587 -0.2573 -1.4274  0.5777
   14MOL   H17411900   6.140   0.119   7.423  0.1846 -0.5077  1.8833
   14MOL   H17511901   6.244   0.056   7.217 -1.8102  1.1147 -1.7012
   14MOL   H17611902   6.099   8.021   7.255 -0.7961  1.3326 -3.8530
   14MOL   H17711903   5.975   8.096   7.472 -0.5913 -0.6053 -0.9610
   14MOL   H17811904   6.124   8.009   7.057 -0.5249  0.4731 -0.6205
   14MOL   H17911905   6.265   7.919   6.858 -0.5428 -1.1618  1.3219
   14MOL   H18011906   6.540   8.251   6.933  1.5259 -0.9500 -0.0823
   14MOL   H18111907   6.417   8.312   7.124 -1.1877  1.2915 -0.6502
   14MOL   C18211908   6.625   8.014   6.800  0.5287 -0.3606  0.3118
   14MOL   C18311909   6.663   7.923   6.900 -0.9330 -0.6688  0.3362
   14MOL   C18411910   6.800   7.898   6.926  0.4037  0.4476  0.0995
   14MOL   C18511911   6.892   7.969   6.853 -0.3433  0.1646 -0.2779
   14MOL   C18611912   6.858   8.068   6.759 -0.3758  0.6913 -0.4180
   14MOL   C18711913   6.718   8.089   6.733  0.2365  0.4325 -0.2083
   14MOL   S18811914   7.058   7.962   6.917  0.5941  0.0523 -0.4699
   14MOL   O18911915   7.053   7.873   7.037 -0.0639  0.0377  0.4506
   14MOL   O19011916   7.107   8.098   6.937 -0.3901 -0.2108 -0.0653
   14MOL   C19111917   7.165   7.887   6.797  0.0874 -0.0063 -0.1124
   14MOL   C19211918   7.193   7.969   6.681  0.1632 -0.3489 -0.1969
   14MOL   C19311919   7.270   7.918   6.577  0.0006  0.6869 -0.4464
   14MOL   C19411920   7.333   7.790   6.600  0.5014  0.3342 -0.7597
   14MOL   C19511921   7.301   7.712   6.716  0.4611  0.0652  0.3751
   14MOL   C19611922   7.214   7.755   6.809  1.4253 -0.9090  0.0009
   14MOL   O19711923   7.406   7.740   6.495  0.6149 -0.1633  0.0430
   14MOL   C19811924   7.364   7.617   6.449 -0.1020  0.2748  0.5500
   14MOL   C19911925   7.244   7.598   6.382  0.2734 -0.1030  0.4755
   14MOL   C20011926   7.206   7.469   6.330 -1.1267  0.8621  0.3232
   14MOL   C20111927   7.276   7.356   6.376 -0.8728  0.0062 -0.3657
   14MOL   C20211928   7.393   7.372   6.450 -0.1575  0.0664 -0.5173
   14MOL   C20311929   7.434   7.503   6.486 -0.2296 -0.1477 -0.0442
   14MOL   C20411930   7.213   7.224   6.350 -0.1648 -0.0052  0.2466
   14MOL   C20511931   7.097   7.174   6.415 -0.5415  0.5162 -0.4210
   14MOL   C20611932   7.045   7.048   6.389 -0.4903  0.5107 -0.0727
   14MOL   C20711933   7.106   6.964   6.290 -1.6175  0.3567 -0.1261
   14MOL   C20811934   7.217   7.018   6.221 -0.0902  0.1158  0.5017
   14MOL   C20911935   7.270   7.149   6.247 -0.5218 -0.2104 -0.3079
   14MOL   O21011936   7.062   6.837   6.268  0.3336  0.6979 -0.7583
   14MOL   H21111937   6.584   7.875   6.955 -2.4759  0.7481 -0.6066
   14MOL   H21211938   6.827   7.821   6.997 -0.4136  0.5774  0.5561
   14MOL   H21311939   6.935   8.121   6.704  0.8063 -0.8018 -0.2610
   14MOL   H21411940   6.694   8.169   6.665  1.5090  1.4726  0.5372
   14MOL   H21511941   7.161   8.072   6.686 -1.1554 -0.7340 -0.3071
   14MOL   H21611942   7.281   7.968   6.482 -0.5360  1.1624 -0.2633
   14MOL   H21711943   7.332   7.609   6.728  0.6205  0.0492 -0.1520
   14MOL   H21811944   7.183   7.695   6.893 -0.2980  1.8513  1.3947
   14MOL   H21911945   7.182   7.683   6.355 -0.6322 -1.3917 -1.6126
   14MOL   H22011946   7.112   7.456   6.278 -1.4258 -0.3992  1.1590
   14MOL   H22111947   7.448   7.295   6.501 -1.5435 -1.7454 -1.7017
   14MOL   H22211948   7.518   7.509   6.554 -1.5202  2.7820  1.3776
   14MOL   H22311949   7.048   7.234   6.490 -2.7540 -1.7988  0.0689
   14MOL   H22411950   6.957   7.014   6.441 -1.3117  0.5118 -1.4388
   14MOL   H22511951   7.273   6.962   6.147 -0.9134 -0.9840  0.7011
   14MOL   H22611952   7.359   7.176   6.193 -1.0111  0.0130 -1.0144
   14MOL   C22711953   7.145   6.746   6.333 -0.6246 -0.3962  0.2692
   14MOL   C22811954   7.192   6.643   6.247 -0.1237  0.3072  0.1112
   14MOL   C22911955   7.301   6.562   6.296  0.1867 -1.1753 -0.3771
   14MOL   C23011956   7.347   6.578   6.427 -0.2768 -0.0540  0.3211
   14MOL   C23111957   7.295   6.678   6.504  0.5347  0.1629  0.0198
   14MOL   C23211958   7.191   6.766   6.461  0.0877  0.3957  0.1938
   14MOL   S23311959   7.492   6.494   6.492  0.1281  0.3570 -0.0983
   14MOL   O23411960   7.528   6.548   6.620 -0.1715 -0.6396 -0.3525
   14MOL   O23511961   7.594   6.493   6.384 -0.2163 -0.0871 -0.0445
   14MOL   C23611962   7.426   6.327   6.508 -0.0397 -0.1854  0.5273
   14MOL   C23711963   7.509   6.212   6.475 -0.5083  0.3592  0.2641
   14MOL   C23811964   7.467   6.085   6.513 -0.1677 -0.1760 -0.0559
   14MOL   C23911965   7.340   6.068   6.568  0.0254 -0.2980 -0.3764
   14MOL   C24011966   7.253   6.176   6.581  0.6498 -0.3721  0.2761
   14MOL   C24111967   7.291   6.309   6.546  0.3417  0.6195  0.7081
   14MOL   O24211968   7.301   5.946   6.620  0.1248 -0.0541  0.0738
   14MOL   C24311969   7.174   5.898   6.591 -0.0520  0.6933  0.9776
   14MOL   C24411970   7.121   5.920   6.461 -0.2698  0.5939  0.4337
   14MOL   C24511971   6.985   5.888   6.440 -0.1398 -0.3827  0.9465
   14MOL   C24611972   6.903   5.831   6.541  0.0339  0.0552  0.5793
   14MOL   C24711973   6.961   5.806   6.664 -0.3399  0.2009 -0.8438
   14MOL   C24811974   7.095   5.839   6.691  0.1214  0.3568 -0.5159
   14MOL   C24911975   6.766   5.795   6.507  0.5681 -0.4003  0.1496
   14MOL   C25011976   6.665   5.809   6.601  0.0719 -0.2385  0.6904
   14MOL   C25111977   6.525   5.801   6.570 -0.3680  0.2386  0.1744
   14MOL   C25211978   6.495   5.770   6.440  0.2707 -0.0307 -0.2248
   14MOL   C25311979   6.590   5.740   6.348 -0.2415 -0.5247  0.6343
   14MOL   C25411980   6.727   5.759   6.377  0.3854  0.1540  0.4595
   14MOL   O25511981   6.357   5.744   6.413 -0.1183  0.0566 -0.3796
   14MOL   H25611982   7.156   6.637   6.146  1.0210  2.0566 -0.4131
   14MOL   H25711983   7.352   6.492   6.231  2.0792  0.0309 -0.2246
   14MOL   H25811984   7.327   6.682   6.607 -3.6118  3.9796  1.3512
   14MOL   H25911985   7.163   6.844   6.530  0.3997  0.8228 -0.1689
   14MOL   H26011986   7.612   6.236   6.450 -0.3522 -1.5442 -1.0302
   14MOL   H26111987   7.530   5.998   6.515  0.7785  0.4949 -0.0153
   14MOL   H26211988   7.148   6.164   6.602  0.3162  0.7023 -0.6684
   14MOL   H26311989   7.223   6.392   6.553 -0.8334 -0.3164  0.5084
   14MOL   H26411990   7.169   5.956   6.372  1.3510 -0.8536  0.6889
   14MOL   H26511991   6.955   5.907   6.338  1.1673  2.2011  0.9809
   14MOL   H26611992   6.911   5.746   6.740 -1.4054  2.3468  0.2198
   14MOL   H26711993   7.139   5.830   6.789  0.6809 -0.2232 -0.8153
   14MOL   H26811994   6.686   5.831   6.705  0.5259 -0.6421  0.6848
   14MOL   H26911995   6.440   5.810   6.636  0.2381 -0.4643  1.0532
   14MOL   H27011996   6.567   5.714   6.246 -1.1697  1.0534  0.4194
   14MOL   H27111997   6.799   5.747   6.298  0.2889  1.2650  0.2056
   14MOL   C27211998   6.291   5.846   6.345 -0.0607 -0.4948  0.5467
   14MOL   C27311999   6.307   5.868   6.207 -1.1693 -0.1783  0.1981
   14MOL   C27412000   6.244   5.979   6.140  0.2053 -0.8455  0.7024
   14MOL   C27512001   6.169   6.069   6.220  0.6827 -0.9341  0.1785
   14MOL   C27612002   6.162   6.050   6.359  0.4512 -0.0808 -0.7578
   14MOL   C27712003   6.220   5.935   6.422  0.0033  0.7770  0.1377
   14MOL   S27812004   6.089   6.213   6.160  0.4678  0.2527  0.1599
   14MOL   O27912005   5.943   6.192   6.187  0.8809 -0.0705  0.7205
   14MOL   O28012006   6.136   6.240   6.026 -0.0068 -0.1783  0.1448
   14MOL   C28112007   6.147   6.348   6.258  0.1290 -0.0960 -0.7783
   14MOL   C28212008   6.286   6.386   6.266  0.2790 -0.3490  0.1541
   14MOL   C28312009   6.323   6.496   6.345  0.2802  0.4598 -0.3573
   14MOL   C28412010   6.228   6.566   6.423  0.0372 -0.3829 -0.0606
   14MOL   C28512011   6.090   6.532   6.413  0.3021 -0.2139 -0.2048
   14MOL   C28612012   6.049   6.423   6.330  0.1600  0.3472  0.7003
   14MOL   O28712013   6.274   6.660   6.513  0.1302 -0.8652  0.0204
   14MOL   C28812014   6.231   6.789   6.498  0.1576 -0.6353 -0.4511
   14MOL   C28912015   6.248   6.854   6.372  0.4055  0.2641 -0.1581
   14MOL   C29012016   6.186   6.975   6.348  0.1023  0.1159  0.1017
   14MOL   C29112017   6.115   7.043   6.452  0.5296  0.4992 -0.3271
   14MOL   C29212018   6.123   6.993   6.583  0.1953  0.1595 -0.2277
   14MOL   C29312019   6.176   6.866   6.602 -0.3670 -0.3270 -0.0178
   14MOL   C29412020   6.057   7.168   6.417  0.5427  0.2353  0.0751
   14MOL   C29512021   5.944   7.174   6.335  0.8881  0.2913  0.4753
   14MOL   C29612022   5.891   7.298   6.296 -0.2512 -0.2135 -0.4218
   14MOL   C29712023   5.945   7.415   6.343 -0.3975 -0.3410 -0.8242
   14MOL   C29812024   6.066   7.412   6.410  0.4590 -0.3324  0.1102
   14MOL   C29912025   6.122   7.288   6.449  0.0977  0.1705  0.8986
   14MOL   O30012026   5.887   7.537   6.308 -0.1011  0.1609  0.2054
   14MOL   H30112027   6.362   5.797   6.147  0.6071 -0.0871  1.6719
   14MOL   H30212028   6.255   5.993   6.034 -1.0917 -2.2880  0.3520
   14MOL   H30312029   6.102   6.123   6.412  1.5127  1.3411 -1.4729
   14MOL   H30412030   6.206   5.927   6.529 -1.6055 -0.3763 -0.1359
   14MOL   H30512031   6.363   6.327   6.218  0.7843 -1.6084  2.4394
   14MOL   H30612032   6.424   6.535   6.347  0.8928 -1.0948 -0.5762
   14MOL   H30712033   6.016   6.598   6.456  0.6047  2.2093 -3.1667
   14MOL   H30812034   5.948   6.388   6.316  1.2531 -1.6828 -2.7029
   14MOL   H30912035   6.292   6.804   6.287 -0.7418 -1.3398  0.1703
   14MOL   H31012036   6.207   7.026   6.255  1.1173 -0.6704 -0.1129
   14MOL   H31112037   6.081   7.049   6.666  0.4862 -2.3425  1.6818
   14MOL   H31212038   6.168   6.817   6.698 -0.0999  1.5261  0.9812
   14MOL   H31312039   5.902   7.084   6.293  1.3749  0.2958 -0.0166
   14MOL   H31412040   5.800   7.296   6.237  0.6859  0.6231 -1.9226
   14MOL   H31512041   6.105   7.507   6.444 -2.4959  0.5793  1.1144
   14MOL   H31612042   6.201   7.285   6.523  1.0934  0.5997 -0.1342
   14MOL   C31712043   5.784   7.584   6.381 -0.1992 -0.3496 -0.2867
   14MOL   C31812044   5.707   7.499   6.461  0.4185 -0.6109 -0.0049
   14MOL   C31912045   5.602   7.547   6.542  0.2013  0.1877  0.8079
   14MOL   C32012046   5.564   7.688   6.540  0.0881  0.0665  0.3468
   14MOL   C32112047   5.628   7.767   6.442  0.4533 -0.1281  0.0384
   14MOL   C32212048   5.736   7.717   6.368 -0.1550  0.0435 -0.0464
   14MOL   S32312049   5.438   7.747   6.646  0.3809  0.0901 -0.6178
   14MOL   O32412050   5.423   7.647   6.752  0.1180  0.4889  0.2337
   14MOL   O32512051   5.319   7.790   6.563 -0.4546  0.2833 -0.4787
   14MOL   C32612052   5.512   7.893   6.720 -0.2944 -0.3686  0.0817
   14MOL   C32712053   5.620   7.886   6.810 -0.1326  0.3207  0.3531
   14MOL   C32812054   5.682   7.998   6.857  0.0699 -0.8942  0.3703
   14MOL   C32912055   5.633   8.126   6.826 -0.8240  0.4923 -0.2449
   14MOL   C33012056   5.527   8.135   6.736 -0.0183 -0.3685  0.1213
   14MOL   C33112057   5.463   8.021   6.680 -0.1673  0.1594 -0.0908
   14MOL   O33212058   5.688   8.243   6.885 -0.5205 -0.1758  0.2116
   14MOL   C33312059   5.805   8.284   6.828 -0.3416  0.5671 -0.3486
   14MOL   C33412060   5.926   8.216   6.861  0.2735 -0.4047  0.2815
   14MOL   C33512061   6.050   8.270   6.810 -0.3446 -0.1441  0.3555
   14MOL   C33612062   6.058   0.018   6.733 -0.1393  0.1478  0.2071
   14MOL   C33712063   5.934   0.089   6.701 -0.0094 -0.1080 -0.7671
   14MOL   C33812064   5.812   0.035   6.749 -0.3831  0.3186  0.6873
   14MOL   C33912065   6.187   0.079   6.697 -0.6092  0.1438 -0.3502
   14MOL   C34012066   6.279   0.109   6.802  0.0980  0.3083  0.3304
   14MOL   C34112067   6.409   0.158   6.772 -0.7088  0.2658  0.5281
   14MOL   C34212068   6.439   0.193   6.637 -0.2513 -0.0311  0.0687
   14MOL   C34312069   6.341   0.180   6.535  0.5290  0.2743  0.2147
   14MOL   C34412070   6.217   0.124   6.566 -0.1280 -0.1581  0.0983
   14MOL   O34512071   6.546   0.266   6.598 -0.3743 -0.0502  0.5982
   14MOL   H34612072   5.727   7.394   6.474  1.0809 -0.3555  1.1174
   14MOL   H34712073   5.551   7.483   6.613  2.3659 -1.1624  1.2078
   14MOL   H34812074   5.603   7.870   6.424 -3.2088 -0.8029  0.8019
   14MOL   H34912075   5.797   7.788   6.315  1.4699 -1.4942 -0.2778
   14MOL   H35012076   5.649   7.791   6.853  0.3548  0.1474 -0.3508
   14MOL   H35112077   5.763   7.979   6.927  1.2741 -0.2770 -0.8458
   14MOL   H35212078   5.491   8.233   6.707 -0.0810 -0.6282 -0.6797
   14MOL   H35312079   5.383   8.025   6.607 -0.7188 -1.0123  0.4545
   14MOL   H35412080   5.924   8.135   6.932 -2.3499  0.1235  0.8768
   14MOL   H35512081   6.143   8.231   6.850  0.6792  1.9311  0.0449
   14MOL   H35612082   5.947   0.179   6.643  3.7337 -0.7810 -1.0932
   14MOL   H35712083   5.725   0.096   6.732 -0.3487  0.4485  0.9795
   14MOL   H35812084   6.246   0.082   6.901  0.7367 -0.6704  0.2825
   14MOL   H35912085   6.487   0.164   6.846 -0.8847 -1.1773  0.8487
   14MOL   H36012086   6.349   0.211   6.431  2.1585 -1.0218 -0.0554
   14MOL   H36112087   6.153   0.113   6.480 -0.0240 -0.4907  0.0610
   14MOL   C36212088   6.663   0.201   6.575  0.2480 -1.2956  0.7727
   14MOL   C36312089   6.718   0.116   6.675 -0.3706  0.1148  0.2069
   14MOL   C36412090   6.842   0.050   6.646 -0.0457  0.1857  0.3093
   14MOL   C36512091   6.911   0.080   6.527 -1.1532  0.0665 -0.0141
   14MOL   C36612092   6.855   0.158   6.424  0.2252 -0.1069 -0.9785
   14MOL   C36712093   6.727   0.220   6.450  0.3623  0.2490  0.2097
   14MOL   S36812094   7.072   0.007   6.506  0.2702 -0.3176  0.2409
   14MOL   O36912095   7.134   0.067   6.384 -0.3422  0.2835 -0.5607
   14MOL   O37012096   7.062   8.227   6.516  0.3736  0.5273  0.3331
   14MOL   C37112097   7.163   0.058   6.653 -0.3383 -0.1212  0.7119
   14MOL   C37212098   7.264   8.330   6.688 -0.4846  0.0792  0.5042
   14MOL   C37312099   7.332   8.351   6.811  0.3182  0.6241  0.1794
   14MOL   C37412100   7.323   0.107   6.881 -0.4428  0.0419  0.2655
   14MOL   C37512101   7.226   0.204   6.842 -0.4004  0.0877  0.8286
   14MOL   C37612102   7.146   0.174   6.728  0.0339 -0.0880 -1.0482
   14MOL   O37712103   7.401   0.133   6.989 -0.3193  0.8944 -0.0190
   14MOL   C37812104   7.412   0.024   7.075  0.6945 -0.2943 -0.1154
   14MOL   C37912105   7.529   8.313   7.091 -0.0854  0.5580  0.2154
   14MOL   C38012106   7.533   8.204   7.183 -0.5300  0.1344  0.7650
   14MOL   C38112107   7.411   8.167   7.247  0.3691  0.5456  0.3714
   14MOL   C38212108   7.297   8.239   7.220  0.8266 -0.3601 -0.1516
   14MOL   C38312109   7.296   8.356   7.150 -0.8071  0.1468 -0.1030
   14MOL   C38412110   7.404   8.047   7.340 -0.2550 -0.1668  0.2991
   14MOL   C38512111   7.298   7.952   7.335 -0.0114 -0.5048  0.1370
   14MOL   C38612112   7.291   7.838   7.420  0.2011 -0.2750 -0.5260
   14MOL   C38712113   7.389   7.818   7.518 -0.1457 -0.2075  0.7839
   14MOL   C38812114   7.498   7.910   7.531 -0.3301  0.9409 -0.1171
   14MOL   C38912115   7.505   8.025   7.448  0.7113 -0.8832  1.1277
   14MOL   O39012116   7.389   7.703   7.600  0.0845 -0.7025 -0.1064
   14MOL   H39112117   6.686   0.110   6.778  0.9071 -0.2825  0.5970
   14MOL   H39212118   6.898   8.355   6.715  2.1353 -1.0737 -2.4283
   14MOL   H39312119   6.905   0.190   6.334  1.1580  1.4774  0.0711
   14MOL   H39412120   6.672   0.290   6.390  0.5570  0.3060  0.0977
   14MOL   H39512121   7.280   8.238   6.634 -2.2624  0.3283 -0.5155
   14MOL   H39612122   7.404   8.275   6.839 -1.8093 -1.1465  0.9453
   14MOL   H39712123   7.221   0.302   6.888 -1.1143 -0.3686  1.7274
   14MOL   H39812124   7.066   0.240   6.697 -0.3575  1.5311  3.0563
   14MOL   H39912125   7.620   8.347   7.043 -0.0308  0.1031  0.0040
   14MOL   H40012126   7.627   8.153   7.199 -1.4061 -1.4396  0.9832
   14MOL   H40112127   7.207   8.205   7.270  1.1486 -1.3889 -0.2535
   14MOL   H40212128   7.203   0.042   7.133  0.2726  2.0743 -0.2845
   14MOL   H40312129   7.231   7.959   7.251  1.3872 -0.4680 -0.9824
   14MOL   H40412130   7.207   7.772   7.408  0.3558 -0.3967 -0.9658
   14MOL   H40512131   7.573   7.894   7.606  0.2472 -0.7357 -1.0040
   14MOL   H40612132   7.583   8.100   7.460 -0.1194  0.6557 -2.3783
   14MOL   C40712133   7.420   7.717   7.737  0.0709 -0.1146 -0.2005
   14MOL   C40812134   7.340   7.795   7.824 -0.0887  0.1436 -0.1233
   14MOL   C40912135   7.372   7.808   7.960 -0.0047 -0.2077 -0.2836
   14MOL   C41012136   7.492   7.750   8.011 -0.0125 -0.2236  0.4506
   14MOL   C41112137   7.577   7.672   7.926 -0.0796  0.0634  0.7252
   14MOL   C41212138   7.539   7.654   7.787  0.5901  0.2992 -0.3814
   14MOL   S41312139   7.551   7.788   8.172 -0.0603 -0.0735 -0.1994
   14MOL   O41412140   7.512   7.925   8.202 -0.3868 -0.1685  0.2218
   14MOL   O41512141   7.693   7.749   8.182  0.2546 -0.3357 -0.2716
   14MOL   C41612142   7.452   7.674   8.277  0.4350  0.2626  0.1416
   14MOL   C41712143   7.441   7.537   8.262  0.4715  0.6616  0.0849
   14MOL   C41812144   7.360   7.463   8.344 -0.3559 -0.0235  0.8931
   14MOL   C41912145   7.277   7.521   0.081  0.1964 -0.1004 -0.3716
   14MOL   C42012146   7.285   7.657   0.100  0.4216  0.0611 -0.3679
   14MOL   C42112147   7.367   7.731   0.013  0.4763 -0.5634  0.3522
   14MOL   O42212148   7.195   7.451   0.161  0.4946  0.2173 -0.1264
   14MOL   C42312149   7.157   7.323   0.116  0.4008  0.0203  0.6495
   14MOL   C42412150   7.198   7.213   0.185 -1.1587 -0.0423  0.0484
   14MOL   C42512151   7.155   7.085   0.141 -0.3859 -0.3162  0.3229
   14MOL   C42612152   7.068   7.064   0.034 -0.5029 -0.4135 -0.6623
   14MOL   C42712153   7.028   7.181   8.332 -0.0478 -0.0626 -0.4001
   14MOL   C42812154   7.073   7.308   0.002  0.0689  0.7023 -0.5815
   14MOL   C42912155   7.025   6.941   8.351  0.2369  0.5096 -0.2918
   14MOL   C43012156   7.055   6.894   8.224 -0.0202 -1.2099 -0.1827
   14MOL   C43112157   7.022   6.763   8.186 -0.5771 -0.0402  0.0082
   14MOL   C43212158   6.942   6.683   8.274 -0.0003 -0.3830  0.1419
   14MOL   C43312159   6.905   6.737   0.032  0.0765 -0.2689 -0.2179
   14MOL   C43412160   6.957   6.861   0.074 -0.2339 -0.3553 -0.4089
   14MOL   O43512161   6.888   6.561   8.244  0.5384 -0.5469  0.7144
   14MOL   H43612162   7.244   7.833   7.791 -0.6265 -4.0281 -3.7097
   14MOL   H43712163   7.304   7.863   8.022  1.0703  0.4277  0.3500
   14MOL   H43812164   7.675   7.646   7.964 -0.0054 -2.2440 -0.9391
   14MOL   H43912165   7.606   7.590   7.731 -1.6761 -0.7738 -1.9035
   14MOL   H44012166   7.497   7.486   8.185  0.4699  1.1656 -0.2537
   14MOL   H44112167   7.370   7.356   8.332  1.2029  0.1909  0.1604
   14MOL   H44212168   7.234   7.701   0.184  1.2144  2.9831 -1.3544
   14MOL   H44312169   7.382   7.836   0.035  1.5679 -0.8340  0.9582
   14MOL   H44412170   7.253   7.214   0.278 -2.8571 -0.1587  1.0771
   14MOL   H44512171   7.179   6.996   0.197 -2.2924 -1.0666 -0.0030
   14MOL   H44612172   6.965   7.178   8.244 -1.5284 -0.2267  0.6491
   14MOL   H44712173   7.036   7.400   8.326 -0.0630  1.2891  0.7818
   14MOL   H44812174   7.101   6.961   8.153 -1.4340  0.1863  0.1793
   14MOL   H44912175   7.054   6.721   8.092  0.3526 -3.4631  1.7812
   14MOL   H45012176   6.848   6.679   0.102  1.5037 -0.6522  0.6455
   14MOL   H45112177   6.935   6.905   0.170 -1.4637  1.4875 -1.4955
   14MOL   C45212178   6.961   6.457   8.203 -0.1239 -0.0220  0.1797
   14MOL   C45312179   7.010   6.446   8.075 -0.2072 -0.3299  0.2293
   14MOL   C45412180   7.057   6.321   8.026  0.3944  0.9145  0.1883
   14MOL   C45512181   7.073   6.218   8.126  0.1063  0.7897  0.0851
   14MOL   C45612182   7.026   6.232   8.260 -0.8743  0.2967 -0.6214
   14MOL   C45712183   6.976   6.352   8.300  0.5532 -0.2124  0.2145
   14MOL   S45812184   7.166   6.069   8.087 -0.2481 -0.1833 -0.0211
   14MOL   O45912185   7.213   6.073   7.947  0.3289  0.1828  0.0380
   14MOL   O46012186   7.089   5.957   8.139  0.2446  0.6858 -0.0674
   14MOL   C46112187   7.311   6.086   8.197  1.0538  0.4561  0.2212
   14MOL   C46212188   7.357   6.212   8.243 -0.3454 -0.3226 -0.2999
   14MOL   C46312189   7.466   6.223   8.328  0.1705  0.2219  0.1895
   14MOL   C46412190   7.530   6.108   0.006  0.2059 -0.5381  0.4431
   14MOL   C46512191   7.488   5.983   8.330  0.1694  0.8082  0.7232
   14MOL   C46612192   7.375   5.969   8.247 -0.3090  0.6825 -0.6311
   14MOL   O46712193   7.642   6.103   0.083 -0.5787 -0.4528 -0.1502
   14MOL   C46812194   7.751   6.175   0.045  0.4637  0.2368  0.3319
   14MOL   C46912195   7.779   6.301   0.102  1.2131 -0.4665 -0.2563
   14MOL   C47012196   7.897   6.370   0.065 -0.8103  0.4840 -0.1799
   14MOL   C47112197   7.983   6.315   8.334  0.0815  0.8033  0.9311
   14MOL   C47212198   7.946   6.203   8.260  0.1979  1.0071  0.6277
   14MOL   C47312199   7.835   6.128   8.304  0.1324 -0.0830 -0.0193
   14MOL   C47412200   8.118   6.375   8.310 -0.2825  0.5234  0.8567
   14MOL   C47512201   8.129   6.516   8.302 -0.4336  0.4856  0.4541
   14MOL   C47612202   8.259   6.577   8.293 -0.0148 -0.2441  0.7806
   14MOL   C47712203   0.005   6.494   8.287 -1.0140 -0.7119  0.1880
   14MOL   C47812204   8.358   6.351   8.299  0.6681 -0.1136 -0.1458
   14MOL   C47912205   8.230   6.292   8.308 -0.1105 -0.9810 -0.6800
   14MOL   O48012206   0.122   6.564   8.253  0.1730 -0.7694 -0.4828
   14MOL   H48112207   7.007   6.534   8.013  0.2238  0.3077  1.0975
   14MOL   H48212208   7.099   6.307   7.927  0.6000  3.1347 -0.0506
   14MOL   H48312209   7.025   6.150   8.331  4.9439 -0.0416 -0.6495
   14MOL   H48412210   6.935   6.372   0.032 -0.1095  1.1105 -0.3127
   14MOL   H48512211   7.303   6.300   8.212 -0.1914 -0.9183 -2.3272
   14MOL   H48612212   7.508   6.321   8.340  0.7634 -0.0799  0.5544
   14MOL   H48712213   7.557   5.901   8.346 -0.7419 -0.4867 -1.7038
   14MOL   H48812214   7.344   5.871   8.216  0.3651  1.4634 -3.9751
   14MOL   H48912215   7.718   6.340   0.182  1.1142 -0.7106 -0.2105
   14MOL   H49012216   7.922   6.459   0.120  0.4043  0.6581 -0.9870
   14MOL   H49112217   8.012   6.151   8.191  0.6150 -0.2054  1.9197
   14MOL   H49212218   7.829   6.025   8.272  2.5260  0.4065 -2.2452
   14MOL   H49312219   8.042   6.579   8.311 -1.9490 -1.0777 -2.3623
   14MOL   H49412220   8.266   6.685   8.288 -4.0819  0.1912  2.5138
   14MOL   H49512221   0.076   6.286   8.279  0.1996  0.4706 -4.7189
   14MOL   H49612222   8.224   6.186   8.325 -1.8016 -0.7363  0.3282
   14MOL   C49712223   0.138   6.631   8.132 -0.3228  0.9116 -0.0876
   14MOL   C49812224   0.047   6.613   8.027 -0.0744 -0.4382 -0.2610
   14MOL   C49912225   0.064   6.683   7.907 -0.2745 -0.4820  0.9802
   14MOL   C50012226   0.168   6.778   7.888  0.8258  0.4980 -0.2097
   14MOL   C50112227   0.262   6.791   7.997  0.0522 -0.0004 -0.1441
   14MOL   C50212228   0.247   6.716   8.116  0.3329 -0.1353  0.1198
   14MOL   S50312229   0.163   6.868   7.724  0.0201 -0.3362 -0.4437
   14MOL   O50412230   0.194   6.778   7.612 -0.8599  0.0481 -0.2123
   14MOL   O50512231   0.247   6.991   7.730  0.1936 -0.0828 -0.1487
   14MOL   C50612232   8.359   6.912   7.703  0.3056  0.4207  0.3796
   14MOL   C50712233   8.314   7.020   7.778 -0.2526 -0.0931 -0.2345
   14MOL   C50812234   8.183   7.061   7.770 -0.6594  0.1734  0.5934
   14MOL   C50912235   8.104   7.014   7.667  0.2363 -0.0658  0.0139
   14MOL   C51012236   8.150   6.903   7.588 -0.1253  0.5947 -0.1466
   14MOL   C51112237   8.275   6.850   7.612  0.4927 -0.1642 -0.3647
   14MOL   O51212238   7.979   7.051   7.648  0.7922 -0.2320  0.4073
   14MOL   C51312239   7.945   7.183   7.667 -0.7140  0.3446 -0.5021
   14MOL   C51412240   7.955   7.279   7.559 -0.1832 -0.2927  0.2311
   14MOL   C51512241   7.939   7.420   7.593 -0.2021 -0.5436 -0.3928
   14MOL   C51612242   7.911   7.461   7.726  0.1154 -0.6039 -0.4893
   14MOL   C51712243   7.887   7.362   7.827 -0.0014  0.1482  0.4092
   14MOL   C51812244   7.900   7.223   7.792  0.3151  0.3662  0.1733
   14MOL   C51912245   7.917   7.607   7.766 -0.2663 -0.5894 -0.0308
   14MOL   C52012246   7.960   7.654   7.892  0.5170  0.2265  0.0525
   14MOL   C52112247   7.965   7.788   7.926  0.6555 -0.9160 -0.7708
   14MOL   C52212248   7.919   7.886   7.833 -0.5042 -0.9565  0.0313
   14MOL   C52312249   7.858   7.845   7.714  0.3042  0.3208  0.1523
   14MOL   C52412250   7.865   7.706   7.684 -0.5035  0.1292  0.1655
   14MOL   O52512251   7.920   8.018   7.867 -0.7994  0.4739  0.0987
   14MOL   H52612252   8.320   6.563   8.050  1.1294 -2.3859  0.5517
   14MOL   H52712253   8.356   6.668   7.830 -0.5014  0.6377  0.9729
   14MOL   H52812254   0.340   6.866   7.990 -0.2843  0.0785 -4.2033
   14MOL   H52912255   0.316   6.726   8.197 -0.2232 -3.2815  1.0706
   14MOL   H53012256   0.006   7.055   7.863 -1.1739 -2.1281  1.2747
   14MOL   H53112257   8.156   7.138   7.842  2.0778  1.9323 -0.1932
   14MOL   H53212258   8.087   6.858   7.512  1.5984 -1.2457 -0.5224
   14MOL   H53312259   8.320   6.776   7.546  1.9742  0.2577  0.1555
   14MOL   H53412260   7.975   7.250   7.457  0.1902  0.4222  0.0978
   14MOL   H53512261   7.967   7.494   7.520 -0.1147  0.3951  0.5821
   14MOL   H53612262   7.856   7.404   7.921 -2.1260  1.3377 -0.7679
   14MOL   H53712263   7.895   7.143   7.863  2.8200 -0.8811 -0.9750
   14MOL   H53812264   7.986   7.580   7.966 -1.3559 -1.4239 -0.8988
   14MOL   H53912265   8.012   7.815   8.019 -0.8817 -0.7649 -0.0402
   14MOL   H54012266   7.813   7.914   7.645  1.2104 -0.9978 -1.8019
   14MOL   H54112267   7.812   7.669   7.597 -0.3200 -1.9704  0.9148
   14MOL   C54212268   7.807   8.057   7.932  0.2799 -1.0609  0.3355
   14MOL   C54312269   7.816   8.072   8.076 -0.1564  0.0882 -0.0328
   14MOL   C54412270   7.723   8.138   8.151 -0.1567 -0.0434 -0.7665
   14MOL   C54512271   7.616   8.203   8.078  0.1737 -0.2720  0.1927
   14MOL   C54612272   7.605   8.184   7.938 -0.4558  0.4748 -0.5487
   14MOL   C54712273   7.700   8.109   7.859 -0.5580 -0.0523 -0.4174
   14MOL   S54812274   7.505   8.311   8.154 -0.0183  0.4178  0.3269
   14MOL   O54912275   7.483   0.055   8.059  0.2023 -0.2455  0.0615
   14MOL   O55012276   7.548   8.338   8.290 -0.9896 -0.7207  0.4397
   14MOL   C55112277   7.352   8.215   8.164 -0.1100  0.5939  0.5167
   14MOL   C55212278   7.271   8.210   8.048 -0.1670 -0.4894 -0.4466
   14MOL   C55312279   7.154   8.133   8.049  0.2790 -0.5497 -0.0557
   14MOL   C55412280   7.117   8.061   8.162  0.3964 -0.7012  0.1758
   14MOL   C55512281   7.198   8.075   8.272  0.3052  0.1792 -0.6635
   14MOL   C55612282   7.319   8.147   8.279 -0.0176 -0.8058  0.3928
   14MOL   O55712283   7.005   7.986   8.173  0.0779 -0.4820 -0.0738
   14MOL   C55812284   7.018   7.857   8.115  0.2671 -1.0344 -0.0022
   14MOL   C55912285   7.093   7.753   8.168 -0.0513 -0.1059  0.7628
   14MOL   C56012286   7.107   7.632   8.104 -0.2519  0.5157 -0.3288
   14MOL   C56112287   7.029   7.606   7.983 -0.4978 -0.0121  0.1212
   14MOL   C56212288   6.948   7.705   7.929  0.3911  0.6170  0.4166
   14MOL   C56312289   6.946   7.839   7.995  0.7548  0.6037  0.9338
   14MOL   C56412290   7.049   7.476   7.915 -0.2370  0.4154 -0.1078
   14MOL   C56512291   7.074   7.470   7.778 -0.6543  0.5206 -0.2076
   14MOL   C56612292   7.102   7.343   7.722  0.0591 -0.5116 -0.0505
   14MOL   C56712293   7.107   7.228   7.801 -0.3775 -0.4898  0.1838
   14MOL   C56812294   7.085   7.243   7.937 -0.6065  0.2692 -0.1671
   14MOL   C56912295   7.055   7.364   7.990 -0.2991 -0.1092  0.2894
   14MOL   O57012296   7.141   7.112   7.750  0.3366 -0.2628  0.6204
   14MOL   H57112297   7.910   8.041   8.119  0.1288 -1.9226 -2.0115
   14MOL   H57212298   7.736   8.151   8.257 -0.4436  0.7802 -0.8253
   14MOL   H57312299   7.527   8.230   7.879  0.7677 -0.6827 -3.0908
   14MOL   H57412300   7.696   8.096   7.751 -0.7921 -0.0540 -0.4091
   14MOL   H57512301   7.297   8.265   7.959 -2.4696 -0.5852 -1.2157
   14MOL   H57612302   7.090   8.123   7.963 -0.5035  1.7874  0.2247
   14MOL   H57712303   7.171   8.020   8.361 -1.1207 -0.1356 -1.2755
   14MOL   H57812304   7.366   8.156   0.010 -0.8681  1.4011  0.6150
   14MOL   H57912305   7.141   7.755   8.265  0.1554  0.4380  0.6473
   14MOL   H58012306   7.173   7.557   8.144 -0.2251 -0.5325 -2.3127
   14MOL   H58112307   6.900   7.684   7.834  0.6729  3.4280 -0.3899
   14MOL   H58212308   6.895   7.919   7.944  2.1178  0.4942 -0.6507
   14MOL   H58312309   7.076   7.553   7.710 -1.8024  0.0103 -0.8687
   14MOL   H58412310   7.141   7.336   7.621 -0.5918  0.1366 -0.3520
   14MOL   H58512311   7.090   7.165   8.012 -0.0665  2.8832  2.6080
   14MOL   H58612312   7.040   7.377   8.096  1.0515 -0.3409  0.5259
   14MOL   C58712313   7.054   7.053   7.660 -0.1891  0.5903 -0.7366
   14MOL   C58812314   7.073   7.082   7.520 -0.0197  0.1158  0.8666
   14MOL   C58912315   6.985   7.033   7.427  0.8438  0.2978  0.2684
   14MOL   C59012316   6.880   6.950   7.468 -0.0178  0.2417 -0.0423
   14MOL   C59112317   6.856   6.926   7.604 -0.1268  0.8687  0.7587
   14MOL   C59212318   6.945   6.978   7.703  0.4249  0.3734 -0.4767
   14MOL   S59312319   6.785   6.869   7.338 -0.1480  0.0881  0.3138
   14MOL   O59412320   6.788   6.969   7.232 -0.3303 -0.2719 -0.3181
   14MOL   O59512321   6.651   6.826   7.381  0.4149 -0.2432 -0.4990
   14MOL   C59612322   6.874   6.725   7.282  0.2868 -0.3535 -0.9196
   14MOL   C59712323   7.013   6.714   7.290 -0.4796 -0.3458  0.2009
   14MOL   C59812324   7.075   6.593   7.243  0.1484 -0.1365 -0.7523
   14MOL   C59912325   7.000   6.483   7.197 -0.1198 -0.5414 -0.2546
   14MOL   C60012326   6.858   6.498   7.195 -0.5156  0.2015 -0.2309
   14MOL   C60112327   6.791   6.621   7.227 -0.4968 -0.0170 -0.2964
   14MOL   O60212328   7.062   6.367   7.165  0.4251 -0.1428  0.7219
   14MOL   C60312329   7.106   6.278   7.257 -0.3000  0.8755 -0.3338
   14MOL   C60412330   7.234   6.280   7.314  0.0901 -0.3980 -0.2867
   14MOL   C60512331   7.280   6.177   7.397  0.0955 -0.2312  0.8481
   14MOL   C60612332   7.193   6.078   7.434  0.0054  0.0499  0.7698
   14MOL   C60712333   7.061   6.071   7.384  0.6109 -0.2492 -0.3749
   14MOL   C60812334   7.020   6.172   7.294  0.3770 -0.3318  0.2941
   14MOL   C60912335   7.240   5.966   7.519 -0.4014 -0.2051 -0.4895
   14MOL   C61012336   7.295   6.002   7.645  0.2486  0.4257 -0.0529
   14MOL   C61112337   7.348   5.899   7.727  0.1686  0.4577  0.0400
   14MOL   C61212338   7.330   5.762   7.690 -0.4697  0.1513  0.1033
   14MOL   C61312339   7.262   5.730   7.575  0.1665  0.0604 -0.0180
   14MOL   C61412340   7.231   5.833   7.486 -0.3154 -0.1029  0.4247
   14MOL   O61512341   7.387   5.665   7.767  0.8767  0.3053 -0.6327
   14MOL   H61612342   7.162   7.138   7.495  3.1899 -3.9707  2.4436
   14MOL   H61712343   7.005   7.050   7.322  2.6421 -1.1474  0.3570
   14MOL   H61812344   6.777   6.857   7.630 -0.7281  1.7077  1.2008
   14MOL   H61912345   6.930   6.945   7.805  0.1045  0.7978 -0.3888
   14MOL   H62012346   7.070   6.793   7.336  0.2346  0.7603 -2.5035
   14MOL   H62112347   7.182   6.585   7.250  0.1774  1.6154  1.4199
   14MOL   H62212348   6.799   6.418   7.154  1.6111 -1.1915 -0.6772
   14MOL   H62312349   6.685   6.633   7.211 -0.4520  0.3694 -0.2989
   14MOL   H62412350   7.306   6.354   7.283 -2.5521  2.5046  0.2849
   14MOL   H62512351   7.382   6.180   7.433 -0.1243 -0.2697  1.4910
   14MOL   H62612352   6.997   5.984   7.390  0.0621  0.1452 -0.4617
   14MOL   H62712353   6.930   6.160   7.235  1.1891  3.5901 -1.8915
   14MOL   H62812354   7.311   6.105   7.672  1.1424  0.6322 -1.3160
   14MOL   H62912355   7.391   5.929   7.821  1.0795 -1.6899  0.3408
   14MOL   H63012356   7.232   5.631   7.545 -0.4421  0.4912 -0.8507
   14MOL   H63112357   7.183   5.808   7.393 -0.2489 -2.0186  0.8765
   14MOL   C63212358   7.302   5.617   7.865  0.2988  0.0034 -0.1281
   14MOL   C63312359   7.299   5.680   7.990 -0.1917  0.5103 -0.5678
   14MOL   C63412360   7.205   5.637   8.088  0.3571 -0.2678  0.2283
   14MOL   C63512361   7.117   5.530   8.065  0.4682  0.3062 -0.5080
   14MOL   C63612362   7.124   5.468   7.936 -0.2689 -1.0582 -0.1700
   14MOL   C63712363   7.224   5.503   7.841  0.8347 -0.1316 -0.1945
   14MOL   S63812364   6.990   5.495   8.190  0.0720 -0.3774 -0.1475
   14MOL   O63912365   6.866   5.490   8.120 -0.2519 -0.2514  0.8705
   14MOL   O64012366   7.008   5.600   8.299  0.2520  0.3248  0.0196
   14MOL   C64112367   7.031   5.336   8.254 -0.8187 -0.1037  0.4860
   14MOL   C64212368   6.941   5.273   8.343 -0.3163 -0.1047 -0.2093
   14MOL   C64312369   6.980   5.151   0.040 -1.0073 -0.0522  0.2692
   14MOL   C64412370   7.100   5.083   0.006 -0.9339  0.6315  0.1362
   14MOL   C64512371   7.183   5.142   8.277  0.9060  0.8560 -0.1119
   14MOL   C64612372   7.150   5.266   8.223  0.4677 -0.2286 -0.2233
   14MOL   O64712373   7.124   4.962   0.061  1.2720  0.2159  0.1225
   14MOL   C64812374   7.254   4.916   0.075 -0.4133 -0.2987  0.0814
   14MOL   C64912375   7.283   4.787   0.039 -0.6318 -0.2874 -0.9253
   14MOL   C65012376   7.417   4.743   0.045  0.2849  0.1572 -0.2734
   14MOL   C65112377   7.515   4.831   0.094 -0.5621  0.0495 -0.2302
   14MOL   C65212378   7.480   4.962   0.138 -0.1457  0.2037 -0.1620
   14MOL   C65312379   7.351   5.001   0.125  0.3042  0.1225 -0.9751
   14MOL   C65412380   7.656   4.783   0.110  0.5612  0.0291  0.5115
   14MOL   C65512381   7.686   4.657   0.164  0.1061  0.1154 -0.0597
   14MOL   C65612382   7.820   4.611   0.171 -0.0768  0.1662  0.0167
   14MOL   C65712383   7.928   4.696   0.130 -0.0717  0.5999 -0.2093
   14MOL   C65812384   7.900   4.824   0.081 -0.2172  0.2423 -0.1976
   14MOL   C65912385   7.762   4.862   0.068 -0.1220 -0.6246  0.1992
   14MOL   O66012386   8.058   4.651   0.125 -0.6799 -0.1720  0.4296
   14MOL   H66112387   7.372   5.760   7.988 -0.2107  0.5514  0.3365
   14MOL   H66212388   7.204   5.689   8.182 -0.3422  0.0181  0.0657
   14MOL   H66312389   7.046   5.408   7.892 -1.2067 -0.0073  0.0330
   14MOL   H66412390   7.233   5.459   7.743  0.6136 -1.2696  0.2910
   14MOL   H66512391   6.847   5.325   8.359  0.3272  0.7879  0.7259
   14MOL   H66612392   6.917   5.110   0.118  1.0605  0.1885  2.1063
   14MOL   H66712393   7.275   5.094   8.245  0.3226 -1.4716  1.6167
   14MOL   H66812394   7.222   5.312   8.157 -0.0704  0.9220 -0.0205
   14MOL   H66912395   7.198   4.727   0.009 -2.2999  1.0505  0.9591
   14MOL   H67012396   7.441   4.642   0.014  1.0853  0.9489 -2.3018
   14MOL   H67112397   7.554   5.033   0.172  0.7901 -1.9831  2.6043
   14MOL   H67212398   7.312   5.094   0.164 -4.2158 -1.4567 -1.4335
   14MOL   H67312399   7.612   4.599   0.217  1.2567 -1.3330  0.0206
   14MOL   H67412400   7.842   4.516   0.216  0.0384  0.5584  0.7822
   14MOL   H67512401   7.986   4.878   0.045 -0.6593  1.0701 -0.0325
   14MOL   H67612402   7.738   4.953   0.015  0.2549 -0.8455 -0.3585
   14MOL   C67712403   8.117   4.614   0.243  0.3577  0.2758  0.8203
   14MOL   C67812404   8.187   4.487   0.260  0.3615 -0.7031  0.0436
   14MOL   C67912405   8.243   4.449   0.385  0.0720  0.0937 -0.5390
   14MOL   C68012406   8.223   4.534   0.496 -1.1229  0.5107 -0.5373
   14MOL   C68112407   8.147   4.650   0.485 -0.5175 -0.0539 -0.0708
   14MOL   C68212408   8.102   4.695   0.362  0.0532  0.2835 -0.0880
   14MOL   S68312409   8.277   4.478   0.666  0.5014  0.3990 -0.0546
   14MOL   O68412410   8.354   4.584   0.724  0.3363 -0.5134 -0.5549
   14MOL   O68512411   8.329   4.341   0.660  0.0636 -0.8007 -0.2135
   14MOL   C68612412   8.126   4.452   0.759 -0.5003 -0.6022 -0.0576
   14MOL   C68712413   8.124   4.454   0.901 -0.6754  0.6580  0.2149
   14MOL   C68812414   8.006   4.406   0.963 -0.6029  0.0465 -0.1006
   14MOL   C68912415   7.890   4.368   0.888 -0.2099  0.2131  0.7200
   14MOL   C69012416   7.889   4.395   0.746 -0.2481 -0.4513 -0.3207
   14MOL   C69112417   8.007   4.428   0.683  0.7890 -0.0851 -0.2407
   14MOL   O69212418   7.775   4.318   0.945 -0.3873 -0.0652 -0.9546
   14MOL   C69312419   7.656   4.390   0.942  0.4400 -0.2992  0.7519
   14MOL   C69412420   7.615   4.476   1.048  0.4084  0.3292 -0.0742
   14MOL   C69512421   7.495   4.551   1.036 -0.0869  0.1666 -0.0499
   14MOL   C69612422   7.410   4.536   0.924  0.2472  0.6086 -0.2861
   14MOL   C69712423   7.442   4.445   0.822 -0.5524 -0.0440 -0.2873
   14MOL   C69812424   7.564   4.378   0.828 -0.1853  0.9301 -0.1681
   14MOL   C69912425   7.277   4.601   0.940  0.2974  0.0272  0.0547
   14MOL   C70012426   7.265   4.728   1.012  0.1119  0.4246 -1.1052
   14MOL   C70112427   7.136   4.793   1.032  0.1855 -0.0062  0.1273
   14MOL   C70212428   7.019   4.723   0.986 -0.3024 -0.0458  0.1486
   14MOL   C70312429   7.032   4.610   0.903 -0.1255  0.3324 -0.0426
   14MOL   C70412430   7.156   4.550   0.881 -0.4833  0.2384 -0.9244
   14MOL   O70512431   6.887   4.761   1.010  0.8473 -0.6522 -0.1386
   14MOL   H70612432   8.189   4.423   0.173  0.9419  0.7976 -1.0667
   14MOL   H70712433   8.283   4.351   0.407 -0.2225  0.7843  3.6176
   14MOL   H70812434   8.130   4.712   0.572  0.2653 -1.5462  1.1768
   14MOL   H70912435   8.047   4.788   0.361  0.2483  0.4572  2.2631
   14MOL   H71012436   8.214   4.460   0.961  0.4389 -1.6976 -1.1689
   14MOL   H71112437   8.005   4.391   1.070 -0.1628 -2.2284 -0.3979
   14MOL   H71212438   7.795   4.386   0.694 -0.7854 -1.1768  0.7423
   14MOL   H71312439   8.019   4.428   0.575 -1.2906 -0.4430 -0.4930
   14MOL   H71412440   7.672   4.489   1.139 -0.3893 -1.6440  0.7464
   14MOL   H71512441   7.467   4.603   1.126 -1.6088 -0.7688  0.0329
   14MOL   H71612442   7.378   4.433   0.736 -0.5653  2.2292 -0.6254
   14MOL   H71712443   7.590   4.317   0.743 -2.0456  0.0351 -0.1220
   14MOL   H71812444   7.352   4.780   1.050 -0.6699  0.6212  0.4512
   14MOL   H71912445   7.128   4.883   1.091  0.2491  0.1522 -0.1066
   14MOL   H72012446   6.938   4.565   0.873 -0.7360  0.1883  2.0268
   14MOL   H72112447   7.173   4.457   0.828 -3.0242 -2.7554  3.2032
   14MOL   C72212448   6.852   4.790   1.141 -0.5459  0.0698  0.0167
   14MOL   C72312449   6.842   4.678   1.230  0.2711 -0.3292  0.2017
   14MOL   C72412450   6.823   4.701   1.366 -0.8572 -0.9294 -0.0312
   14MOL   C72512451   6.827   4.832   1.417 -0.3346  0.0889 -0.4699
   14MOL   C72612452   6.832   4.943   1.329  0.5533 -0.6113 -0.0908
   14MOL   C72712453   6.849   4.923   1.191  0.3643 -0.4109  0.3058
   14MOL   S72812454   6.819   4.867   1.594 -0.1624 -0.4311  0.2591
   14MOL   O72912455   6.783   4.737   1.652 -0.4137  0.1614 -0.1009
   14MOL   O73012456   6.729   4.982   1.613  0.0979  0.2441  0.1577
   14MOL   C73112457   6.981   4.911   1.657  0.1008 -0.3834 -0.4873
   14MOL   C73212458   7.004   4.881   1.797 -0.5511 -0.0946  0.1870
   14MOL   C73312459   7.130   4.911   1.851  0.6096  0.4451  0.4697
   14MOL   C73412460   7.236   4.952   1.767  0.2530 -0.5141 -0.0706
   14MOL   C73512461   7.216   4.976   1.631 -0.0505  0.3132 -0.3670
   14MOL   C73612462   7.087   4.957   1.579 -0.2105 -1.3302  0.5361
   14MOL   O73712463   7.361   4.982   1.816  0.0072  0.2031  0.2949
   14MOL   C73812464   7.377   5.052   1.930  0.3655  0.2792 -0.7426
   14MOL   C73912465   7.311   5.176   1.945 -0.3720  0.8282  0.6566
   14MOL   C74012466   7.350   5.261   2.052  0.7811 -0.0894  0.6352
   14MOL   C74112467   7.454   5.231   2.143  0.9558  0.0976  0.0371
   14MOL   C74212468   7.517   5.107   2.125 -0.1701 -0.2190  0.9470
   14MOL   C74312469   7.470   5.014   2.031 -0.4699 -0.5105  0.0596
   14MOL   C74412470   7.498   5.329   2.237 -0.1828 -0.0059 -0.0455
   14MOL   C74512471   7.554   5.293   2.361  0.2017  0.3885 -0.1098
   14MOL   C74612472   7.598   5.393   2.451  0.6222  0.3642  0.3449
   14MOL   C74712473   7.583   5.528   2.419 -0.3596  0.7745  0.2643
   14MOL   C74812474   7.531   5.566   2.292 -0.8913  0.1802 -0.0447
   14MOL   C74912475   7.478   5.467   2.209 -0.0523  0.5961 -0.2639
   14MOL   O75012476   7.633   5.617   2.512  0.9908  0.5540  0.2153
   14MOL   H75112477   6.852   4.574   1.202 -0.9717 -0.2369 -0.6045
   14MOL   H75212478   6.810   4.621   1.438  0.3159 -1.4959 -0.4338
   14MOL   H75312479   6.823   5.046   1.361  1.3917 -0.2677 -0.9274
   14MOL   H75412480   6.842   5.002   1.117 -0.1558 -2.5928 -2.0470
   14MOL   H75512481   6.934   4.840   1.868  1.5639 -1.4823  1.5140
   14MOL   H75612482   7.141   4.889   1.956 -1.0329  0.1364  0.5885
   14MOL   H75712483   7.297   4.995   1.563 -0.2333 -0.8894 -0.9275
   14MOL   H75812484   7.072   4.973   1.473  0.0139  1.9068  0.9480
   14MOL   H75912485   7.234   5.201   1.873  1.8692  1.6245 -1.5304
   14MOL   H76012486   7.298   5.354   2.067  0.6054  0.1975 -1.5947
   14MOL   H76112487   7.603   5.085   2.187  1.6165  1.4048 -0.8752
   14MOL   H76212488   7.535   4.931   2.007  0.5475 -0.2057  1.6977
   14MOL   H76312489   7.550   5.187   2.383 -1.2299  0.3923 -0.2885
   14MOL   H76412490   7.627   5.371   2.553  1.8301  2.2064  0.4097
   14MOL   H76512491   7.527   5.669   2.261 -2.0035 -0.1906 -1.1223
   14MOL   H76612492   7.433   5.493   2.115 -0.1536 -1.3256 -0.7756
   14MOL   C76712493   7.551   5.713   2.566  0.5139  0.3674  0.0795
   14MOL   C76812494   7.408   5.712   2.545  0.7335  0.0657  0.2435
   14MOL   C76912495   7.322   5.808   2.604  0.0792 -0.1281 -1.1210
   14MOL   C77012496   7.385   5.913   2.674 -0.4061 -0.5516  0.3399
   14MOL   C77112497   7.523   5.914   2.695 -0.0143 -0.6406 -0.0788
   14MOL   C77212498   7.604   5.808   2.650 -0.1361 -0.0189  0.0902
   14MOL   S77312499   7.296   6.045   2.752 -0.1017  0.2151 -0.0809
   14MOL   O77412500   7.360   6.080   2.885 -0.0477  0.4613  0.4100
   14MOL   O77512501   7.154   6.010   2.750  0.0942  0.2964  0.0930
   14MOL   C77612502   7.313   6.185   2.643 -0.2896 -0.7920 -0.5842
   14MOL   C77712503   7.393   6.293   2.685 -0.2245 -0.3192  0.6532
   14MOL   C77812504   7.415   6.400   2.593  0.1956  0.3671 -0.8302
   14MOL   C77912505   7.356   6.399   2.461  0.2781 -0.1906  0.5612
   14MOL   C78012506   7.275   6.291   2.425 -0.6226  0.1824 -0.3066
   14MOL   C78112507   7.250   6.184   2.518  0.7391 -0.1925  0.2101
   14MOL   O78212508   7.384   6.497   2.371 -0.0557 -0.1076 -0.4602
   14MOL   C78312509   7.477   6.595   2.398  0.7663 -0.1525 -0.7503
   14MOL   C78412510   7.613   6.591   2.361  0.1586 -0.3099  0.3107
   14MOL   C78512511   7.686   6.711   2.375  0.1174 -0.9486 -0.4906
   14MOL   C78612512   7.633   6.823   2.441 -0.6357  0.7744  0.1437
   14MOL   C78712513   7.501   6.818   2.477  0.0888 -0.4691  1.3013
   14MOL   C78812514   7.422   6.710   2.455 -0.4356 -0.3172  0.3574
   14MOL   C78912515   7.708   6.949   2.463  1.1480  0.2629 -0.4987
   14MOL   C79012516   7.642   7.071   2.467 -0.2496 -0.0057  1.3031
   14MOL   C79112517   7.714   7.192   2.486 -0.2234  0.4013 -0.6732
   14MOL   C79212518   7.855   7.187   2.499  0.0810 -0.6386  0.3058
   14MOL   C79312519   7.923   7.062   2.505  0.1224 -0.7289  0.5534
   14MOL   C79412520   7.846   6.947   2.483 -0.7838 -0.3169  0.1641
   14MOL   O79512521   7.926   7.304   2.510 -0.2126 -0.6046  0.0745
   14MOL   H79612522   7.361   5.635   2.485 -0.6971  1.1114 -0.0103
   14MOL   H79712523   7.217   5.814   2.580 -0.3133  0.0672  0.5751
   14MOL   H79812524   7.570   5.995   2.749  0.0709 -1.7669  1.6038
   14MOL   H79912525   7.709   5.816   2.674  0.1302 -2.0210 -0.3538
   14MOL   H80012526   7.428   6.286   2.787  1.8370 -0.3204 -0.0298
   14MOL   H80112527   7.485   6.479   2.618  1.5793 -0.3423 -2.3481
   14MOL   H80212528   7.233   6.288   2.326  0.1516  0.0445 -0.6351
   14MOL   H80312529   7.194   6.096   2.489  0.2382  0.1611  0.1040
   14MOL   H80412530   7.658   6.506   2.312  0.1140  0.5851 -1.3201
   14MOL   H80512531   7.783   6.709   2.329 -0.3398  0.1992 -1.5270
   14MOL   H80612532   7.454   6.900   2.529 -2.1902 -0.2608 -0.9911
   14MOL   H80712533   7.316   6.722   2.474 -0.7807 -2.1921 -0.3385
   14MOL   H80812534   7.536   7.086   2.452  0.1480  2.6106  0.8278
   14MOL   H80912535   7.671   7.291   2.487 -0.5957  0.2518 -1.1968
   14MOL   H81012536   8.030   7.069   2.499 -0.0048 -0.1830 -1.6624
   14MOL   H81112537   7.896   6.853   2.468  0.5694  0.3864  0.1742
   14MOL   C81212538   7.984   7.352   2.392 -0.0896  0.0692 -1.6246
   14MOL   C81312539   7.910   7.411   2.288 -0.1973 -0.8144 -0.2837
   14MOL   C81412540   7.978   7.457   2.176 -0.3993  0.1535 -0.2835
   14MOL   C81512541   8.118   7.468   2.178 -0.3767  0.1487 -0.0006
   14MOL   C81612542   8.192   7.412   2.283  0.3532  0.0503  0.3047
   14MOL   C81712543   8.125   7.349   2.390  0.5037 -0.1191 -0.1529
   14MOL   S81812544   8.197   7.537   2.031 -0.1217  0.5709 -0.2182
   14MOL   O81912545   8.332   7.582   2.062 -0.3349 -0.4206  0.1530
   14MOL   O82012546   8.109   7.637   1.969  0.2523 -0.2138 -0.4903
   14MOL   C82112547   8.216   7.395   1.918 -0.7155  0.0635 -0.0198
   14MOL   C82212548   8.339   7.379   1.846 -0.1514 -0.5541 -1.0518
   14MOL   C82312549   8.354   7.266   1.764 -0.8584 -0.0360 -0.3999
   14MOL   C82412550   8.261   7.163   1.767 -0.5542  0.4157  0.5286
   14MOL   C82512551   8.131   7.187   1.819 -0.2601  0.3366 -0.0177
   14MOL   C82612552   8.108   7.302   1.898  0.3309 -0.2661 -0.2971
   14MOL   O82712553   8.295   7.044   1.711 -0.1642  0.1264 -0.2756
   14MOL   C82812554   8.292   7.032   1.573  0.3535  0.1601 -0.4356
   14MOL   C82912555   0.046   7.002   1.505 -1.1173  0.3867 -0.4952
   14MOL   C83012556   0.052   6.981   1.369 -0.0950 -0.7077  0.0232
   14MOL   C83112557   8.297   7.001   1.294 -0.6058 -0.3444 -0.0752
   14MOL   C83212558   8.174   7.025   1.355 -0.4222 -0.3116  0.2669
   14MOL   C83312559   8.176   7.039   1.496 -0.7477  0.0012  0.1703
   14MOL   C83412560   8.295   6.977   1.146 -0.3067 -0.0050  0.4845
   14MOL   C83512561   0.021   6.891   1.081  0.3438 -0.4916 -0.3778
   14MOL   C83612562   0.013   6.883   0.937 -0.4876 -0.4400 -0.0636
   14MOL   C83712563   8.273   6.945   0.867  0.4517 -0.6745 -0.4322
   14MOL   C83812564   8.184   7.028   0.937  0.0926 -0.0457 -0.5820
   14MOL   C83912565   8.194   7.046   1.069  0.0261 -0.4120 -0.3235
   14MOL   O84012566   8.272   6.941   0.730  0.2688  0.0160  0.4283
   14MOL   H84112567   7.804   7.422   2.307 -0.4676 -2.7971 -0.5659
   14MOL   H84212568   7.917   7.499   2.098  0.4178  0.7549 -0.6066
   14MOL   H84312569   8.299   7.412   2.295  0.5250 -0.8954 -1.1469
   14MOL   H84412570   8.187   7.313   2.471  2.3360  2.1211 -0.5237
   14MOL   H84512571   0.048   7.456   1.850 -0.9488  0.3148 -2.3008
   14MOL   H84612572   0.087   7.269   1.721  0.4785  0.6728  2.5603
   14MOL   H84712573   8.056   7.110   1.808 -1.1777  0.9518  1.6733
   14MOL   H84812574   8.014   7.320   1.948  0.6951  0.2552  0.2188
   14MOL   H84912575   0.137   6.985   1.561 -1.8121  1.1667  0.9041
   14MOL   H85012576   0.153   6.971   1.331 -0.3481  0.5331 -1.0173
   14MOL   H85112577   8.085   7.034   1.293 -0.5510 -2.1379  0.1673
   14MOL   H85212578   8.077   7.052   1.538 -0.7156  0.4917  0.0901
   14MOL   H85312579   0.095   6.840   1.140 -0.9513 -2.1142 -0.1135
   14MOL   H85412580   0.078   6.818   0.879  0.2472 -0.5000  0.8211
   14MOL   H85512581   8.112   7.086   0.881  2.5747  0.7823 -3.0346
   14MOL   H85612582   8.132   7.122   1.111 -0.1215 -1.3991  1.2781
   14MOL   C85712583   8.346   7.033   0.657  0.6276  0.4600 -0.5313
   14MOL   C85812584   0.100   6.986   0.598  0.6960  0.4889  0.0459
   14MOL   C85912585   0.168   7.071   0.505  0.3716  0.0715 -0.0216
   14MOL   C86012586   0.122   7.200   0.479  0.5196  0.0377 -0.4040
   14MOL   C86112587   0.005   7.249   0.548  0.7227 -0.5073  0.2276
   14MOL   C86212588   8.294   7.163   0.631 -0.2710  0.1397  1.0318
   14MOL   S86312589   0.206   7.307   0.366 -0.6554 -0.0558 -0.0133
   14MOL   O86412590   0.348   7.267   0.359  0.3526  0.3272 -0.0924
   14MOL   O86512591   0.166   7.446   0.385 -0.2383 -0.0483  0.1455
   14MOL   C86612592   0.153   7.272   0.197  0.2059  0.1843  0.1802
   14MOL   C86712593   0.065   7.166   0.173 -0.3167 -0.0204  0.4861
   14MOL   C86812594   0.049   7.124   0.037  0.1175  0.1009 -0.3302
   14MOL   C86912595   0.104   7.194   8.297  0.1591 -0.8442  0.6820
   14MOL   C87012596   0.182   7.311   8.329  0.1638 -0.4874 -0.5194
   14MOL   C87112597   0.211   7.346   0.096 -1.1730  0.3905 -0.2544
   14MOL   O87212598   0.069   7.165   8.161  0.2864 -0.0240  0.4961
   14MOL   C87312599   8.316   7.100   8.137 -0.2553 -0.2110 -0.1046
   14MOL   C87412600   8.194   7.176   8.123  0.6504 -0.1285 -0.2649
   14MOL   C87512601   8.077   7.101   8.080 -0.6881  0.2683 -0.7438
   14MOL   C87612602   8.079   6.960   8.061  0.0660  0.0455 -0.2086
   14MOL   C87712603   8.204   6.892   8.082 -0.0374  0.0587 -0.7048
   14MOL   C87812604   8.318   6.960   8.126  0.2381  0.7758 -0.8044
   14MOL   C87912605   7.972   6.891   7.992  0.8656 -0.5353  0.2933
   14MOL   C88012606   7.844   6.920   8.038  0.0453 -0.1938  0.3412
   14MOL   C88112607   7.729   6.858   7.991 -0.0432 -0.2738  0.5359
   14MOL   C88212608   7.744   6.764   7.888  0.1526  0.2712 -0.2470
   14MOL   C88312609   7.874   6.739   7.830 -0.2236 -0.3367 -0.0366
   14MOL   C88412610   7.986   6.800   7.887 -0.7469 -0.6686  0.4171
   14MOL   O88512611   7.644   6.690   7.841 -0.0877 -0.1118  0.2062
   14MOL   H88612612   0.143   6.886   0.600 -0.1068  0.1441  0.4337
   14MOL   H88712613   0.253   7.039   0.446 -2.1256 -4.9672 -1.1189
   14MOL   H88812614   8.337   7.351   0.539 -0.2306 -0.7855  0.5844
   14MOL   H88912615   8.199   7.202   0.667 -1.6193 -1.2932 -0.8398
   14MOL   H89012616   0.025   7.107   0.254 -1.2180 -0.1763 -0.0731
   14MOL   H89112617   8.365   7.029   0.021  0.7825 -0.2014 -0.6290
   14MOL   H89212618   0.236   7.355   8.246 -0.4512  1.0843 -0.1035
   14MOL   H89312619   0.275   7.425   0.132 -1.8297  1.4675 -1.4077
   14MOL   H89412620   8.194   7.283   8.132  0.5034 -0.1695  0.2409
   14MOL   H89512621   7.985   7.151   8.051  0.3648  1.8724 -1.3910
   14MOL   H89612622   8.205   6.786   8.065 -2.1246 -0.3754  1.5727
   14MOL   H89712623   0.048   6.914   8.144 -0.6913 -0.0080  2.4458
   14MOL   H89812624   7.821   6.989   8.119 -1.2867  1.9105 -1.7670
   14MOL   H89912625   7.637   6.875   8.044  0.5498 -2.2827  2.2990
   14MOL   H90012626   7.883   6.679   7.740 -0.0056  0.7084 -0.7292
   14MOL   H90112627   8.087   6.777   7.857 -0.2972  2.3262 -0.5482
   14MOL   H90212628   7.671   6.603   7.815 -1.0167  0.2236 -2.0032
   15MOL     C112629   4.772   7.658   4.370 -0.2668 -0.4745 -0.1389
   15MOL     C212630   4.848   7.556   4.316 -0.4817 -0.3027 -0.4208
   15MOL     C312631   4.914   7.471   4.404 -0.2747  0.1087  0.4359
   15MOL     C412632   4.911   7.489   4.542  0.2788 -0.2126 -0.9643
   15MOL     C512633   4.837   7.595   4.601 -0.5686 -0.4473 -0.1115
   15MOL     C612634   4.767   7.674   4.511 -0.1148 -0.0422  0.2938
   15MOL     S712635   4.984   7.367   4.654 -0.0894 -0.2891 -0.2215
   15MOL     O812636   4.990   7.238   4.584 -0.1357  0.1037 -0.1562
   15MOL     O912637   4.909   7.374   4.782 -0.4951 -0.2413  0.0366
   15MOL    C1012638   5.154   7.426   4.688  0.1526  0.4705  0.6433
   15MOL    C1112639   5.251   7.325   4.691 -0.1074 -0.5605  0.0801
   15MOL    C1212640   5.384   7.356   4.714 -0.2053  0.6848  0.3139
   15MOL    C1312641   5.423   7.492   4.741  0.6049  0.1241  0.1046
   15MOL    C1412642   5.323   7.594   4.737 -0.1189 -0.2397  0.0140
   15MOL    C1512643   5.187   7.559   4.718  0.2577 -1.0234 -0.5233
   15MOL    O1612644   5.547   7.547   4.764  0.2451 -0.2753  0.0447
   15MOL    C1712645   5.662   7.469   4.778  0.2385  0.1897  0.6489
   15MOL    C1812646   5.752   7.471   4.673 -0.0801  1.0936  0.1240
   15MOL    C1912647   5.871   7.400   4.688  0.7042 -0.4400  0.0475
   15MOL    C2012648   5.914   7.337   4.804 -1.2324 -0.2853  0.1937
   15MOL    C2112649   5.826   7.332   4.908  0.2019 -0.3385  0.0420
   15MOL    C2212650   5.699   7.403   4.897 -0.0194 -0.1500 -0.2707
   15MOL    C2312651   6.056   7.285   4.806  0.0319 -0.4166 -0.2419
   15MOL    C2412652   6.114   7.225   4.686  0.1850  0.1548 -1.3463
   15MOL    C2512653   6.243   7.165   4.686 -0.0211 -0.1743  0.7396
   15MOL    C2612654   6.318   7.172   4.805  0.5010 -0.1120  0.0892
   15MOL    C2712655   6.256   7.218   4.924  0.2789  0.1972 -0.6468
   15MOL    C2812656   6.133   7.291   4.922  0.4578 -0.5507  0.0208
   15MOL    O2912657   6.441   7.109   4.822  0.7015 -0.2462  0.2454
   15MOL    H3012658   4.853   7.559   4.208 -0.6147 -0.6062 -0.4354
   15MOL    H3112659   4.981   7.400   4.358 -0.3861  0.0370  0.3854
   15MOL    H3212660   4.839   7.606   4.708  0.8264  0.8736 -0.2485
   15MOL    H3312661   4.725   7.762   4.558 -1.3732 -1.6806  2.3257
   15MOL    H3412662   5.222   7.222   4.672  2.5665 -1.3829  0.2452
   15MOL    H3512663   5.461   7.282   4.731 -0.4045 -0.0093 -1.7194
   15MOL    H3612664   5.349   7.698   4.746  2.3628 -0.5343 -2.8399
   15MOL    H3712665   5.104   7.628   4.721  1.8069  0.8501  0.3447
   15MOL    H3812666   5.737   7.517   4.576  0.0878  2.7741  0.8619
   15MOL    H3912667   5.934   7.391   4.601  1.6982 -1.4896  0.8530
   15MOL    H4012668   5.856   7.281   4.997  2.6865  2.3152  0.7893
   15MOL    H4112669   5.630   7.407   4.980  1.4485  1.8388  0.9179
   15MOL    H4212670   6.055   7.216   4.596 -1.5092  1.9821 -0.4600
   15MOL    H4312671   6.267   7.124   4.589 -3.5351 -0.0332 -0.2858
   15MOL    H4412672   6.308   7.198   5.017 -1.2165 -1.6830 -0.1923
   15MOL    H4512673   6.085   7.326   5.012  0.8866  2.5313 -0.8934
   15MOL    H4612674   4.716   7.727   4.307  0.4819 -0.2554 -0.5678
   15MOL    C4712675   6.511   7.069   4.717 -1.2241  0.2271  0.5322
   15MOL    C4812676   6.549   6.934   4.701 -0.4383 -0.5509  0.3283
   15MOL    C4912677   6.622   6.900   4.585  0.3167 -0.1149 -1.0070
   15MOL    C5012678   6.666   6.994   4.496 -0.2548  0.6771  0.2454
   15MOL    C5112679   6.634   7.128   4.511 -0.4045 -0.4676 -0.3516
   15MOL    C5212680   6.554   7.165   4.620  0.5674 -0.3263 -0.0981
   15MOL    S5312681   6.769   6.933   4.356  0.1238 -0.2250  0.1031
   15MOL    O5412682   6.680   6.874   4.256 -0.1730  0.0537 -0.6507
   15MOL    O5512683   6.876   6.845   4.408  0.2560 -0.1282 -0.1818
   15MOL    C5612684   6.858   7.073   4.290 -0.4207  0.7209 -0.3059
   15MOL    C5712685   6.949   7.140   4.369 -0.1466  0.2944  0.2064
   15MOL    C5812686   7.009   7.262   4.329  0.9251  0.2937 -0.6007
   15MOL    C5912687   7.002   7.290   4.191 -0.1457 -0.3778 -0.5477
   15MOL    C6012688   6.932   7.208   4.103  0.0039 -0.3000 -0.1341
   15MOL    C6112689   6.854   7.103   4.151 -0.3893  0.4859  0.7799
   15MOL    O6212690   7.065   7.403   4.133 -0.4588  0.1344  0.3792
   15MOL    C6312691   7.023   7.524   4.183 -0.4034  0.5658 -0.1829
   15MOL    C6412692   6.893   7.567   4.161  0.2049  0.1481  0.5411
   15MOL    C6512693   6.849   7.683   4.223 -0.0545 -0.1974 -0.3505
   15MOL    C6612694   6.938   7.755   4.303  0.1831  0.0638  0.2536
   15MOL    C6712695   7.075   7.721   4.315 -0.0418  0.1511  0.1101
   15MOL    C6812696   7.117   7.600   4.252 -0.4442  0.2235 -0.0567
   15MOL    C6912697   6.900   7.862   4.403 -0.0229 -1.0783  0.4792
   15MOL    C7012698   6.819   7.832   4.518 -0.4253  0.2510  0.1201
   15MOL    C7112699   6.780   7.930   4.610 -0.6712 -1.3268 -0.2928
   15MOL    C7212700   6.816   8.067   4.596  0.1749 -0.1069 -0.3145
   15MOL    C7312701   6.902   8.101   4.488  0.4306  0.3649 -0.2126
   15MOL    C7412702   6.939   7.998   4.395 -1.1514  0.4539  0.1809
   15MOL    O7512703   6.772   8.160   4.686  0.4750  1.2112 -0.2633
   15MOL    H7612704   6.517   6.862   4.774  0.1253 -2.2503 -1.0522
   15MOL    H7712705   6.652   6.797   4.569  1.0155 -0.1915  0.7680
   15MOL    H7812706   6.653   7.204   4.437  0.3810  0.4334  0.7652
   15MOL    H7912707   6.528   7.269   4.635 -0.0586 -0.6235  0.9034
   15MOL    H8012708   6.958   7.116   4.473 -1.0035 -0.9489  0.0010
   15MOL    H8112709   7.083   7.310   4.392  1.1469 -2.2588  1.1760
   15MOL    H8212710   6.941   7.232   3.998 -0.2653  2.3689  0.4233
   15MOL    H8312711   6.808   7.041   4.076 -0.9282  1.3227  0.4099
   15MOL    H8412712   6.836   7.497   4.102  2.8376 -0.0065 -1.8984
   15MOL    H8512713   6.748   7.720   4.217 -0.5079 -1.2513  0.6240
   15MOL    H8612714   7.132   7.770   4.393  1.9686 -0.0362 -1.2029
   15MOL    H8712715   7.216   7.564   4.276  0.9755  1.5448 -3.6963
   15MOL    H8812716   6.792   7.730   4.540  0.8053 -0.4199 -1.4035
   15MOL    H8912717   6.728   7.908   4.701  0.5798 -1.1425  0.4795
   15MOL    H9012718   6.942   8.198   4.463  3.0526 -0.5114  0.4589
   15MOL    H9112719   7.003   8.013   4.309 -0.0505  1.2396  1.1336
   15MOL    C9212720   6.726   8.286   4.657  0.1342 -0.4952  0.3309
   15MOL    C9312721   6.682   8.315   4.531 -0.7403  0.3684 -0.6114
   15MOL    C9412722   6.646   0.082   4.497 -0.1516 -0.1117  0.5442
   15MOL    C9512723   6.642   0.177   4.602 -0.2232 -0.7329 -0.0961
   15MOL    C9612724   6.685   0.140   4.732  0.5823  0.5155  0.5793
   15MOL    C9712725   6.727   0.013   4.759  0.6124 -0.5631  0.2647
   15MOL    S9812726   6.603   0.343   4.559 -0.3558 -0.0875  0.4467
   15MOL    O9912727   6.477   0.381   4.627  0.0695  0.3757 -0.3366
   15MOL   O10012728   6.617   0.361   4.415 -0.0903  0.1459 -0.0378
   15MOL   C10112729   6.738   0.437   4.624 -0.2153  0.7404 -0.0916
   15MOL   C10212730   6.874   0.411   4.609  0.0336  0.0572 -0.0301
   15MOL   C10312731   6.975   0.504   4.657 -1.1559  0.5111  0.1597
   15MOL   C10412732   6.935   0.619   4.723  0.0734 -0.7494 -1.0555
   15MOL   C10512733   6.792   0.639   4.746  0.2669  0.2487 -0.4800
   15MOL   C10612734   6.695   0.545   4.704 -0.5365 -0.3459  0.3575
   15MOL   O10712735   7.032   0.704   4.777 -0.3476  0.0142 -0.6439
   15MOL   C10812736   7.073   0.796   4.686 -0.4580 -0.6413 -0.5979
   15MOL   C10912737   7.011   0.921   4.686  0.2424 -1.2785  0.2924
   15MOL   C11012738   7.047   1.025   4.594  0.2211 -0.2297 -0.0693
   15MOL   C11112739   7.144   1.002   4.495  0.0415  0.3161 -0.3604
   15MOL   C11212740   7.215   0.878   4.496 -0.0831  0.5694 -0.4175
   15MOL   C11312741   7.177   0.772   4.590  0.1947  0.5528 -0.5707
   15MOL   C11412742   7.165   1.101   4.394 -0.5599  0.6020 -0.1299
   15MOL   C11512743   7.065   1.187   4.351  0.4127 -0.1127 -0.3668
   15MOL   C11612744   7.097   1.294   4.264 -0.1346  0.0114 -0.3106
   15MOL   C11712745   7.223   1.312   4.206 -0.1416  0.2670  0.1141
   15MOL   C11812746   7.320   1.213   4.236  0.0361 -0.7283 -0.1049
   15MOL   C11912747   7.291   1.114   4.332 -0.0761  0.1442 -0.2126
   15MOL   O12012748   7.241   1.421   4.130 -0.5365 -0.2829  0.4028
   15MOL   H12112749   6.679   8.236   4.458  1.1510 -0.2238 -0.0903
   15MOL   H12212750   6.627   0.116   4.397  0.2468  0.7845  0.7702
   15MOL   H12312751   6.702   0.215   4.808  1.9821  0.0933  0.7138
   15MOL   H12412752   6.757   8.346   4.858 -1.7536 -1.7296  0.6421
   15MOL   H12512753   6.890   0.321   4.552 -1.6545 -0.0379 -0.3669
   15MOL   H12612754   7.079   0.487   4.636 -1.4483  0.5635 -1.4150
   15MOL   H12712755   6.761   0.727   4.801 -0.2610  0.8143 -1.6778
   15MOL   H12812756   6.590   0.562   4.716 -0.6405  0.5157 -1.5226
   15MOL   H12912757   6.931   0.939   4.756  0.4343 -0.1277  0.2236
   15MOL   H13012758   7.002   1.123   4.593  0.4368 -0.1390 -1.2452
   15MOL   H13112759   7.284   0.845   4.420  2.5523 -0.5835  2.3630
   15MOL   H13212760   7.220   0.673   4.585  0.2357  0.5520 -0.2378
   15MOL   H13312761   6.961   1.188   4.381  1.0506 -0.3668  1.9856
   15MOL   H13412762   7.020   1.365   4.239  0.3301 -0.0206 -1.8445
   15MOL   H13512763   7.417   1.217   4.189  0.0897 -0.2018  0.0452
   15MOL   H13612764   7.372   1.050   4.364 -0.7060  0.5516  2.3310
   15MOL   C13712765   7.224   1.546   4.181  0.0774  1.6062  0.3750
   15MOL   C13812766   7.167   1.651   4.109  0.0275  0.2270 -0.5650
   15MOL   C13912767   7.119   1.768   4.167  0.0506 -0.2889  0.1310
   15MOL   C14012768   7.139   1.783   4.306  0.3468  0.4430  0.1085
   15MOL   C14112769   7.190   1.677   4.385 -0.4805  0.7853 -0.3131
   15MOL   C14212770   7.244   1.560   4.318  0.8601  0.2720  0.0980
   15MOL   S14312771   7.087   1.930   4.384 -0.0870  0.0894 -0.3659
   15MOL   O14412772   7.088   2.029   4.277 -0.4113 -0.0685 -0.2056
   15MOL   O14512773   7.173   1.954   4.501  0.2576  0.2110 -0.1651
   15MOL   C14612774   6.919   1.907   4.448  0.0153 -0.7823 -0.1076
   15MOL   C14712775   6.850   1.797   4.397  0.0425  0.4540 -0.1694
   15MOL   C14812776   6.723   1.764   4.449  0.4599 -0.3584 -0.0751
   15MOL   C14912777   6.660   1.857   4.537 -0.6414 -0.0174 -0.5128
   15MOL   C15012778   6.727   1.982   4.571 -0.2762 -0.8240 -0.6999
   15MOL   C15112779   6.860   2.004   4.530 -0.1706  0.2831  0.3959
   15MOL   O15212780   6.543   1.824   4.599 -0.8319 -0.0084  0.6094
   15MOL   C15312781   6.545   1.753   4.719 -0.1283  0.4507  1.1093
   15MOL   C15412782   6.576   1.617   4.722 -0.1665 -0.3919 -0.1389
   15MOL   C15512783   6.551   1.541   4.842  0.1511  0.0408  0.6691
   15MOL   C15612784   6.491   1.593   4.955 -0.0647  0.2910 -0.4625
   15MOL   C15712785   6.453   1.729   4.946  1.0900  0.3351 -0.0735
   15MOL   C15812786   6.486   1.812   4.833  0.3438 -0.1373 -0.2692
   15MOL   C15912787   6.470   1.493   5.067  0.4541  0.1359  0.1399
   15MOL   C16012788   6.345   1.493   5.132  0.7233  0.0209 -0.4187
   15MOL   C16112789   6.321   1.411   5.240 -0.4975  0.2880  0.7291
   15MOL   C16212790   6.423   1.318   5.280  0.1071 -0.2112 -0.0075
   15MOL   C16312791   6.545   1.310   5.208 -0.2317 -0.3602  0.1165
   15MOL   C16412792   6.569   1.401   5.107  0.3231  0.2688  1.1535
   15MOL   O16512793   6.402   1.231   5.386  0.0359 -0.0968 -0.3560
   15MOL   H16612794   7.143   1.638   4.004  1.1754  0.8667 -0.9181
   15MOL   H16712795   7.081   1.847   4.103 -0.6771 -0.3967  0.4256
   15MOL   H16812796   7.199   1.690   4.492  1.4748  0.0879 -0.3635
   15MOL   H16912797   7.287   1.477   4.372  1.9230 -0.8376 -2.3886
   15MOL   H17012798   6.906   1.721   4.345 -2.2158 -1.1665 -0.2907
   15MOL   H17112799   6.673   1.671   4.423  0.1039 -0.2397  0.1801
   15MOL   H17212800   6.683   2.055   4.636 -0.6682 -1.2043 -0.5372
   15MOL   H17312801   6.904   2.099   4.554 -1.5010  0.7639  0.9618
   15MOL   H17412802   6.605   1.569   4.629 -0.8461  0.7889 -0.9681
   15MOL   H17512803   6.580   1.437   4.834  0.5416  0.0516  1.9213
   15MOL   H17612804   6.411   1.794   5.021  2.9145 -0.1238  1.3826
   15MOL   H17712805   6.440   1.910   4.838  1.2218  0.1875  1.5889
   15MOL   H17812806   6.268   1.567   5.113 -0.3530 -0.6276  1.3257
   15MOL   H17912807   6.234   1.427   5.301  0.1669  2.2342  1.1896
   15MOL   H18012808   6.625   1.245   5.240 -1.0817 -0.5574  1.8882
   15MOL   H18112809   6.668   1.401   5.063  0.1058 -0.6098  0.6519
   15MOL   C18212810   6.346   1.104   5.352 -0.1660  0.1261  0.1165
   15MOL   C18312811   6.300   1.032   5.456 -0.3744  0.1971 -0.2444
   15MOL   C18412812   6.262   0.894   5.438  0.0335  0.1823  0.2501
   15MOL   C18512813   6.267   0.833   5.307  0.5565 -0.3402 -0.6839
   15MOL   C18612814   6.313   0.916   5.202  0.1936 -0.5105 -0.3547
   15MOL   C18712815   6.349   1.047   5.219  0.4671  0.3609 -0.8449
   15MOL   S18812816   6.220   0.660   5.275 -0.0369 -0.1195 -0.1961
   15MOL   O18912817   6.330   0.578   5.218  0.4632  0.2285  0.5479
   15MOL   O19012818   6.096   0.666   5.198  0.5170 -0.3474 -0.2584
   15MOL   C19112819   6.179   0.576   5.424 -0.0025  0.3345  0.1984
   15MOL   C19212820   6.247   0.457   5.462 -0.6112  0.0741  0.1879
   15MOL   C19312821   6.211   0.389   5.581  0.0808  0.8399 -0.0565
   15MOL   C19412822   6.107   0.435   5.660 -0.2865  0.4860 -0.2162
   15MOL   C19512823   6.036   0.555   5.620  0.4474  1.0039  0.3975
   15MOL   C19612824   6.065   0.620   5.498  0.1262 -0.5696 -0.5673
   15MOL   O19712825   6.080   0.368   5.775 -0.2741  0.0539  0.0140
   15MOL   C19812826   5.969   0.396   5.849  0.1193  0.6462 -0.7703
   15MOL   C19912827   5.845   0.342   5.819 -0.3325  0.1604 -0.3547
   15MOL   C20012828   5.737   0.360   5.906  0.1950 -0.2915 -0.3454
   15MOL   C20112829   5.744   0.441   6.025  0.2682 -0.6001  1.1451
   15MOL   C20212830   5.875   0.492   6.061 -0.1796  0.3104 -0.3246
   15MOL   C20312831   5.984   0.467   5.974 -0.1188 -0.4196 -0.7169
   15MOL   C20412832   5.627   0.465   6.108  0.1029 -0.2895 -0.4612
   15MOL   C20512833   5.498   0.501   6.055  0.5352 -0.0675  0.6162
   15MOL   C20612834   5.383   0.532   6.137  0.2009 -0.1589  0.1018
   15MOL   C20712835   5.396   0.535   6.276 -0.1451  0.4460  0.4093
   15MOL   C20812836   5.519   0.506   6.330 -0.4121  0.5746  0.0926
   15MOL   C20912837   5.628   0.460   6.250  0.0873  0.0785 -0.2300
   15MOL   O21012838   5.293   0.572   6.358  0.1712 -0.2899  0.2291
   15MOL   H21112839   6.298   1.067   5.558  1.8979  3.0309 -1.1159
   15MOL   H21212840   6.223   0.842   5.524  1.0789  0.4386  0.8897
   15MOL   H21312841   6.325   0.873   5.104  1.1651  0.0656 -0.4957
   15MOL   H21412842   6.387   1.108   5.139 -0.2352  1.0597 -0.6559
   15MOL   H21512843   6.325   0.412   5.403  0.4669  0.5592  1.2113
   15MOL   H21612844   6.263   0.301   5.615  2.3639  3.2662  3.0768
   15MOL   H21712845   5.954   0.593   5.679 -0.5402 -2.0337  1.0398
   15MOL   H21812846   6.016   0.708   5.459 -2.2034  0.4465  4.3510
   15MOL   H21912847   5.829   0.278   5.734 -0.6218  0.0815 -0.2426
   15MOL   H22012848   5.643   0.316   5.875  0.9026  0.6700 -4.0066
   15MOL   H22112849   5.892   0.541   6.156 -0.5519  1.9793 -1.0879
   15MOL   H22212850   6.088   0.490   5.994 -0.5125 -0.7032  1.8565
   15MOL   H22312851   5.479   0.509   5.950 -0.5230  1.3702  0.9137
   15MOL   H22412852   5.287   0.559   6.096  0.0022 -1.3064 -0.1938
   15MOL   H22512853   5.539   0.502   6.436  1.6245  0.3259 -0.2801
   15MOL   H22612854   5.718   0.429   6.302  0.0397 -0.2123 -0.3200
   15MOL   C22712855   5.173   0.514   6.341 -0.5485  0.3604 -0.3563
   15MOL   C22812856   5.166   0.372   6.333 -0.5250  0.3966  1.1941
   15MOL   C22912857   5.046   0.305   6.309 -0.7065 -0.1268  0.0028
   15MOL   C23012858   4.924   0.380   6.301  0.3081 -0.5069 -0.1978
   15MOL   C23112859   4.923   0.524   6.321  0.5575  1.1636 -0.2763
   15MOL   C23212860   5.048   0.584   6.343 -0.5626  0.2904  0.2536
   15MOL   S23312861   4.772   0.293   6.280  0.0650 -0.1613  0.0548
   15MOL   O23412862   4.800   0.157   6.229 -0.1100 -0.2031 -0.4422
   15MOL   O23512863   4.685   0.391   6.212  0.2397 -0.3381  0.1848
   15MOL   C23612864   4.711   0.270   6.449 -0.2515  0.5880 -0.1327
   15MOL   C23712865   4.680   0.141   6.486  0.0708  0.1227  0.8429
   15MOL   C23812866   4.633   0.113   6.616  0.5714  0.1400  0.1062
   15MOL   C23912867   4.624   0.214   6.711  0.1926 -0.2009 -0.4109
   15MOL   C24012868   4.658   0.345   6.668 -0.0459  0.0055 -0.0417
   15MOL   C24112869   4.694   0.376   6.536  0.5579  0.4514 -0.4362
   15MOL   O24212870   4.582   0.198   6.836  0.4438  0.0660  0.3623
   15MOL   C24312871   4.670   0.161   6.936  0.0921  0.5054 -0.5260
   15MOL   C24412872   4.717   0.255   7.030  0.4985  0.2347  0.2365
   15MOL   C24512873   4.787   0.203   7.141  0.6312 -0.7873 -0.3007
   15MOL   C24612874   4.827   0.069   7.148  0.9227  0.1558 -0.5652
   15MOL   C24712875   4.797   8.349   7.044  0.7482 -0.0291 -0.2971
   15MOL   C24812876   4.713   0.028   6.940 -0.0118 -0.5592  0.8848
   15MOL   C24912877   4.908   0.023   7.259  0.6846 -0.0122 -0.3398
   15MOL   C25012878   5.028   0.081   7.306  0.1684  0.3135  0.4726
   15MOL   C25112879   5.090   0.032   7.418  0.5002  0.1150 -0.4250
   15MOL   C25212880   5.034   8.283   7.487 -0.2788 -0.5788  0.0438
   15MOL   C25312881   4.910   8.234   7.444  0.0090  0.1320 -0.0619
   15MOL   C25412882   4.846   8.293   7.336 -0.6089  0.4330  0.4342
   15MOL   O25512883   5.088   8.241   7.603  0.5069  0.2824 -0.1705
   15MOL   H25612884   5.252   0.310   6.353 -0.7765 -0.3276  0.0803
   15MOL   H25712885   5.052   0.201   6.283 -4.2001 -0.3048 -0.4207
   15MOL   H25812886   4.827   0.574   6.317  0.2648  0.7683  1.3131
   15MOL   H25912887   5.034   0.690   6.355 -1.7548  0.0155  1.4023
   15MOL   H26012888   4.688   0.055   6.421  1.6016  0.5496  0.4608
   15MOL   H26112889   4.602   0.011   6.632  1.0531 -0.0910 -0.4145
   15MOL   H26212890   4.680   0.425   6.737  0.1064  0.6275 -0.7964
   15MOL   H26312891   4.718   0.477   6.507 -0.3687  1.5806  2.5274
   15MOL   H26412892   4.686   0.359   7.032 -0.9866 -0.1651 -0.8964
   15MOL   H26512893   4.813   0.276   7.216  3.1265  0.4339 -2.3093
   15MOL   H26612894   4.838   8.249   7.044  1.2025  0.1245  2.1580
   15MOL   H26712895   4.685   8.331   6.856 -1.4988  0.7583  0.3625
   15MOL   H26812896   5.079   0.157   7.249  0.5444 -0.8978 -0.8297
   15MOL   H26912897   5.189   0.063   7.448  0.3685 -0.4700  0.6604
   15MOL   H27012898   4.868   8.150   7.498 -0.4371  1.4521  1.7188
   15MOL   H27112899   4.748   8.259   7.305 -0.1459 -0.7896  0.2667
   15MOL   C27212900   5.211   8.184   7.614  0.3245  0.6506 -0.1215
   15MOL   C27312901   5.216   8.046   7.589  0.5244  0.0099 -1.0956
   15MOL   C27412902   5.334   7.972   7.604 -1.0200  0.0506  0.0836
   15MOL   C27512903   5.452   8.043   7.649 -0.1041 -0.1598 -0.2869
   15MOL   C27612904   5.445   8.177   7.682 -0.4223 -1.0180  0.5705
   15MOL   C27712905   5.330   8.252   7.654  0.3343  0.0299 -0.8545
   15MOL   S27812906   5.613   7.961   7.675 -0.1100 -0.3586  0.0922
   15MOL   O27912907   5.636   7.940   7.820  0.6260  0.1636  0.3453
   15MOL   O28012908   5.708   8.035   7.594 -0.4416 -0.8754  0.4300
   15MOL   C28112909   5.602   7.802   7.585 -0.3473  0.5248 -0.2294
   15MOL   C28212910   5.568   7.687   7.651  0.2860  0.2087 -0.3389
   15MOL   C28312911   5.566   7.559   7.585 -1.1028 -0.1614 -0.2419
   15MOL   C28412912   5.576   7.551   7.443  0.5136  0.4795 -0.2857
   15MOL   C28512913   5.591   7.674   7.374  0.8258  0.4644  0.9294
   15MOL   C28612914   5.615   7.800   7.443  0.8285 -0.2176 -0.2292
   15MOL   O28712915   5.551   7.435   7.373 -0.1382  0.2372 -0.2631
   15MOL   C28812916   5.440   7.421   7.293  0.3819 -0.7861  0.8998
   15MOL   C28912917   5.327   7.507   7.295 -0.6985  0.5626  0.0115
   15MOL   C29012918   5.215   7.494   7.210  0.3475  0.1151  0.0793
   15MOL   C29112919   5.213   7.394   7.115 -0.0378 -0.0725  0.4202
   15MOL   C29212920   5.328   7.310   7.111 -0.1357 -0.1992  0.7239
   15MOL   C29312921   5.439   7.316   7.194 -0.7310  0.5371  0.0440
   15MOL   C29412922   5.100   7.377   7.017 -0.3396  0.2277 -0.1066
   15MOL   C29512923   5.033   7.496   6.973  0.8076 -0.0175  0.3297
   15MOL   C29612924   4.940   7.490   6.864 -0.3787 -0.5890 -0.3475
   15MOL   C29712925   4.905   7.364   6.814  0.2323 -0.7222 -0.1844
   15MOL   C29812926   4.971   7.249   6.859  0.2714 -0.0422  0.5684
   15MOL   C29912927   5.066   7.257   6.959 -0.8452  0.9098  0.3290
   15MOL   O30012928   4.823   7.353   6.703  0.1887 -0.5504  0.2408
   15MOL   H30112929   5.132   7.988   7.552  0.3102  0.3256 -1.0955
   15MOL   H30212930   5.336   7.870   7.570  0.0663  0.7044 -1.8827
   15MOL   H30312931   5.533   8.231   7.715  1.0045 -2.3978 -0.8728
   15MOL   H30412932   5.339   8.355   7.687  0.6357  0.3593 -1.9692
   15MOL   H30512933   5.565   7.695   7.759  0.8892  2.6022 -0.4794
   15MOL   H30612934   5.555   7.468   7.643 -2.3813  1.1344  1.6025
   15MOL   H30712935   5.592   7.669   7.267  0.9287 -3.5736  1.0636
   15MOL   H30812936   5.633   7.888   7.384  2.1799 -0.1882  0.2094
   15MOL   H30912937   5.318   7.581   7.373 -1.5570  0.0214  0.4245
   15MOL   H31012938   5.126   7.554   7.222 -1.4700 -1.8601 -2.9644
   15MOL   H31112939   5.338   7.236   7.033 -0.6284  0.7014 -0.2117
   15MOL   H31212940   5.516   7.241   7.182 -0.0306  1.4967 -1.5881
   15MOL   H31312941   5.060   7.597   7.003 -0.5312  0.2683  0.6282
   15MOL   H31412942   4.900   7.577   6.813 -1.2280 -1.7591 -1.6983
   15MOL   H31512943   4.943   7.161   6.804  3.0373 -0.7262  0.1839
   15MOL   H31612944   5.109   7.164   6.991 -1.2384  0.3483 -0.7501
   15MOL   C31712945   4.694   7.368   6.728 -0.1778 -0.1417  0.6408
   15MOL   C31812946   4.631   7.293   6.833 -0.3640 -0.2378 -0.4006
   15MOL   C31912947   4.496   7.326   6.866  0.3251  0.1358  0.1945
   15MOL   C32012948   4.422   7.421   6.793 -0.3596 -0.5552 -0.4352
   15MOL   C32112949   4.485   7.482   6.685 -0.7940  0.5804 -0.0970
   15MOL   C32212950   4.617   7.456   6.646  0.1936 -0.0348 -0.5683
   15MOL   S32312951   4.261   7.462   6.862 -0.2440  0.1365 -0.2321
   15MOL   O32412952   4.199   7.336   6.908 -0.2494  0.1395 -0.5584
   15MOL   O32512953   4.193   7.549   6.768  0.0228 -0.5086  0.2385
   15MOL   C32612954   4.306   7.562   7.001  0.5223 -1.1455  0.1471
   15MOL   C32712955   4.316   7.500   7.128  0.3451 -0.6577 -0.6110
   15MOL   C32812956   4.368   7.584   7.233 -0.0723  0.2084 -0.2530
   15MOL   C32912957   4.409   7.719   7.212  0.5157 -0.4463 -0.0349
   15MOL   C33012958   4.405   7.776   7.082  0.0640 -0.2108 -0.2080
   15MOL   C33112959   4.348   7.697   6.980 -0.1423 -0.2246  0.1822
   15MOL   O33212960   4.470   7.788   7.312  0.4580  0.3712  0.2849
   15MOL   C33312961   4.588   7.728   7.347  0.4861 -0.8152 -0.1676
   15MOL   C33412962   4.695   7.713   7.258 -0.4389  0.6905 -0.7200
   15MOL   C33512963   4.808   7.642   7.306  0.5969 -0.1543 -0.6661
   15MOL   C33612964   4.812   7.588   7.438 -0.2438 -0.4731  0.7108
   15MOL   C33712965   4.707   7.615   7.530  0.0440  0.3416 -0.4819
   15MOL   C33812966   4.603   7.693   7.482 -0.4972  0.5974 -0.2509
   15MOL   C33912967   4.913   7.485   7.487  0.3491 -0.0114  0.3427
   15MOL   C34012968   4.961   7.474   7.617  0.5272 -0.4202 -0.0599
   15MOL   C34112969   5.045   7.363   7.653 -0.3081  0.6472 -0.6732
   15MOL   C34212970   5.079   7.262   7.559 -1.1451 -0.6672  1.0400
   15MOL   C34312971   5.036   7.281   7.422  0.7080 -0.0767 -0.0010
   15MOL   C34412972   4.948   7.387   7.391  0.1678  0.4464 -0.4273
   15MOL   O34512973   5.148   7.151   7.599  0.2384 -0.1687  0.3532
   15MOL   H34612974   4.691   7.222   6.889  1.2789  1.7851  0.4555
   15MOL   H34712975   4.451   7.278   6.952 -1.6982 -0.7902 -1.3422
   15MOL   H34812976   4.419   7.546   6.627 -1.2515 -0.2400 -0.4925
   15MOL   H34912977   4.662   7.512   6.566  2.6289 -1.8648 -0.5426
   15MOL   H35012978   4.278   7.400   7.146 -0.9836 -0.3172 -1.4775
   15MOL   H35112979   4.362   7.535   7.329 -0.1012  0.2913 -0.2119
   15MOL   H35212980   4.441   7.874   7.058  0.6557 -0.7230 -1.4278
   15MOL   H35312981   4.331   7.740   6.882 -2.4478  0.0892  0.6956
   15MOL   H35412982   4.687   7.741   7.154 -3.6456  1.5747 -0.2786
   15MOL   H35512983   4.881   7.613   7.233  3.4688 -0.8358  2.3576
   15MOL   H35612984   4.705   7.580   7.632  0.5523  2.6480  0.3478
   15MOL   H35712985   4.510   7.710   7.534 -0.6636  1.5622 -0.8436
   15MOL   H35812986   4.929   7.537   7.698 -0.3375 -2.0409  0.9010
   15MOL   H35912987   5.078   7.352   7.755  1.1786  1.1625 -1.0831
   15MOL   H36012988   5.060   7.207   7.347  0.3871  1.2925 -1.4871
   15MOL   H36112989   4.918   7.396   7.287  0.8097 -2.3751 -0.9047
   15MOL   C36212990   5.266   7.112   7.551  0.3349  0.0003  0.3984
   15MOL   C36312991   5.276   6.983   7.496 -1.1990  0.5997 -0.2864
   15MOL   C36412992   5.398   6.925   7.456  0.2182 -0.2015 -0.0379
   15MOL   C36512993   5.505   7.019   7.449 -0.1604  0.0601  0.1987
   15MOL   C36612994   5.494   7.149   7.506 -0.4320  0.1824 -0.6126
   15MOL   C36712995   5.374   7.203   7.551  0.2322  0.2626 -0.2595
   15MOL   S36812996   5.656   6.979   7.360 -0.4977 -0.5132  0.3366
   15MOL   O36912997   5.649   7.044   7.229  0.1512 -0.0095 -0.3757
   15MOL   O37012998   5.666   6.833   7.365  0.4962 -0.5970  0.6130
   15MOL   C37112999   5.794   7.045   7.454 -0.3919 -0.2343 -0.1011
   15MOL   C37213000   5.855   7.170   7.423  0.2216 -0.0929 -0.1695
   15MOL   C37313001   5.962   7.223   7.491 -0.1609 -0.4737  0.4336
   15MOL   C37413002   6.005   7.155   7.605  0.4490  0.3819 -0.2173
   15MOL   C37513003   5.936   7.043   7.648  0.2268  0.1423  0.7668
   15MOL   C37613004   5.828   6.991   7.575 -0.4366  0.0582  0.0032
   15MOL   O37713005   6.105   7.205   7.683  0.4301 -0.1912 -0.7671
   15MOL   C37813006   6.090   7.335   7.721  0.2078 -0.4070  0.3696
   15MOL   C37913007   5.966   7.394   7.766  0.2993 -0.0639  0.1127
   15MOL   C38013008   5.952   7.529   7.797 -0.5059  1.0199 -0.5113
   15MOL   C38113009   6.072   7.608   7.804  0.0863 -0.4486 -0.1377
   15MOL   C38213010   6.195   7.554   7.769 -0.4411 -0.2934 -1.3185
   15MOL   C38313011   6.204   7.424   7.723  0.4734 -0.2464 -0.0329
   15MOL   C38413012   6.067   7.750   7.851 -0.6222 -0.3667  0.9682
   15MOL   C38513013   5.994   7.839   7.771  0.8014  0.1263  0.2957
   15MOL   C38613014   5.982   7.972   7.806 -0.7690 -0.0209  0.9779
   15MOL   C38713015   6.075   8.021   7.902  0.5459 -0.0775  0.0235
   15MOL   C38813016   6.157   7.935   7.981  0.3416  0.2196 -0.8895
   15MOL   C38913017   6.153   7.797   7.957 -0.5391  0.4600  0.1057
   15MOL   O39013018   6.094   8.153   7.919 -0.2261  0.2717  0.0172
   15MOL   H39113019   5.198   6.909   7.503 -0.8778  0.2465 -0.3842
   15MOL   H39213020   5.411   6.824   7.419  0.1371 -0.7569  1.4461
   15MOL   H39313021   5.578   7.217   7.508 -0.6269  0.4865 -2.0043
   15MOL   H39413022   5.356   7.306   7.578  0.3572 -0.1884  1.6882
   15MOL   H39513023   5.805   7.222   7.343  0.5058 -0.9829 -0.9397
   15MOL   H39613024   6.007   7.317   7.463 -1.8509  0.5422  1.0555
   15MOL   H39713025   5.985   6.998   7.734  1.2061  1.7133  1.0475
   15MOL   H39813026   5.783   6.902   7.616  2.3160 -1.5063 -0.2127
   15MOL   H39913027   5.877   7.333   7.776 -1.9484  2.7966 -1.4756
   15MOL   H40013028   5.864   7.563   7.849 -1.3519  0.5496 -1.6271
   15MOL   H40113029   6.283   7.617   7.772  0.4583 -1.4648 -2.1322
   15MOL   H40213030   6.299   7.387   7.688 -0.0094 -0.9176 -0.6450
   15MOL   H40313031   5.929   7.798   7.696  1.5354 -1.1505  0.3486
   15MOL   H40413032   5.930   8.052   7.755 -1.1618  0.4460  2.0945
   15MOL   H40513033   6.221   7.972   8.061  2.1345 -1.0649 -1.7057
   15MOL   H40613034   6.203   7.719   8.013 -0.9416 -0.4325 -0.7760
   15MOL   C40713035   6.189   8.218   7.850 -0.5530  0.5209 -0.2710
   15MOL   C40813036   6.244   8.327   7.920 -0.2142  0.0917 -0.2210
   15MOL   C40913037   6.334   0.049   7.858 -0.3673  0.0862 -0.2035
   15MOL   C41013038   6.366   0.025   7.720  0.4159  0.7398  0.3203
   15MOL   C41113039   6.316   8.280   7.651  0.1745  0.1928 -0.2298
   15MOL   C41213040   6.232   8.188   7.715 -0.0368 -0.1647  0.2715
   15MOL   S41313041   6.474   0.135   7.628  0.1154  0.2781  0.0012
   15MOL   O41413042   6.537   0.067   7.518  0.0223 -0.2577 -0.0057
   15MOL   O41513043   6.568   0.204   7.718  0.2880 -0.1548 -0.1767
   15MOL   C41613044   6.374   0.263   7.554  0.7531 -0.1162  0.0583
   15MOL   C41713045   6.286   0.343   7.633 -0.5590  0.0125 -0.3919
   15MOL   C41813046   6.210   0.443   7.572 -0.4819  0.1434 -0.3572
   15MOL   C41913047   6.219   0.477   7.441 -0.2219  0.4343  0.0822
   15MOL   C42013048   6.294   0.393   7.360 -0.3427  0.6782  0.8294
   15MOL   C42113049   6.367   0.277   7.417 -0.5545 -0.3710 -0.3279
   15MOL   O42213050   6.152   0.589   7.400 -0.6867 -0.2039  0.2251
   15MOL   C42313051   6.207   0.680   7.312 -0.0597  0.1186  0.5018
   15MOL   C42413052   6.149   0.701   7.188 -0.3996 -0.6479 -1.1124
   15MOL   C42513053   6.213   0.796   7.102  0.8731  0.4936  0.5494
   15MOL   C42613054   6.336   0.852   7.136 -0.5915 -0.1644 -0.0634
   15MOL   C42713055   6.391   0.838   7.262 -0.2123 -0.0726  0.1219
   15MOL   C42813056   6.327   0.746   7.347  0.3147 -0.5791 -0.0807
   15MOL   C42913057   6.414   0.941   7.042  0.6190  0.5089 -0.6083
   15MOL   C43013058   6.338   1.040   6.975  0.2754  0.0908  0.6002
   15MOL   C43113059   6.404   1.130   6.888 -0.2534  0.1864 -0.2656
   15MOL   C43213060   6.544   1.118   6.863 -0.0092 -0.2770  0.0532
   15MOL   C43313061   6.621   1.023   6.936 -0.0621  0.1821 -0.6818
   15MOL   C43413062   6.552   0.933   7.025  0.3871 -0.1912  0.0790
   15MOL   O43513063   6.605   1.206   6.778 -0.4503 -0.1686  0.4337
   15MOL   H43613064   6.224   8.334   8.026 -0.6551  0.6200 -0.3353
   15MOL   H43713065   6.382   0.125   7.918 -0.6457  0.0415  0.0763
   15MOL   H43813066   6.345   8.266   7.548  1.5049 -0.5073  0.2300
   15MOL   H43913067   6.194   8.104   7.659  1.5785 -0.6923 -0.0408
   15MOL   H44013068   6.274   0.312   7.736 -0.3140  1.6740  0.1665
   15MOL   H44113069   6.136   0.496   7.629 -0.0027 -0.3243  0.7109
   15MOL   H44213070   6.309   0.420   7.256  1.7123  1.2085  1.2322
   15MOL   H44313071   6.426   0.209   7.357 -1.6959 -0.3882 -1.4537
   15MOL   H44413072   6.058   0.648   7.163  0.1266 -1.9407 -0.3088
   15MOL   H44513073   6.171   0.805   7.003 -2.9659  1.6360  2.1926
   15MOL   H44613074   6.483   0.887   7.289  0.0206 -0.4693  0.0529
   15MOL   H44713075   6.375   0.722   7.441 -0.2777 -0.0747  0.3498
   15MOL   H44813076   6.231   1.053   6.984  0.2052 -0.8097  1.1672
   15MOL   H44913077   6.350   1.210   6.842  0.0680 -0.0559 -1.0783
   15MOL   H45013078   6.728   1.015   6.921  0.2436  1.6827  0.5322
   15MOL   H45113079   6.612   0.861   7.078 -2.0036 -0.9378  1.8528
   15MOL   C45213080   6.567   1.214   6.645 -0.0381  0.1871  0.3612
   15MOL   C45313081   6.509   1.101   6.577 -0.4274  0.2523 -0.7270
   15MOL   C45413082   6.455   1.118   6.450 -0.3821  0.0880  0.1830
   15MOL   C45513083   6.460   1.246   6.389 -0.3239 -0.2865 -0.0914
   15MOL   C45613084   6.506   1.359   6.458 -0.6466  0.0230 -0.1174
   15MOL   C45713085   6.568   1.341   6.586  0.5153  0.3483 -0.2393
   15MOL   S45813086   6.403   1.274   6.225 -0.1123 -0.0169  0.3307
   15MOL   O45913087   6.362   1.416   6.216 -0.4641  0.3447 -0.3460
   15MOL   O46013088   6.299   1.174   6.201 -0.6162 -0.2104 -0.0552
   15MOL   C46113089   6.540   1.249   6.116 -0.1274  0.3186 -0.2595
   15MOL   C46213090   6.665   1.305   6.145 -0.2111  0.1003 -0.3235
   15MOL   C46313091   6.764   1.290   6.047 -0.3889 -0.5471  0.2612
   15MOL   C46413092   6.746   1.224   5.926 -1.1835 -0.9381  0.1032
   15MOL   C46513093   6.618   1.164   5.906 -0.6671 -0.4375  0.1981
   15MOL   C46613094   6.514   1.177   5.998 -0.4279  0.1831  0.1008
   15MOL   O46713095   6.848   1.226   5.833  0.3205  0.0629  0.2315
   15MOL   C46813096   6.966   1.160   5.867  0.3525  0.2967  0.1118
   15MOL   C46913097   7.093   1.228   5.852  0.1566  0.1154  0.5559
   15MOL   C47013098   7.209   1.164   5.899  0.7583  0.2365 -0.3014
   15MOL   C47113099   7.207   1.035   5.948  0.1852  0.4900 -0.3235
   15MOL   C47213100   7.086   0.960   5.935  0.0595  0.4101  0.0036
   15MOL   C47313101   6.965   1.022   5.908  0.4072 -0.0550 -0.0211
   15MOL   C47413102   7.326   0.979   6.015  0.1591 -0.5971 -0.5266
   15MOL   C47513103   7.382   0.863   5.965 -0.4557 -0.5123 -0.2855
   15MOL   C47613104   7.494   0.802   6.028  0.1438  0.4819  0.4050
   15MOL   C47713105   7.535   0.845   6.151  0.4633 -0.6912  0.3220
   15MOL   C47813106   7.481   0.959   6.207 -0.3905 -0.1090  0.6057
   15MOL   C47913107   7.380   1.031   6.136 -0.5592  0.6231 -0.3050
   15MOL   O48013108   7.636   0.783   6.219  0.1470 -0.0982 -0.0938
   15MOL   H48113109   6.522   0.998   6.607  1.5563  0.6865 -0.0030
   15MOL   H48213110   6.417   1.029   6.401 -0.6333 -0.9487  2.1970
   15MOL   H48313111   6.509   1.455   6.407 -0.5943  1.0477  1.7723
   15MOL   H48413112   6.613   1.422   6.641  0.4424 -0.7563  1.4724
   15MOL   H48513113   6.680   1.363   6.234 -0.8664  0.3651 -0.3829
   15MOL   H48613114   6.862   1.334   6.052  0.9589 -3.2187 -1.5826
   15MOL   H48713115   6.595   1.104   5.819 -0.5305 -0.1988 -0.0034
   15MOL   H48813116   6.413   1.144   5.977 -0.0892 -0.5230 -0.4211
   15MOL   H48913117   7.103   1.328   5.813  2.0295 -0.9739 -1.8042
   15MOL   H49013118   7.303   1.217   5.903  1.4171 -0.6771 -2.8800
   15MOL   H49113119   7.082   0.856   5.964 -0.3331  0.5625  0.5207
   15MOL   H49213120   6.870   0.971   5.915  0.6025 -0.1444  2.4300
   15MOL   H49313121   7.346   0.823   5.871 -1.0641  0.1185 -0.3226
   15MOL   H49413122   7.539   0.716   5.980 -1.6277 -0.6622  0.7370
   15MOL   H49513123   7.510   0.993   6.306 -0.4241  0.0770  0.5508
   15MOL   H49613124   7.327   1.115   6.180 -1.5868  0.3838 -1.0696
   15MOL   C49713125   7.592   0.689   6.312 -0.3545 -0.7318 -0.1510
   15MOL   C49813126   7.599   0.554   6.270  0.3166  0.4882 -0.4923
   15MOL   C49913127   7.553   0.453   6.359  0.5632  0.0195 -0.0073
   15MOL   C50013128   7.510   0.491   6.485  0.2108 -0.8972  0.3303
   15MOL   C50113129   7.503   0.625   6.527 -0.4579 -0.1558 -0.6299
   15MOL   C50213130   7.551   0.724   6.439  0.5282  0.3803  0.6421
   15MOL   S50313131   7.457   0.365   6.601  0.0083 -0.1728 -0.3372
   15MOL   O50413132   7.388   0.256   6.532 -0.3728  0.1347  0.1658
   15MOL   O50513133   7.375   0.428   6.703 -0.1408 -0.3252  0.7551
   15MOL   C50613134   7.599   0.301   6.683 -0.2346 -0.3307  0.4656
   15MOL   C50713135   7.656   0.191   6.621  0.8351  0.6070 -0.3539
   15MOL   C50813136   7.767   0.134   6.673  0.2956  0.3201  0.5800
   15MOL   C50913137   7.833   0.191   6.780  0.4532 -0.1264  0.3655
   15MOL   C51013138   7.783   0.309   6.834 -0.8098 -0.3284 -0.3922
   15MOL   C51113139   7.658   0.358   6.797  0.3882 -0.3192 -0.3581
   15MOL   O51213140   7.948   0.134   6.815  0.5619 -0.4784  0.1222
   15MOL   C51313141   7.956   0.098   6.944 -0.0234 -0.4281  0.3411
   15MOL   C51413142   7.888   8.349   6.998 -0.7360 -0.1194 -0.0839
   15MOL   C51513143   7.901   8.313   7.136  0.9056 -0.5397 -0.3267
   15MOL   C51613144   7.994   0.010   7.212 -0.3257  0.1744  0.4624
   15MOL   C51713145   8.074   0.107   7.154  1.1087  0.3759 -0.0170
   15MOL   C51813146   8.055   0.155   7.023 -0.4768 -1.0567 -0.4954
   15MOL   C51913147   8.012   8.333   7.352 -0.1183 -0.1970 -0.5650
   15MOL   C52013148   8.138   8.309   7.419 -0.1136  0.6310  0.0034
   15MOL   C52113149   8.149   8.278   7.557 -0.5414 -0.1070 -0.1817
   15MOL   C52213150   8.031   8.274   7.634 -0.0371 -0.3331 -0.0322
   15MOL   C52313151   7.908   8.284   7.569 -0.5406 -0.0779  0.3894
   15MOL   C52413152   7.899   8.328   7.438 -0.5088  0.6723 -0.5610
   15MOL   O52513153   8.043   8.237   7.766 -0.6974  0.7068 -0.1280
   15MOL   H52613154   7.640   0.525   6.175 -0.1746 -1.7446 -0.0616
   15MOL   H52713155   7.561   0.350   6.329 -1.2333 -0.2168  0.3024
   15MOL   H52813156   7.461   0.652   6.623  2.4042  3.3876 -0.2658
   15MOL   H52913157   7.541   0.825   6.475  1.7024  0.3160  1.1727
   15MOL   H53013158   7.618   0.151   6.528  2.6386 -0.3781 -0.6820
   15MOL   H53113159   7.807   0.053   6.613 -0.9251 -0.5975  0.9862
   15MOL   H53213160   7.847   0.359   6.905 -0.3403  1.1682 -1.8303
   15MOL   H53313161   7.616   0.449   6.839 -2.2148 -2.0110  0.7769
   15MOL   H53413162   7.813   8.297   6.939 -0.0991  0.7199 -1.6440
   15MOL   H53513163   7.843   8.230   7.175 -0.6278  1.2562  1.3177
   15MOL   H53613164   8.147   0.170   7.203  1.8156  0.9062 -1.7083
   15MOL   H53713165   8.116   0.234   6.983 -1.1117 -0.7653 -0.8907
   15MOL   H53813166   8.226   8.312   7.356  0.1990 -1.4287  0.3044
   15MOL   H53913167   8.241   8.254   7.608 -0.2093  0.8470 -0.3283
   15MOL   H54013168   7.819   8.265   7.627 -0.0269 -1.4626  0.7484
   15MOL   H54113169   7.798   8.345   7.403 -1.2853  2.2820  2.2995
   15MOL   C54213170   8.062   8.335   7.860  0.6396 -0.2822 -0.2861
   15MOL   C54313171   8.196   0.004   7.895  0.4967  0.4548 -0.4707
   15MOL   C54413172   8.217   0.098   7.996  0.5967  0.7252  0.2403
   15MOL   C54513173   8.108   0.149   8.071 -0.0949 -1.2029 -0.0540
   15MOL   C54613174   7.978   0.108   8.030  0.6217 -0.6285  0.1339
   15MOL   C54713175   7.954   0.021   7.926 -0.0397  0.3499 -0.8340
   15MOL   S54813176   8.128   0.248   8.223 -0.2106  0.0901  0.5418
   15MOL   O54913177   8.270   0.235   8.257 -0.2308  0.3471  0.9147
   15MOL   O55013178   8.043   0.199   8.327 -0.0591 -0.1522  0.3551
   15MOL   C55113179   8.089   0.414   8.186 -0.4972  0.1651  0.0568
   15MOL   C55213180   8.139   0.481   8.072 -0.2119 -0.2398  0.4344
   15MOL   C55313181   8.116   0.617   8.068 -0.3089 -0.1327 -0.2740
   15MOL   C55413182   8.042   0.694   8.170  0.3243 -0.0299 -0.3793
   15MOL   C55513183   7.993   0.624   8.283  0.5317 -0.1407  0.1777
   15MOL   C55613184   8.006   0.484   8.283 -0.1172 -0.5804 -0.7092
   15MOL   O55713185   8.012   0.825   8.146  0.4084  0.4513 -0.0618
   15MOL   C55813186   8.118   0.915   8.158 -0.3008 -0.1944 -0.1407
   15MOL   C55913187   8.243   0.884   8.226  0.2704 -0.8977  0.3480
   15MOL   C56013188   8.351   0.976   8.225  0.1519  0.7150  0.8951
   15MOL   C56113189   8.336   1.106   8.171  0.4383  0.7176 -0.1048
   15MOL   C56213190   8.219   1.133   8.100 -0.2321  0.3078  0.0174
   15MOL   C56313191   8.108   1.048   8.099  0.6319 -0.6453 -0.1499
   15MOL   C56413192   0.077   1.206   8.178 -0.0150 -0.1907 -0.9364
   15MOL   C56513193   0.212   1.177   8.147 -0.3242 -0.0590  0.2117
   15MOL   C56613194   0.307   1.282   8.135  0.2199 -0.8681  0.7274
   15MOL   C56713195   0.271   1.420   8.169 -0.2224  0.6658  0.3028
   15MOL   C56813196   0.139   1.445   8.212 -0.3925  0.3150  0.1503
   15MOL   C56913197   0.043   1.342   8.214  0.0883  0.3466  0.1276
   15MOL   O57013198   0.364   1.521   8.184 -0.2521 -0.6671  0.6900
   15MOL   H57113199   8.283   8.326   7.848  0.4507 -0.5188  0.3302
   15MOL   H57213200   8.319   0.112   8.026  0.3974 -0.0896  1.3480
   15MOL   H57313201   7.887   0.145   8.075 -0.4331  0.5944 -2.8475
   15MOL   H57413202   7.853   8.353   7.907  1.1967 -4.2801  0.3589
   15MOL   H57513203   8.192   0.421   7.999 -0.8546 -1.5534  1.0126
   15MOL   H57613204   8.152   0.672   7.982  0.6181  0.3014  0.3869
   15MOL   H57713205   7.938   0.677   8.359  0.6024  0.0278  0.1111
   15MOL   H57813206   7.957   0.434   8.365 -0.3679  1.3521  0.3544
   15MOL   H57913207   8.255   0.788   8.274 -1.7269 -1.3882 -0.0608
   15MOL   H58013208   0.080   0.965   8.274  2.6531  2.6092 -3.3280
   15MOL   H58113209   8.203   1.230   8.056  2.0746  0.6620 -0.1262
   15MOL   H58213210   8.015   1.072   8.050  1.4540  1.5458 -0.6971
   15MOL   H58313211   0.242   1.078   8.119  2.3168  0.4401  1.1769
   15MOL   H58413212   0.402   1.253   8.093  0.2384 -0.9071  0.7952
   15MOL   H58513213   0.103   1.537   8.255 -1.8659  0.0523 -0.4891
   15MOL   H58613214   8.309   1.362   8.249 -0.6011  0.5513 -1.9032
   15MOL   C58713215   0.479   1.524   8.105  0.3451  0.6796  0.4319
   15MOL   C58813216   0.479   1.611   7.995 -0.2286  0.4722  0.2541
   15MOL   C58913217   0.591   1.637   7.923 -0.9002 -0.6614 -0.5280
   15MOL   C59013218   0.708   1.566   7.955 -0.0218  0.4837 -0.0910
   15MOL   C59113219   0.713   1.471   8.060  0.4133  0.5889  0.2015
   15MOL   C59213220   0.597   1.448   8.132 -0.1860 -0.6005 -0.3547
   15MOL   S59313221   0.843   1.585   7.840 -0.6262 -0.1336 -0.0466
   15MOL   O59413222   0.975   1.562   7.910 -0.0329 -0.0675  0.6725
   15MOL   O59513223   0.825   1.713   7.766 -0.7165 -0.3170  0.0416
   15MOL   C59613224   0.820   1.460   7.719 -0.4486  0.4639 -0.4479
   15MOL   C59713225   0.723   1.360   7.727 -0.3724  0.0938  0.3162
   15MOL   C59813226   0.722   1.260   7.632  0.1557  0.1951  0.1961
   15MOL   C59913227   0.808   1.259   7.524  0.5745 -0.1706 -0.5017
   15MOL   C60013228   0.907   1.358   7.512  0.1761  0.1433  0.3723
   15MOL   C60113229   0.914   1.453   7.610  0.2085 -0.5478 -0.4810
   15MOL   O60213230   0.790   1.161   7.433 -0.1258 -0.0460 -0.0476
   15MOL   C60313231   0.696   1.176   7.335  0.0238  0.1608 -0.3262
   15MOL   C60413232   0.635   1.302   7.309  0.3901 -0.0167 -0.1566
   15MOL   C60513233   0.531   1.308   7.213  0.5234 -0.3374 -0.5729
   15MOL   C60613234   0.477   1.188   7.157  0.0650  0.3541 -0.4255
   15MOL   C60713235   0.543   1.068   7.183 -0.0871  0.1483  0.3706
   15MOL   C60813236   0.646   1.060   7.273  0.1335  0.5008 -0.1131
   15MOL   C60913237   0.362   1.197   7.061  0.0762 -0.4679  0.6037
   15MOL   C61013238   0.346   1.297   6.956  0.4277  0.6732 -0.0651
   15MOL   C61113239   0.245   1.287   6.864 -0.0819  0.9116 -0.2572
   15MOL   C61213240   0.130   1.201   6.884  1.0353 -0.7203 -0.1704
   15MOL   C61313241   0.142   1.117   6.998  0.2394 -0.0491  0.8559
   15MOL   C61413242   0.253   1.114   7.082  0.2118  0.3128 -0.0013
   15MOL   O61513243   0.016   1.211   6.813 -0.2242 -0.0908  0.4962
   15MOL   H61613244   0.392   1.670   7.968 -0.9872 -0.2759  0.9975
   15MOL   H61713245   0.596   1.691   7.830  0.4777 -2.9408 -1.8100
   15MOL   H61813246   0.802   1.416   8.083  1.0968  1.3831 -0.5192
   15MOL   H61913247   0.601   1.380   8.215  3.3676 -0.8033 -0.6152
   15MOL   H62013248   0.652   1.352   7.808 -0.7385 -1.1925 -0.1224
   15MOL   H62113249   0.654   1.177   7.640  0.0580  0.2755  0.1950
   15MOL   H62213250   0.973   1.352   7.427 -0.9937 -1.9314 -0.4154
   15MOL   H62313251   0.986   1.533   7.602  1.4680 -1.6099  0.0078
   15MOL   H62413252   0.665   1.395   7.356 -1.2376  1.1923 -1.4370
   15MOL   H62513253   0.482   1.401   7.187 -1.0509 -1.2630 -0.9988
   15MOL   H62613254   0.511   0.974   7.141  1.0795  0.5480 -1.4665
   15MOL   H62713255   0.674   0.961   7.307 -1.3032 -1.2550 -3.8441
   15MOL   H62813256   0.423   1.366   6.924  0.4339  0.2096 -1.0646
   15MOL   H62913257   0.248   1.349   6.776 -0.3786  2.8772  1.0919
   15MOL   H63013258   0.067   1.043   7.020  0.8230 -0.7961  0.3393
   15MOL   H63113259   0.248   1.049   7.168  1.8982  2.4022  1.6934
   15MOL   C63213260   0.007   1.133   6.708 -1.0813 -0.7457 -0.0196
   15MOL   C63313261   8.257   1.051   6.690  0.4864  0.2151 -0.0553
   15MOL   C63413262   8.239   0.964   6.580  0.3636 -0.5325  0.5787
   15MOL   C63513263   8.333   0.966   6.477  0.9257 -0.8287 -0.3482
   15MOL   C63613264   0.079   1.056   6.481  0.0588  0.1517  0.0656
   15MOL   C63713265   0.096   1.140   6.594  0.6968 -0.2260  0.1426
   15MOL   S63813266   8.315   0.866   6.328 -0.1509  0.3212  0.1170
   15MOL   O63913267   0.075   0.798   6.294 -0.5354 -0.4264 -0.2715
   15MOL   O64013268   8.269   0.963   6.225 -0.6289 -0.4950 -0.2158
   15MOL   C64113269   8.196   0.735   6.356 -0.0897 -0.6160  0.4169
   15MOL   C64213270   8.072   0.732   6.291  0.0322 -0.0011  0.2246
   15MOL   C64313271   7.988   0.621   6.303  0.3671 -0.5658 -0.7111
   15MOL   C64413272   8.014   0.522   6.396  0.6782  0.5990  0.3577
   15MOL   C64513273   8.135   0.521   6.459 -0.2417 -0.6621  0.3095
   15MOL   C64613274   8.230   0.622   6.435  0.3169  0.3709 -0.8295
   15MOL   O64713275   7.923   0.417   6.432 -0.0576  0.1276 -0.0604
   15MOL   C64813276   7.944   0.301   6.358 -0.1381  0.1897 -0.4424
   15MOL   C64913277   7.920   0.286   6.221 -0.2898 -0.5305 -0.6453
   15MOL   C65013278   7.948   0.164   6.154  0.0629  0.0740 -0.1156
   15MOL   C65113279   7.994   0.054   6.230  0.0779 -0.2455 -0.1556
   15MOL   C65213280   8.018   0.074   6.365  0.0026 -0.3122 -0.1607
   15MOL   C65313281   7.991   0.195   6.431  0.2649  0.0314 -0.6718
   15MOL   C65413282   8.034   8.292   6.171  0.1348 -0.5166 -0.5579
   15MOL   C65513283   7.935   8.218   6.103  0.5236 -0.1355  0.7121
   15MOL   C65613284   7.963   8.097   6.030  0.6148 -0.7121  0.5658
   15MOL   C65713285   8.092   8.044   6.032  0.0938  0.2357  0.4284
   15MOL   C65813286   8.192   8.110   6.105 -0.1989  0.5316  0.0296
   15MOL   C65913287   8.160   8.227   6.175  0.0132  0.0396 -0.4176
   15MOL   O66013288   8.123   7.927   5.965  0.0094  0.7141  0.0609
   15MOL   H66113289   8.187   1.047   6.772  1.0492  1.5103  0.5085
   15MOL   H66213290   8.156   0.894   6.576 -0.2718  0.3099 -2.2033
   15MOL   H66313291   0.157   1.063   6.407  1.8797  1.3673  2.0432
   15MOL   H66413292   0.188   1.195   6.601  1.0808 -1.0273  1.6054
   15MOL   H66513293   8.043   0.807   6.219 -0.3468 -1.9566 -1.7184
   15MOL   H66613294   7.897   0.612   6.245  0.5808  1.4553 -1.3957
   15MOL   H66713295   8.157   0.436   6.522 -0.6384 -1.4562 -0.6110
   15MOL   H66813296   8.330   0.626   6.476  0.1386 -0.1515 -0.3420
   15MOL   H66913297   7.884   0.378   6.177 -1.8820 -0.8272 -0.0028
   15MOL   H67013298   7.940   0.165   6.046  2.5321  0.9438 -0.3345
   15MOL   H67113299   8.055   8.366   6.434 -0.5009 -0.6015 -0.1961
   15MOL   H67213300   8.003   0.205   6.537 -0.7820 -0.8314 -0.4655
   15MOL   H67313301   7.830   8.243   6.104 -0.0124 -2.2470 -0.5628
   15MOL   H67413302   7.893   8.042   5.969  0.1376  1.5587 -0.9629
   15MOL   H67513303   8.296   8.079   6.106 -0.5328 -0.5988 -0.1152
   15MOL   H67613304   8.237   8.277   6.233 -0.2575  0.5346 -0.4827
   15MOL   C67713305   8.157   7.929   5.831 -0.2088 -0.0352 -0.2508
   15MOL   C67813306   8.152   8.048   5.751  0.2501 -0.0898 -0.0037
   15MOL   C67913307   8.164   8.046   5.613 -0.8336 -0.5795  0.1239
   15MOL   C68013308   8.182   7.922   5.549 -0.3793  0.0271  0.2254
   15MOL   C68113309   8.189   7.807   5.624 -0.5165 -0.3932  0.1988
   15MOL   C68213310   8.173   7.807   5.760 -0.3577 -0.1474 -0.6024
   15MOL   S68313311   8.215   7.921   5.373  0.1007  0.2935  0.2269
   15MOL   O68413312   8.205   8.060   5.324 -0.1119 -0.0656 -0.4532
   15MOL   O68513313   8.132   7.816   5.312 -0.1362 -0.3841 -0.3954
   15MOL   C68613314   0.026   7.886   5.353 -0.1119  0.4096 -0.0927
   15MOL   C68713315   0.074   7.809   5.249 -0.2919  0.0865 -0.2827
   15MOL   C68813316   0.212   7.781   5.250 -0.1316 -0.2976  0.1172
   15MOL   C68913317   0.300   7.830   5.349 -1.0169  0.1147 -0.2608
   15MOL   C69013318   0.245   7.924   5.436 -0.7000  1.0092  0.5770
   15MOL   C69113319   0.108   7.957   5.444 -0.0101  0.0727  0.1948
   15MOL   O69213320   0.432   7.788   5.347 -0.1846 -0.3437  0.3345
   15MOL   C69313321   0.516   7.875   5.286  0.4937  0.1619  0.1169
   15MOL   C69413322   0.547   7.870   5.149  0.1995  0.3791  0.4812
   15MOL   C69513323   0.644   7.960   5.096  0.2391 -0.1541 -0.4139
   15MOL   C69613324   0.722   8.043   5.182 -0.1493  0.5940  0.2555
   15MOL   C69713325   0.700   8.041   5.323 -0.5214 -0.1777 -0.2575
   15MOL   C69813326   0.590   7.964   5.363  0.0103  0.3717  0.3007
   15MOL   C69913327   0.827   8.129   5.133 -0.1073 -0.4715  0.4457
   15MOL   C70013328   0.818   8.188   5.002  0.1817 -0.3727 -0.0369
   15MOL   C70113329   0.922   8.271   4.952  0.2508 -0.6048 -1.1941
   15MOL   C70213330   1.028   8.314   5.033 -0.2667  0.4949  0.3862
   15MOL   C70313331   1.032   8.254   5.160 -0.1120 -0.4400 -0.2423
   15MOL   C70413332   0.939   8.156   5.206 -0.1084 -0.1786  0.7437
   15MOL   O70513333   1.112   0.039   4.989 -0.2064 -0.1036 -0.1927
   15MOL   H70613334   8.137   8.144   5.798 -1.5269 -0.4208  0.1570
   15MOL   H70713335   8.152   8.132   5.549 -0.4075 -1.8156 -1.6478
   15MOL   H70813336   8.200   7.717   5.565 -0.2211  1.0061 -1.9520
   15MOL   H70913337   8.185   7.714   5.813  1.7189  0.4119 -0.0369
   15MOL   H71013338   0.006   7.753   5.186 -1.6884  1.7716 -0.3032
   15MOL   H71113339   0.270   7.722   5.180  0.6211  1.3791 -0.7144
   15MOL   H71213340   0.323   7.963   5.500  0.8965  0.1060 -0.7903
   15MOL   H71313341   0.062   8.026   5.513 -0.4390  1.5756 -1.5409
   15MOL   H71413342   0.511   7.793   5.083 -1.9938  0.4055  1.5766
   15MOL   H71513343   0.672   7.956   4.992  0.1141 -0.2115 -0.4453
   15MOL   H71613344   0.753   8.099   5.397 -1.2718  1.4765 -0.9737
   15MOL   H71713345   0.569   7.968   5.469 -1.0590  1.2052  0.0581
   15MOL   H71813346   0.735   8.157   4.940  2.1182 -0.7328 -2.5373
   15MOL   H71913347   0.919   8.320   4.856  2.0482  0.9112 -0.5135
   15MOL   H72013348   1.113   8.286   5.224 -1.6103 -0.9529  2.0110
   15MOL   H72113349   0.949   8.104   5.300  1.6740 -0.2171  0.5480
   15MOL   C72213350   1.174   0.127   5.073 -0.0043  0.2587 -0.3262
   15MOL   C72313351   1.306   0.111   5.113 -0.5584  0.4632 -0.5413
   15MOL   C72413352   1.373   0.217   5.188 -0.6794 -0.0759  0.3787
   15MOL   C72513353   1.299   0.333   5.229 -0.4073  0.7334  0.1292
   15MOL   C72613354   1.172   0.351   5.188  0.1807  1.0794  0.2015
   15MOL   C72713355   1.105   0.249   5.110 -0.5118 -0.1672  0.0848
   15MOL   S72813356   1.375   0.456   5.335 -0.0115  0.3054 -0.0729
   15MOL   O72913357   1.466   0.386   5.428  0.3512 -0.1120  0.6177
   15MOL   O73013358   1.268   0.541   5.396  0.6124  0.1060 -0.0975
   15MOL   C73113359   1.460   0.560   5.228 -0.7295  0.8443  0.1912
   15MOL   C73213360   1.402   0.605   5.108  0.2339  0.1440  0.3211
   15MOL   C73313361   1.475   0.694   5.029  0.8012 -0.3258 -0.9832
   15MOL   C73413362   1.600   0.750   5.072  0.7964 -0.1933 -0.1950
   15MOL   C73513363   1.654   0.694   5.190  0.1422 -0.3367 -0.2354
   15MOL   C73613364   1.587   0.599   5.272 -0.0194 -0.2322  0.7792
   15MOL   O73713365   1.664   0.840   4.995  0.3371  0.0489 -0.2881
   15MOL   C73813366   1.623   0.963   5.008  0.7694 -0.9851  0.4113
   15MOL   C73913367   1.646   1.039   5.127  0.2241 -0.4187  0.5276
   15MOL   C74013368   1.607   1.179   5.135  0.4847 -0.0660  0.2323
   15MOL   C74113369   1.523   1.234   5.042  0.5069  0.4287  0.6736
   15MOL   C74213370   1.491   1.156   4.932 -0.2097  0.3777 -0.0582
   15MOL   C74313371   1.547   1.027   4.910 -0.4608  0.0346  0.5030
   15MOL   C74413372   1.468   1.368   5.061 -0.3923  0.5017 -0.0625
   15MOL   C74513373   1.557   1.480   5.072  0.3224  0.8018  0.5629
   15MOL   C74613374   1.514   1.612   5.082  0.2800  0.1420  0.0964
   15MOL   C74713375   1.379   1.641   5.077  0.2155  0.2282  0.1067
   15MOL   C74813376   1.289   1.535   5.065  0.2544  0.0497 -0.0947
   15MOL   C74913377   1.329   1.402   5.054 -0.3413 -0.8778  0.3200
   15MOL   O75013378   1.336   1.769   5.079 -0.2719 -0.3243 -0.8518
   15MOL   H75113379   1.359   0.021   5.086 -1.7912 -0.4063 -0.0816
   15MOL   H75213380   1.476   0.217   5.219 -0.3689  0.9612 -0.6104
   15MOL   H75313381   1.108   0.435   5.211  1.2018  2.7302 -2.7164
   15MOL   H75413382   1.008   0.272   5.070 -0.8016 -2.7853 -0.7711
   15MOL   H75513383   1.299   0.576   5.100  0.6736 -0.9321 -1.6233
   15MOL   H75613384   1.420   0.742   4.950  0.8649  1.7342  0.1825
   15MOL   H75713385   1.757   0.715   5.217  0.0897  1.1437 -1.0748
   15MOL   H75813386   1.620   0.564   5.369  0.7836 -1.3953  0.0987
   15MOL   H75913387   1.701   0.992   5.207  0.0111  1.2275  1.6555
   15MOL   H76013388   1.635   1.229   5.227 -0.5976  2.9346 -0.9954
   15MOL   H76113389   1.424   1.195   4.856 -0.0649 -0.0313 -0.3956
   15MOL   H76213390   1.510   0.966   4.829 -1.6160  0.7427  0.4960
   15MOL   H76313391   1.659   1.446   5.089  0.1365 -0.3945 -0.6899
   15MOL   H76413392   1.589   1.689   5.094  2.5523 -1.5781 -2.2236
   15MOL   H76513393   1.186   1.566   5.058  0.0214 -0.9054 -1.1034
   15MOL   H76613394   1.255   1.327   5.032 -0.9013 -0.4814  0.8591
   15MOL   C76713395   1.334   1.845   4.969 -0.2182  0.2802  0.2403
   15MOL   C76813396   1.216   1.847   4.887 -0.2885 -0.0472 -0.2589
   15MOL   C76913397   1.224   1.923   4.766 -0.1160 -0.2190 -0.2985
   15MOL   C77013398   1.342   1.997   4.734 -0.0280 -0.8267 -0.3263
   15MOL   C77113399   1.455   2.000   4.813  0.0529 -0.4022  0.0277
   15MOL   C77213400   1.448   1.922   4.930 -0.0169  0.2331 -0.0630
   15MOL   S77313401   1.349   2.083   4.578 -0.3881 -0.3819 -0.6279
   15MOL   O77413402   1.400   2.219   4.602  0.4876 -0.1290 -0.7754
   15MOL   O77513403   1.212   2.068   4.528 -0.5268 -0.0667 -0.4948
   15MOL   C77613404   1.461   1.997   4.463  0.4659 -0.1657 -0.4431
   15MOL   C77713405   1.518   1.876   4.503 -1.4894  0.0665 -0.2095
   15MOL   C77813406   1.616   1.811   4.418  0.0903 -0.3347  0.6462
   15MOL   C77913407   1.661   1.876   4.302  0.1900 -0.5079 -0.7008
   15MOL   C78013408   1.601   1.995   4.260 -0.6813  0.3355  0.7366
   15MOL   C78113409   1.496   2.050   4.334 -0.3168  0.3416  0.2144
   15MOL   O78213410   1.766   1.828   4.230 -0.0316 -0.7736  0.3673
   15MOL   C78313411   1.751   1.713   4.155  0.0931 -0.7596 -0.1875
   15MOL   C78413412   1.656   1.611   4.178  0.0021  0.0438  0.0868
   15MOL   C78513413   1.646   1.494   4.100 -0.3716 -0.9096  1.1104
   15MOL   C78613414   1.737   1.469   3.997  0.3530  0.0850 -0.0840
   15MOL   C78713415   1.829   1.570   3.968 -0.0003 -0.2520  0.0946
   15MOL   C78813416   1.833   1.690   4.043  0.9901  0.5958  0.1095
   15MOL   C78913417   1.725   1.352   3.913  0.0975  0.1228 -0.5800
   15MOL   C79013418   1.757   1.356   3.774  0.4181 -0.8387 -0.4363
   15MOL   C79113419   1.762   1.236   3.703 -0.5553  0.2395  0.4973
   15MOL   C79213420   1.718   1.114   3.757 -1.2530 -0.7899 -0.0481
   15MOL   C79313421   1.674   1.123   3.892 -0.1236  0.2357 -1.0388
   15MOL   C79413422   1.687   1.232   3.974 -0.0813  0.3490 -0.2035
   15MOL   O79513423   1.710   0.994   3.688 -0.2308  0.2843 -0.1051
   15MOL   H79613424   1.136   1.786   4.924 -2.1674  1.8350 -1.1309
   15MOL   H79713425   1.138   1.935   4.702 -1.2252  0.9758  1.3911
   15MOL   H79813426   1.542   2.052   4.775 -0.5684  0.1565 -0.6424
   15MOL   H79913427   1.528   1.932   5.002 -1.5270 -1.0769  1.8469
   15MOL   H80013428   1.484   1.824   4.591  5.1072 -0.1991  2.4535
   15MOL   H80113429   1.649   1.711   4.441  1.9801 -0.1346 -1.1436
   15MOL   H80213430   1.631   2.040   4.166 -0.8479  0.9189  0.9602
   15MOL   H80313431   1.442   2.136   4.296 -0.4687 -0.4704 -1.4707
   15MOL   H80413432   1.583   1.625   4.256 -0.5922  0.7782 -0.5883
   15MOL   H80513433   1.572   1.417   4.117 -0.8420 -0.5347  0.7748
   15MOL   H80613434   1.892   1.558   3.881 -1.1949 -4.1959 -0.3527
   15MOL   H80713435   1.908   1.764   4.021  1.2978  0.3095  0.1883
   15MOL   H80813436   1.794   1.445   3.725 -0.0351 -0.1675  0.4154
   15MOL   H80913437   1.780   1.238   3.596 -0.2745 -0.8404  0.5185
   15MOL   H81013438   1.664   1.034   3.952  1.1817 -0.6607 -2.1411
   15MOL   H81113439   1.667   1.216   4.079 -0.7648  0.0686 -0.3739
   15MOL   C81213440   1.804   0.898   3.722 -0.5574  0.0287  1.1425
   15MOL   C81313441   1.924   0.882   3.644 -0.1062 -0.8264  0.2000
   15MOL   C81413442   2.011   0.777   3.669  0.5694 -0.0646  0.3076
   15MOL   C81513443   1.980   0.684   3.770 -0.3967 -0.7888  0.3032
   15MOL   C81613444   1.863   0.694   3.846  0.1706 -1.2707  0.2175
   15MOL   C81713445   1.773   0.800   3.817 -1.0892  0.4984  0.2598
   15MOL   S81813446   2.083   0.549   3.801  0.1014  0.1244  0.0641
   15MOL   O81913447   2.216   0.596   3.755  0.4545 -0.2879  0.1875
   15MOL   O82013448   2.025   0.433   3.733 -0.2515 -1.0725 -0.4538
   15MOL   C82113449   2.085   0.525   3.979  0.5823 -0.6320 -0.2695
   15MOL   C82213450   2.045   0.403   4.015  0.5138 -0.5338 -0.5886
   15MOL   C82313451   2.050   0.361   4.149  0.8376  0.4300 -0.4764
   15MOL   C82413452   2.097   0.448   4.248 -0.2586  0.3025  0.1096
   15MOL   C82513453   2.129   0.579   4.210 -0.0861 -0.1393  0.4719
   15MOL   C82613454   2.128   0.619   4.073 -0.3973  0.5469  0.2893
   15MOL   O82713455   2.099   0.398   4.381 -0.0059  0.1682  0.4845
   15MOL   C82813456   2.096   0.490   4.488  0.0782 -0.2156  0.2138
   15MOL   C82913457   1.987   0.489   4.573 -0.1488  0.5332  0.0754
   15MOL   C83013458   1.991   0.571   4.687 -0.3612 -0.0868 -0.1872
   15MOL   C83113459   2.098   0.665   4.713  1.1760 -0.0707  0.0371
   15MOL   C83213460   2.201   0.669   4.621 -0.0056  0.5959  0.0250
   15MOL   C83313461   2.203   0.581   4.513 -0.5259  0.5962 -1.0968
   15MOL   C83413462   2.104   0.762   4.824 -0.0526 -0.2245 -0.2111
   15MOL   C83513463   2.211   0.782   4.918  0.4326  0.5550 -0.2478
   15MOL   C83613464   2.207   0.864   5.032 -0.8268  0.5366 -0.0942
   15MOL   C83713465   2.092   0.941   5.058  0.3252 -0.8819  1.2703
   15MOL   C83813466   1.984   0.930   4.971  0.0698  0.2942  0.5660
   15MOL   C83913467   1.990   0.840   4.862  0.4598 -0.4187  0.3679
   15MOL   O84013468   2.080   1.036   5.159 -0.0178 -0.3101  0.6943
   15MOL   H84113469   1.942   0.956   3.567 -0.1709  1.2388  2.1151
   15MOL   H84213470   2.093   0.758   3.601  0.5094  0.4543  0.0854
   15MOL   H84313471   1.843   0.621   3.924  1.1841 -0.8996  0.8339
   15MOL   H84413472   1.678   0.803   3.869 -1.4948  1.5382 -0.5132
   15MOL   H84513473   2.012   0.337   3.937  0.0450 -1.2289  0.1889
   15MOL   H84613474   2.032   0.259   4.177  0.6232 -0.1422 -2.5916
   15MOL   H84713475   2.143   0.657   4.283 -2.4253  0.2644  0.5451
   15MOL   H84813476   2.153   0.721   4.045 -2.4236  1.1876  0.6879
   15MOL   H84913477   1.902   0.424   4.557  0.2814  0.1119 -0.4691
   15MOL   H85013478   1.908   0.556   4.753 -0.1706  1.4729  0.4360
   15MOL   H85113479   2.282   0.738   4.640  0.5593 -0.1532  0.3775
   15MOL   H85213480   2.282   0.578   4.439  0.1684  0.4823 -0.3536
   15MOL   H85313481   2.306   0.732   4.904  0.5400  0.4214  0.9716
   15MOL   H85413482   2.300   0.863   5.088 -1.1807 -1.2421  0.4933
   15MOL   H85513483   1.902   1.000   4.984 -0.6744 -0.3435 -0.6447
   15MOL   H85613484   1.902   0.828   4.801  0.0802 -0.2518  0.8806
   15MOL   C85713485   2.195   1.102   5.193  0.0437 -0.1825  0.3870
   15MOL   C85813486   2.268   1.176   5.096 -0.0817  0.4365 -0.2049
   15MOL   C85913487   2.383   1.242   5.130 -0.2604  0.1268  0.1430
   15MOL   C86013488   2.427   1.247   5.263  0.6062  0.4376 -0.2360
   15MOL   C86113489   2.366   1.173   5.363  0.0633  0.1903 -0.0065
   15MOL   C86213490   2.246   1.108   5.329 -0.2799 -0.0125  0.3245
   15MOL   S86313491   2.554   1.356   5.317  0.6063  0.2870 -0.2019
   15MOL   O86413492   2.679   1.298   5.267  0.0713 -0.1765  0.4486
   15MOL   O86513493   2.545   1.380   5.463  0.4737 -0.1595  0.0387
   15MOL   C86613494   2.526   1.521   5.243 -0.3289  0.1995  0.3409
   15MOL   C86713495   2.635   1.576   5.180  0.3221 -0.5170 -0.0805
   15MOL   C86813496   2.605   1.693   5.116  0.4554 -0.1164  0.8857
   15MOL   C86913497   2.480   1.760   5.113  0.4278 -0.2906 -0.0435
   15MOL   C87013498   2.368   1.699   5.175 -0.1593 -0.4238 -0.1830
   15MOL   C87113499   2.399   1.574   5.241  0.2005  0.1224  0.3200
   15MOL   O87213500   2.467   1.882   5.049  0.0635 -0.7308  0.4800
   15MOL   C87313501   2.485   1.879   4.914  0.0093  0.1778 -0.2173
   15MOL   C87413502   2.379   1.841   4.829  0.0538 -0.3018  0.8737
   15MOL   C87513503   2.395   1.828   4.692 -0.6205  0.0298  0.0785
   15MOL   C87613504   2.525   1.849   4.633 -0.0208  0.6354  0.1978
   15MOL   C87713505   2.631   1.888   4.720  0.2048 -0.6914  0.4504
   15MOL   C87813506   2.610   1.912   4.862 -1.1385 -0.7913  0.5236
   15MOL   C87913507   2.558   1.816   4.493 -0.2284 -0.2675 -0.1020
   15MOL   C88013508   2.505   1.692   4.446  0.0928  0.1866 -0.2148
   15MOL   C88113509   2.520   1.657   4.313 -0.0388 -0.1809 -0.1106
   15MOL   C88213510   2.601   1.734   4.229  0.4223 -0.6096 -0.3325
   15MOL   C88313511   2.663   1.850   4.277 -0.1200  0.5552  0.7254
   15MOL   C88413512   2.648   1.885   4.410 -0.0888 -0.1915 -0.0507
   15MOL   O88513513   2.619   1.694   4.103 -0.4176  0.3938  0.9911
   15MOL   H88613514   2.253   1.171   4.989  0.3627  0.0792 -0.2507
   15MOL   H88713515   2.434   1.304   5.057  2.8043 -2.7795 -0.2943
   15MOL   H88813516   2.400   1.171   5.466 -0.6029 -2.8289  0.2099
   15MOL   H88913517   2.192   1.056   5.407  1.9364 -1.3380  1.0139
   15MOL   H89013518   2.736   1.539   5.178  0.6530  0.4440 -2.9795
   15MOL   H89113519   2.685   1.749   5.069 -0.3815  0.0488 -0.3721
   15MOL   H89213520   2.269   1.742   5.177 -0.7939 -1.8871  1.9570
   15MOL   H89313521   2.320   1.523   5.294 -2.3600  2.8719 -0.6851
   15MOL   H89413522   2.288   1.814   4.880 -1.3298  0.7645 -0.9503
   15MOL   H89513523   2.309   1.798   4.635 -1.1184  1.9640 -0.2402
   15MOL   H89613524   2.729   1.887   4.674  0.5563 -1.2362  1.1902
   15MOL   H89713525   2.692   1.948   4.923 -1.4232  1.6179 -0.4336
   15MOL   H89813526   2.451   1.618   4.503  0.2907  0.3970  0.2574
   15MOL   H89913527   2.481   1.559   4.289  1.5144 -0.6331 -0.8276
   15MOL   H90013528   2.727   1.911   4.215  0.6555  1.5548  2.4639
   15MOL   H90113529   2.703   1.971   4.445  0.9951 -1.4433  1.3788
   15MOL   H90213530   2.541   1.656   4.066  0.2449  0.5669 -0.6132
   16MOL     C113531   3.124   6.747   6.870 -0.1946  0.7595  0.0726
   16MOL     C213532   3.039   6.822   6.786 -0.5209  0.2110  0.1549
   16MOL     C313533   2.904   6.852   6.822  0.7799  0.2544  1.0989
   16MOL     C413534   2.856   6.804   6.946  0.3889  0.4103 -0.1002
   16MOL     C513535   2.937   6.725   7.032 -0.5035 -0.1513 -0.8466
   16MOL     C613536   3.072   6.704   6.998 -0.4545  0.2911 -0.0331
   16MOL     S713537   2.689   6.854   7.010  0.1682 -0.2954 -0.2308
   16MOL     O813538   2.713   6.982   7.082 -0.9744  0.5467 -0.6311
   16MOL     O913539   2.636   6.737   7.082  0.4695  0.3731 -1.0656
   16MOL    C1013540   2.584   6.893   6.869 -0.4702 -0.3976  0.3311
   16MOL    C1113541   2.570   7.018   6.811 -0.1067  0.7025  0.1366
   16MOL    C1213542   2.477   7.036   6.706  0.1401  0.6680  0.4337
   16MOL    C1313543   2.417   6.922   6.646  0.3331  0.8944  0.1241
   16MOL    C1413544   2.447   6.793   6.689  0.3085  0.0615 -0.1431
   16MOL    C1513545   2.530   6.781   6.802  0.2498  0.1190 -0.3649
   16MOL    O1613546   2.321   6.943   6.554  0.1101 -0.5439  0.5324
   16MOL    C1713547   2.365   6.922   6.426  0.2805 -0.3574  0.7652
   16MOL    C1813548   2.347   6.798   6.365  0.0843  0.6532 -0.1192
   16MOL    C1913549   2.391   6.776   6.233  0.4384 -0.0823 -1.1340
   16MOL    C2013550   2.465   6.873   6.165  0.3728  0.9690 -0.6242
   16MOL    C2113551   2.461   7.003   6.216  0.1267 -0.6594 -0.7427
   16MOL    C2213552   2.414   7.029   6.345 -0.0182  0.0807 -0.4319
   16MOL    C2313553   2.533   6.843   6.036 -0.2561 -0.3270 -0.0759
   16MOL    C2413554   2.521   6.926   5.923  0.3159 -0.0670 -0.4413
   16MOL    C2513555   2.603   6.904   5.817 -0.1062 -0.1634 -0.6159
   16MOL    C2613556   2.692   6.790   5.810  0.2717 -0.6691  0.4091
   16MOL    C2713557   2.697   6.704   5.921  0.4174 -0.2671  0.1358
   16MOL    C2813558   2.618   6.731   6.029  0.7750 -0.2678 -0.1164
   16MOL    O2913559   2.769   6.758   5.697 -0.4733 -0.6544  0.5320
   16MOL    H3013560   3.084   6.852   6.692 -0.2378  0.2241  0.2945
   16MOL    H3113561   2.843   6.924   6.770  1.1196 -0.3547 -0.1573
   16MOL    H3213562   2.899   6.690   7.126  1.1514  1.7094  0.5510
   16MOL    H3313563   3.136   6.637   7.053  0.3270  0.7191 -0.4084
   16MOL    H3413564   2.616   7.100   6.864  0.9555 -0.4135  0.9537
   16MOL    H3513565   2.441   7.135   6.681  2.5183  1.2406 -0.9785
   16MOL    H3613566   2.419   6.706   6.632  0.3965 -1.4314  2.0165
   16MOL    H3713567   2.556   6.687   6.848 -1.0430  0.9008  2.0510
   16MOL    H3813568   2.308   6.713   6.421  0.7047  0.3673 -0.1231
   16MOL    H3913569   2.386   6.673   6.199 -2.2588 -1.1785  2.3008
   16MOL    H4013570   2.513   7.087   6.172  0.2064  0.1416  0.8508
   16MOL    H4113571   2.415   7.126   6.391  0.3558  1.2735 -2.8571
   16MOL    H4213572   2.454   7.011   5.928 -1.4263 -1.3758 -1.2942
   16MOL    H4313573   2.607   6.977   5.738 -2.1058 -0.4855 -1.0301
   16MOL    H4413574   2.756   6.615   5.928 -0.6447 -0.9514  0.5497
   16MOL    H4513575   2.630   6.666   6.114 -0.7168  1.2805  1.3371
   16MOL    H4613576   3.225   6.725   6.838 -0.5144  0.0252 -0.4497
   16MOL    C4713577   2.714   6.677   5.599 -0.6937 -0.7642  0.8924
   16MOL    C4813578   2.734   6.705   5.461 -0.2719 -0.1239 -0.7670
   16MOL    C4913579   2.680   6.616   5.366 -1.0102 -0.7466  0.4998
   16MOL    C5013580   2.608   6.499   5.403  0.3869 -0.2580 -0.1961
   16MOL    C5113581   2.601   6.466   5.542  0.3741 -0.2339  0.3892
   16MOL    C5213582   2.651   6.562   5.635  0.7006  0.3211  0.2888
   16MOL    S5313583   2.547   6.394   5.278 -0.4280 -0.4623  0.1163
   16MOL    O5413584   2.548   6.254   5.319  0.1464  0.1957 -0.0091
   16MOL    O5513585   2.622   6.441   5.160 -0.3294  0.3946 -0.2513
   16MOL    C5613586   2.380   6.438   5.259  0.1705  0.6239 -0.3043
   16MOL    C5713587   2.297   6.440   5.371  0.8178  0.4227 -0.4647
   16MOL    C5813588   2.159   6.469   5.353  0.3491 -0.3259 -0.1826
   16MOL    C5913589   2.107   6.505   5.226  0.0491  0.2124  0.0096
   16MOL    C6013590   2.192   6.485   5.113 -0.4177  0.2879  0.0830
   16MOL    C6113591   2.324   6.446   5.130  1.1574  0.1067  0.0899
   16MOL    O6213592   1.978   6.547   5.210  0.1777  0.1908 -0.8709
   16MOL    C6313593   1.875   6.459   5.236 -1.0231  0.5578 -0.6463
   16MOL    C6413594   1.793   6.488   5.345 -0.1704  0.1047 -0.9197
   16MOL    C6513595   1.697   6.389   5.374  0.4924 -0.0793  0.5761
   16MOL    C6613596   1.679   6.273   5.293  0.5710  0.4237  0.0938
   16MOL    C6713597   1.759   6.252   5.179  0.4643 -0.2226  0.5384
   16MOL    C6813598   1.852   6.351   5.152 -0.5878  0.4340  0.3925
   16MOL    C6913599   1.584   6.170   5.335  0.2281 -0.5190  0.0470
   16MOL    C7013600   1.579   6.042   5.276 -0.0896  0.2015 -0.4150
   16MOL    C7113601   1.474   5.952   5.304 -0.1885 -0.6680  0.1757
   16MOL    C7213602   1.373   5.986   5.394  0.3613  0.2068  0.2413
   16MOL    C7313603   1.372   6.110   5.456  0.6002 -1.2462 -0.5172
   16MOL    C7413604   1.470   6.206   5.420 -0.1700 -0.1022  0.1325
   16MOL    O7513605   1.281   5.886   5.433 -0.7151  0.1144  0.4349
   16MOL    H7613606   2.788   6.795   5.436  1.0977 -1.0867 -1.3627
   16MOL    H7713607   2.693   6.646   5.263 -1.7947 -2.7473 -0.2051
   16MOL    H7813608   2.558   6.374   5.578 -1.1540  1.5025  3.1929
   16MOL    H7913609   2.642   6.551   5.742  2.7807 -0.2264  0.4206
   16MOL    H8013610   2.333   6.427   5.472  0.5097 -0.3107 -0.4525
   16MOL    H8113611   2.104   6.456   5.445 -1.7485  0.3913 -1.3183
   16MOL    H8213612   2.155   6.503   5.013  0.1494  0.5846 -0.0765
   16MOL    H8313613   2.388   6.438   5.043 -0.0627  0.8625 -0.8992
   16MOL    H8413614   1.809   6.572   5.412  0.2259 -1.0115  0.4082
   16MOL    H8513615   1.647   6.384   5.470 -0.1222  0.2142  0.2738
   16MOL    H8613616   1.751   6.160   5.123  0.2217  0.3484 -0.3695
   16MOL    H8713617   1.922   6.335   5.071 -0.5063  1.1644  0.3223
   16MOL    H8813618   1.654   6.014   5.203 -1.1195 -2.6638 -0.4215
   16MOL    H8913619   1.462   5.865   5.240  2.9581 -0.4957 -0.7330
   16MOL    H9013620   1.292   6.122   5.528  1.0093 -1.9067  0.0471
   16MOL    H9113621   1.455   6.310   5.445 -2.1022 -0.2278 -0.3586
   16MOL    C9213622   1.295   5.828   5.560 -0.6258  0.6535  0.2324
   16MOL    C9313623   1.187   5.752   5.610  0.1835 -0.5399  1.1822
   16MOL    C9413624   1.201   5.682   5.729  0.2918 -0.4670  0.3060
   16MOL    C9513625   1.325   5.687   5.803  0.6691 -0.0061 -0.1599
   16MOL    C9613626   1.429   5.769   5.759 -0.3890 -0.0470  0.0258
   16MOL    C9713627   1.420   5.841   5.637  0.4950 -0.6369  0.9697
   16MOL    S9813628   1.349   5.576   5.942  0.3147 -0.2210  0.0793
   16MOL    O9913629   1.447   5.633   6.036  0.2336  0.2106 -0.5267
   16MOL   O10013630   1.390   5.445   5.881 -0.0989  0.3416  0.5372
   16MOL   C10113631   1.198   5.561   6.037 -0.4537 -0.2650 -0.4104
   16MOL   C10213632   1.186   5.450   6.118  0.0323  0.6024 -0.2686
   16MOL   C10313633   1.075   5.426   6.197 -0.4667  0.1012 -0.3105
   16MOL   C10413634   0.967   5.521   6.192  0.4780  0.4331 -0.0769
   16MOL   C10513635   0.989   5.640   6.116  0.4117  0.6760 -0.0213
   16MOL   C10613636   1.100   5.663   6.039 -0.0692 -0.5544 -0.0068
   16MOL   O10713637   0.849   5.495   6.261 -0.0360 -0.3840  0.4402
   16MOL   C10813638   0.851   5.515   6.397  0.4409 -0.0942  0.0680
   16MOL   C10913639   0.885   5.407   6.483  0.0180  0.1126 -0.2963
   16MOL   C11013640   0.878   5.424   6.624  0.4942 -0.5175 -0.5469
   16MOL   C11113641   0.858   5.550   6.682  0.5822  0.0716 -0.5824
   16MOL   C11213642   0.826   5.654   6.594 -0.6240  0.2866  0.2598
   16MOL   C11313643   0.828   5.638   6.455 -0.3959 -0.1096  0.5399
   16MOL   C11413644   0.863   5.564   6.832  0.2203 -0.5434 -0.1193
   16MOL   C11513645   0.805   5.677   6.893  0.7434  0.0018  0.2022
   16MOL   C11613646   0.830   5.708   7.026 -0.2632 -0.7649  0.1785
   16MOL   C11713647   0.912   5.628   7.109 -0.2275  0.3381 -0.7432
   16MOL   C11813648   0.956   5.506   7.051  0.4746  0.0999 -0.4263
   16MOL   C11913649   0.929   5.469   6.916 -0.0081  0.0617  0.2345
   16MOL   O12013650   0.949   5.672   7.231  0.0818  0.1442  0.4507
   16MOL   H12113651   1.101   5.735   5.548  1.5067 -0.7086 -0.6682
   16MOL   H12213652   1.134   5.612   5.777  0.7294 -0.7087  0.5662
   16MOL   H12313653   1.518   5.775   5.820  0.8994 -0.6715 -1.7248
   16MOL   H12413654   1.505   5.893   5.594 -0.3701 -2.4575 -3.1669
   16MOL   H12513655   1.264   5.375   6.115  1.3848  1.9004  1.5322
   16MOL   H12613656   1.070   5.337   6.258  1.6221  0.2958  0.1938
   16MOL   H12713657   0.912   5.713   6.099  0.1893  0.7968  1.4450
   16MOL   H12813658   1.099   5.757   5.986 -0.7083  1.5250  3.5100
   16MOL   H12913659   0.913   5.313   6.438  0.8528 -0.8827  2.2657
   16MOL   H13013660   0.899   5.333   6.679 -0.5097 -0.4667 -0.0723
   16MOL   H13113661   0.813   5.754   6.631  0.7632 -0.7183  3.6007
   16MOL   H13213662   0.807   5.711   6.378 -0.4812 -0.5860  0.1029
   16MOL   H13313663   0.748   5.749   6.836  0.1266 -2.2203 -2.0896
   16MOL   H13413664   0.800   5.804   7.064  0.3032 -0.4090 -0.2776
   16MOL   H13513665   1.012   5.439   7.114  0.2872  0.9420  0.6601
   16MOL   H13613666   0.969   5.377   6.876 -0.2088 -1.5100  3.4460
   16MOL   C13713667   0.941   5.588   7.335  0.1190  0.1059 -0.1469
   16MOL   C13813668   0.822   5.556   7.397 -0.2051  0.5606 -0.2536
   16MOL   C13913669   0.811   5.452   7.497 -0.0227 -0.8812 -0.6962
   16MOL   C14013670   0.923   5.382   7.533 -0.0215  0.3487  0.4016
   16MOL   C14113671   1.048   5.416   7.472 -0.1943  0.7464 -0.0583
   16MOL   C14213672   1.053   5.519   7.379  0.5112 -0.5561  0.1458
   16MOL   S14313673   0.908   5.259   7.665 -0.2220 -0.0586 -0.4344
   16MOL   O14413674   1.035   5.251   7.738 -0.3510 -0.0942 -0.6756
   16MOL   O14513675   0.842   5.140   7.609  0.2894  0.0545 -0.6910
   16MOL   C14613676   0.788   5.330   7.782 -0.2081  0.7270  0.0655
   16MOL   C14713677   0.828   5.389   7.902 -0.7029 -0.5175 -0.0069
   16MOL   C14813678   0.723   5.428   7.987  0.2098  0.2202  0.0107
   16MOL   C14913679   0.590   5.413   7.957  0.3715 -0.5157  0.2239
   16MOL   C15013680   0.549   5.352   7.836  0.0758 -0.4524 -0.0129
   16MOL   C15113681   0.654   5.302   7.759  0.6148 -0.2827 -0.5334
   16MOL   O15213682   0.494   5.463   8.043  0.1077 -0.3646 -0.1595
   16MOL   C15313683   0.369   5.502   7.983  0.0610  0.4325 -0.9782
   16MOL   C15413684   0.270   5.405   7.967  0.0297 -0.0907 -0.2377
   16MOL   C15513685   0.154   5.435   7.892 -0.9291  0.1487 -0.1356
   16MOL   C15613686   0.139   5.562   7.831  0.1484  0.6616 -0.0148
   16MOL   C15713687   0.235   5.664   7.860 -0.6134 -0.6409 -0.0453
   16MOL   C15813688   0.351   5.634   7.937  0.7859 -0.1747 -0.5268
   16MOL   C15913689   0.018   5.602   7.752 -0.2997 -0.1267  0.0101
   16MOL   C16013690   8.255   5.551   7.780 -1.2005 -0.5931 -0.0799
   16MOL   C16113691   8.149   5.592   7.701 -0.4884 -0.1925  0.3854
   16MOL   C16213692   8.170   5.673   7.586  0.4180 -0.4076 -0.1204
   16MOL   C16313693   8.297   5.716   7.553 -0.4486  0.2135  0.2156
   16MOL   C16413694   0.034   5.685   7.642  0.1678  0.0645 -0.3646
   16MOL   O16513695   8.073   5.713   7.503  0.0325 -0.0718 -0.3607
   16MOL   H16613696   0.733   5.614   7.379 -0.6639 -0.4276 -1.2023
   16MOL   H16713697   0.716   5.429   7.544  0.6553 -0.3703  0.9548
   16MOL   H16813698   1.143   5.374   7.503 -0.6479  1.6606  2.6763
   16MOL   H16913699   1.151   5.539   7.337 -0.3139  2.2536 -0.5117
   16MOL   H17013700   0.933   5.412   7.907 -0.7949  0.0746 -0.6525
   16MOL   H17113701   0.756   5.484   8.073  0.5403  0.7934 -0.4872
   16MOL   H17213702   0.447   5.324   7.815  0.1447 -1.6692  1.2613
   16MOL   H17313703   0.642   5.237   7.673 -1.2406 -0.9623  0.2160
   16MOL   H17413704   0.277   5.307   8.011 -0.2481 -0.0214 -0.0325
   16MOL   H17513705   0.076   5.361   7.884  0.5899 -1.3956 -0.8871
   16MOL   H17613706   0.223   5.765   7.825 -0.0824 -0.2236  0.9572
   16MOL   H17713707   0.428   5.707   7.956  0.8126  0.0219 -1.3752
   16MOL   H17813708   8.234   5.497   7.870 -2.1575  1.4963  0.9928
   16MOL   H17913709   8.048   5.564   7.730 -1.7152  4.0678  0.5790
   16MOL   H18013710   8.308   5.783   7.470  0.8001  2.1831  1.9188
   16MOL   H18113711   0.136   5.714   7.622  0.6078 -2.2603 -1.6828
   16MOL   C18213712   8.057   5.634   7.396 -0.4065  0.0938 -0.0459
   16MOL   C18313713   8.089   5.679   7.263  0.5531  0.1526 -0.4839
   16MOL   C18413714   8.074   5.588   7.153  0.2177 -0.7751 -0.2281
   16MOL   C18513715   8.040   5.454   7.176 -0.3129  0.2022  0.1867
   16MOL   C18613716   8.012   5.412   7.307 -0.3216  0.0934  0.6639
   16MOL   C18713717   8.008   5.502   7.411 -0.0523 -0.0979  0.4577
   16MOL   S18813718   8.027   5.353   7.027 -0.5616 -0.1920  0.3544
   16MOL   O18913719   7.961   5.231   7.067  0.4267 -0.7520 -0.0525
   16MOL   O19013720   8.162   5.346   6.970 -0.1087  0.0787  0.5186
   16MOL   C19113721   7.925   5.448   6.916 -0.3021 -0.0735  0.0874
   16MOL   C19213722   7.792   5.481   6.956 -0.2056  0.8899  0.1986
   16MOL   C19313723   7.710   5.552   6.868  0.0025 -1.4791 -0.2475
   16MOL   C19413724   7.763   5.607   6.746  0.8280  0.3021  0.1910
   16MOL   C19513725   7.896   5.580   6.706  0.0581 -0.2072 -0.0642
   16MOL   C19613726   7.974   5.497   6.789 -0.1660 -0.3119 -0.0917
   16MOL   O19713727   7.692   5.689   6.671  0.1433  0.1479  0.5320
   16MOL   C19813728   7.584   5.629   6.609  0.1985 -0.1229  0.1603
   16MOL   C19913729   7.595   5.548   6.495  0.1026  0.5395  0.2608
   16MOL   C20013730   7.479   5.484   6.446 -0.0691  0.2256 -0.3073
   16MOL   C20113731   7.353   5.499   6.500 -0.3843 -0.3174  0.2679
   16MOL   C20213732   7.340   5.579   6.613 -0.0182  0.2464  0.8506
   16MOL   C20313733   7.456   5.638   6.670  0.3235  0.4369 -0.3349
   16MOL   C20413734   7.236   5.446   6.428  0.4521  0.4178 -0.2375
   16MOL   C20513735   7.237   5.316   6.376 -0.2944 -0.0665  0.3413
   16MOL   C20613736   7.123   5.264   6.316 -0.9292 -0.3201  0.8251
   16MOL   C20713737   7.003   5.338   6.308  0.1921  0.7157 -0.5607
   16MOL   C20813738   6.998   5.467   6.365  0.3652 -0.8857  0.1918
   16MOL   C20913739   7.110   5.511   6.428  0.6573  0.0500  0.3717
   16MOL   O21013740   6.892   5.285   6.242  0.5041 -0.1326 -0.5144
   16MOL   H21113741   8.142   5.773   7.255  1.8583 -0.2985  2.2543
   16MOL   H21213742   8.111   5.615   7.055  1.7659  1.5504  0.9588
   16MOL   H21313743   7.989   5.307   7.316  1.7072 -0.5412 -1.1355
   16MOL   H21413744   7.987   5.473   7.513  2.2418  0.9523  1.2898
   16MOL   H21513745   7.749   5.439   7.046  0.9563 -1.1530 -0.1851
   16MOL   H21613746   7.609   5.580   6.894  0.6039  1.9510 -1.3895
   16MOL   H21713747   7.940   5.623   6.618  0.1520  0.2406  0.2031
   16MOL   H21813748   8.079   5.477   6.773 -0.1570  0.5187 -1.1567
   16MOL   H21913749   7.691   5.528   6.451  0.4415 -0.3216  1.3717
   16MOL   H22013750   7.483   5.423   6.356  1.1165  0.0633 -0.1586
   16MOL   H22113751   7.244   5.597   6.659  0.0499 -1.6430  1.7729
   16MOL   H22213752   7.438   5.701   6.756 -1.5247  0.2377 -0.5583
   16MOL   H22313753   7.324   5.254   6.370  0.8440  1.6465 -1.6367
   16MOL   H22413754   7.129   5.160   6.285 -0.5084  0.4324 -1.6761
   16MOL   H22513755   6.910   5.530   6.369  0.1321 -1.2730  1.3755
   16MOL   H22613756   7.110   5.605   6.482  0.8529 -0.3664  1.1118
   16MOL   C22713757   6.841   5.167   6.299  1.0472 -0.4311  0.0122
   16MOL   C22813758   6.797   5.174   6.436 -0.1162  0.2380  0.0276
   16MOL   C22913759   6.764   5.051   6.497  0.9571 -0.9937 -0.0737
   16MOL   C23013760   6.773   4.922   6.426  0.2899  0.6419 -0.3624
   16MOL   C23113761   6.811   4.919   6.291  0.3216 -0.2887 -0.6481
   16MOL   C23213762   6.847   5.040   6.230 -0.1932 -0.6043 -0.2411
   16MOL   S23313763   6.736   4.768   6.516  0.0325 -0.4120  0.0685
   16MOL   O23413764   6.601   4.724   6.476  0.2028 -0.2918 -0.9455
   16MOL   O23513765   6.759   4.794   6.662  0.1908  0.6407  0.1020
   16MOL   C23613766   6.849   4.649   6.460 -0.0496 -0.1614  0.0938
   16MOL   C23713767   6.978   4.647   6.515  0.1691  0.3394 -0.4461
   16MOL   C23813768   7.079   4.564   6.465 -0.7794  0.7302 -0.0503
   16MOL   C23913769   7.047   4.466   6.369  0.2493  0.4645 -0.0133
   16MOL   C24013770   6.910   4.448   6.333  0.2237 -0.1978  0.1594
   16MOL   C24113771   6.817   4.550   6.369  0.1804 -0.5003  0.3570
   16MOL   O24213772   7.134   4.373   6.317  0.5242 -0.2601  0.1137
   16MOL   C24313773   7.261   4.352   6.369  0.0304  0.3158 -0.0977
   16MOL   C24413774   7.291   4.233   6.431 -0.4661  0.9123  1.0313
   16MOL   C24513775   7.420   4.210   6.492  0.7005  0.5614 -0.4380
   16MOL   C24613776   7.516   4.311   6.479 -0.7289  0.2768  0.1510
   16MOL   C24713777   7.485   4.432   6.413  0.3237  0.3742  0.1423
   16MOL   C24813778   7.355   4.452   6.358 -0.8969 -0.5110 -0.2545
   16MOL   C24913779   7.650   4.292   6.530 -0.7252  0.4471 -0.7212
   16MOL   C25013780   7.731   4.177   6.493 -0.2127  0.0920  0.1317
   16MOL   C25113781   7.862   4.160   6.538 -0.3424  0.2925 -0.5211
   16MOL   C25213782   7.926   4.269   6.609  0.2792  0.1578  0.1977
   16MOL   C25313783   7.847   4.378   6.647 -0.4068 -0.1125  0.4766
   16MOL   C25413784   7.711   4.391   6.610 -0.3344  0.0720 -0.3413
   16MOL   O25513785   8.062   4.276   6.636  0.1852 -0.4637 -0.0228
   16MOL   H25613786   6.793   5.265   6.494  0.5224 -0.4781  1.2205
   16MOL   H25713787   6.749   5.050   6.604  0.8942  1.6226 -0.0239
   16MOL   H25813788   6.811   4.831   6.229  0.3855  0.0134 -1.0838
   16MOL   H25913789   6.889   5.035   6.131 -1.6054  0.4220 -0.9185
   16MOL   H26013790   7.001   4.718   6.593 -0.8676 -0.5324  0.6758
   16MOL   H26113791   7.178   4.575   6.508  0.7357  0.3877 -3.3446
   16MOL   H26213792   6.892   4.373   6.258 -0.3391  0.8039 -0.7045
   16MOL   H26313793   6.719   4.531   6.330 -0.0036 -1.7490  1.3890
   16MOL   H26413794   7.216   4.157   6.446 -0.1358  0.1419 -1.1180
   16MOL   H26513795   7.437   4.118   6.545  0.2579  0.5974 -0.2267
   16MOL   H26613796   7.551   4.517   6.403  2.0136 -0.5480  2.9605
   16MOL   H26713797   7.332   4.543   6.305  0.2146  1.9719  3.3257
   16MOL   H26813798   7.681   4.107   6.429 -1.4541  0.8907  0.2011
   16MOL   H26913799   7.916   4.071   6.510  0.1759  1.4272 -3.3253
   16MOL   H27013800   7.886   4.460   6.707 -1.7335  1.5601 -0.8819
   16MOL   H27113801   7.652   4.477   6.638 -2.6363 -0.7847 -2.3829
   16MOL   C27213802   8.115   4.231   6.762 -0.2850  0.0790  0.4105
   16MOL   C27313803   8.259   4.234   6.777 -0.2952 -0.3565 -0.2414
   16MOL   C27413804   8.316   4.187   6.899 -0.2295 -0.4827 -0.5557
   16MOL   C27513805   8.238   4.127   6.999 -0.3660 -0.7216  0.1940
   16MOL   C27613806   8.098   4.117   6.975 -0.2108 -0.7835 -0.4706
   16MOL   C27713807   8.036   4.166   6.858  0.5307 -0.3043  0.0413
   16MOL   S27813808   8.312   4.074   7.156  0.3900 -0.2396  0.0281
   16MOL   O27913809   8.206   4.031   7.244  0.4734  1.1297 -0.2835
   16MOL   O28013810   0.035   4.179   7.211  0.4624 -0.2312 -0.3151
   16MOL   C28113811   0.060   3.935   7.104 -0.2809  0.5007 -0.4424
   16MOL   C28213812   0.179   3.903   7.172  0.6819  0.1543  0.1714
   16MOL   C28313813   0.266   3.800   7.130 -0.0764  0.4089 -0.0779
   16MOL   C28413814   0.221   3.710   7.029  0.1136 -0.1884 -0.2992
   16MOL   C28513815   0.095   3.733   6.968 -0.3116 -0.3503  0.5341
   16MOL   C28613816   0.014   3.848   7.004  0.2193 -0.5852 -0.8058
   16MOL   O28713817   0.303   3.608   6.994 -0.5354 -0.2137  1.0557
   16MOL   C28813818   0.310   3.573   6.857  0.0614 -0.0982  0.5611
   16MOL   C28913819   0.426   3.610   6.790 -0.2490 -0.0195 -0.0367
   16MOL   C29013820   0.437   3.599   6.650 -0.1585  0.2595  0.7754
   16MOL   C29113821   0.332   3.542   6.568 -0.5816  0.3438 -0.1328
   16MOL   C29213822   0.228   3.479   6.644 -0.4926  0.1211 -0.4468
   16MOL   C29313823   0.213   3.500   6.784  0.2121 -0.4647 -0.3643
   16MOL   C29413824   0.333   3.533   6.419 -0.6449 -0.4980  0.2476
   16MOL   C29513825   0.453   3.530   6.342  0.3869  0.2024 -0.2359
   16MOL   C29613826   0.445   3.523   6.198 -0.3823  0.9848 -0.0960
   16MOL   C29713827   0.323   3.507   6.129  0.1174 -0.0904  0.4894
   16MOL   C29813828   0.212   3.508   6.208  0.0777 -0.2367  0.5645
   16MOL   C29913829   0.214   3.523   6.346 -0.7997 -0.2346  0.0262
   16MOL   O30013830   0.314   3.513   5.996  0.7372  0.0991  0.6212
   16MOL   H30113831   8.327   4.278   6.705 -2.6882  0.5685 -1.9867
   16MOL   H30213832   0.058   4.197   6.901 -0.3017  0.1545  0.4417
   16MOL   H30313833   8.026   4.083   7.048 -0.4687 -3.0372 -1.7309
   16MOL   H30413834   7.928   4.174   6.854  0.5229 -0.7908 -0.8785
   16MOL   H30513835   0.210   3.967   7.254  0.3660  1.0025 -0.3721
   16MOL   H30613836   0.360   3.782   7.179 -0.1722  0.7991  0.2520
   16MOL   H30713837   0.054   3.666   6.894  2.5466 -0.1210 -1.3345
   16MOL   H30813838   8.282   3.860   6.960  0.3705 -1.5692 -1.4248
   16MOL   H30913839   0.505   3.658   6.846  0.1330 -2.3867  1.5217
   16MOL   H31013840   0.527   3.635   6.602 -1.8027  0.4665 -2.2743
   16MOL   H31113841   0.145   3.425   6.601 -2.1197  2.1227  0.1149
   16MOL   H31213842   0.140   3.445   6.841  0.8146 -1.3639 -0.4589
   16MOL   H31313843   0.550   3.548   6.387  0.3428 -0.3525  0.0887
   16MOL   H31413844   0.533   3.535   6.137  1.7661 -0.2360  2.6410
   16MOL   H31513845   0.112   3.504   6.169 -0.1095  0.5801  0.9613
   16MOL   H31613846   0.120   3.517   6.400 -0.1701  1.3939  1.3761
   16MOL   C31713847   0.300   3.396   5.934 -0.5131  0.6355 -0.2803
   16MOL   C31813848   0.396   3.300   5.920 -0.1208  0.2529  0.6706
   16MOL   C31913849   0.379   3.180   5.850 -0.0231  0.0998 -0.1103
   16MOL   C32013850   0.249   3.158   5.794 -0.7121  0.4639 -0.1429
   16MOL   C32113851   0.142   3.247   5.819 -0.7125  0.4923  1.3349
   16MOL   C32213852   0.167   3.363   5.898 -0.1184  0.3620 -0.7399
   16MOL   S32313853   0.225   3.018   5.689  0.1050 -0.1582  0.2954
   16MOL   O32413854   0.363   2.970   5.654 -0.4915  0.0335  0.0740
   16MOL   O32513855   0.131   3.056   5.581  0.6732  0.3798  0.1413
   16MOL   C32613856   0.139   2.894   5.791  0.5810 -0.0979  0.8594
   16MOL   C32713857   0.170   2.758   5.763  0.9280  0.0443  0.2358
   16MOL   C32813858   0.102   2.658   5.841 -0.3796 -0.2989  0.0557
   16MOL   C32913859   0.003   2.695   5.939 -0.5960  0.9909  0.0604
   16MOL   C33013860   8.341   2.831   5.963 -0.3317 -0.3423 -0.4757
   16MOL   C33113861   0.041   2.926   5.886 -0.3773 -0.0445 -0.2877
   16MOL   O33213862   8.299   2.602   6.013  0.8812 -0.2572  0.2612
   16MOL   C33313863   0.009   2.491   6.048  0.2929 -0.2240 -0.1008
   16MOL   C33413864   0.136   2.504   6.099  0.0221 -0.1263  0.6727
   16MOL   C33513865   0.216   2.398   6.133  0.2493 -0.9003  0.1259
   16MOL   C33613866   0.171   2.268   6.105  0.3976 -0.1187 -0.1417
   16MOL   C33713867   0.048   2.246   6.051 -0.6172  0.1177  0.2582
   16MOL   C33813868   8.333   2.362   6.019  0.6331  0.5196 -0.4800
   16MOL   C33913869   0.253   2.153   6.143  0.4626  0.5960 -0.3854
   16MOL   C34013870   0.264   2.117   6.278 -0.5074  0.6645 -0.3214
   16MOL   C34113871   0.336   2.004   6.327 -0.1850 -0.4109 -0.3689
   16MOL   C34213872   0.422   1.931   6.241 -0.2647  0.0745 -0.6931
   16MOL   C34313873   0.422   1.969   6.107 -0.1098 -0.4463 -0.0497
   16MOL   C34413874   0.339   2.075   6.060 -0.0864  1.0015 -0.4557
   16MOL   O34513875   0.490   1.818   6.285 -0.3367 -0.2368 -0.1617
   16MOL   H34613876   0.494   3.329   5.954  0.0031  0.4863  0.1253
   16MOL   H34713877   0.465   3.123   5.820 -1.1075 -1.8794  0.4721
   16MOL   H34813878   0.044   3.214   5.787 -1.3774  1.9772  1.7774
   16MOL   H34913879   0.090   3.437   5.915 -1.0709 -0.8506  0.3165
   16MOL   H35013880   0.249   2.722   5.698  1.9627  1.3856  0.7219
   16MOL   H35113881   0.125   2.556   5.813  1.7230  0.0612  0.3842
   16MOL   H35213882   8.267   2.859   6.037  1.1262 -0.5438  1.0753
   16MOL   H35313883   0.003   3.025   5.906  0.9869  0.5674 -0.6757
   16MOL   H35413884   0.177   2.603   6.115  1.1240 -0.3907 -0.4023
   16MOL   H35513885   0.319   2.410   6.162  0.0741  1.0166  0.0395
   16MOL   H35613886   0.025   2.150   6.009  2.3456  0.0619 -1.3398
   16MOL   H35713887   8.239   2.363   5.965  0.5866  0.9578 -0.3943
   16MOL   H35813888   0.200   2.169   6.349  2.0670  2.5998  0.6651
   16MOL   H35913889   0.335   1.977   6.432 -2.4322 -1.8481 -0.7457
   16MOL   H36013890   0.475   1.900   6.044 -0.0525  0.2349 -0.7595
   16MOL   H36113891   0.349   2.109   5.958 -0.0550  0.7371 -0.5410
   16MOL   C36213892   0.584   1.835   6.378  0.1544 -0.5215  0.1120
   16MOL   C36313893   0.684   1.934   6.367 -0.3299 -0.6739 -0.3187
   16MOL   C36413894   0.784   1.934   6.462 -0.0030 -1.0470 -0.0366
   16MOL   C36513895   0.786   1.840   6.562  0.6571  0.3974  0.1677
   16MOL   C36613896   0.688   1.745   6.570 -0.1120  0.6214  0.0054
   16MOL   C36713897   0.586   1.738   6.478 -0.3482  0.2477 -0.9469
   16MOL   S36813898   0.917   1.850   6.681  0.0556  0.8891 -0.0812
   16MOL   O36913899   0.865   1.778   6.798  0.6798  0.8105  0.8158
   16MOL   O37013900   0.964   1.990   6.690 -0.4472 -0.3223  0.6118
   16MOL   C37113901   1.049   1.747   6.612 -0.1801  0.6386 -0.0172
   16MOL   C37213902   1.141   1.800   6.521 -0.8806  0.3972 -0.2808
   16MOL   C37313903   1.235   1.719   6.464  0.0770  0.3823 -0.0069
   16MOL   C37413904   1.244   1.580   6.498  0.7309  0.7194  0.2375
   16MOL   C37513905   1.165   1.524   6.596 -0.2516 -0.7813  0.0001
   16MOL   C37613906   1.064   1.611   6.651  0.3168 -0.4032  0.4829
   16MOL   O37713907   1.347   1.503   6.449 -0.0080  0.0664 -0.2608
   16MOL   C37813908   1.321   1.419   6.347  0.0414 -0.2131  0.2162
   16MOL   C37913909   1.261   1.293   6.359 -0.2500  0.2906 -0.2678
   16MOL   C38013910   1.241   1.205   6.252  0.4088  1.3732  0.6076
   16MOL   C38113911   1.281   1.239   6.121 -0.0602  0.1047 -0.2910
   16MOL   C38213912   1.337   1.366   6.109  0.3986  0.5591  0.1828
   16MOL   C38313913   1.360   1.456   6.216  0.3618 -0.7907  0.9411
   16MOL   C38413914   1.278   1.148   6.010  0.4939  0.0111  0.1090
   16MOL   C38513915   1.165   1.163   5.914  0.0184  0.3355 -0.2464
   16MOL   C38613916   1.152   1.068   5.811 -0.8630  0.5080 -0.5154
   16MOL   C38713917   1.234   0.955   5.802  0.2188 -0.1543 -0.4047
   16MOL   C38813918   1.335   0.939   5.897 -0.6904  0.1640  0.3320
   16MOL   C38913919   1.348   1.032   5.998  0.3490  1.1353 -0.2173
   16MOL   O39013920   1.209   0.855   5.710  0.4261  0.1306 -0.0175
   16MOL   H39113921   0.675   2.008   6.290  1.4874 -1.4239 -1.2687
   16MOL   H39213922   0.857   2.012   6.449 -1.9291  0.7485 -0.3277
   16MOL   H39313923   0.691   1.675   6.652  1.5185  0.0563 -0.5245
   16MOL   H39413924   0.514   1.657   6.484 -0.2579  0.3395  1.5632
   16MOL   H39513925   1.125   1.899   6.481  1.1714  1.0244  0.3962
   16MOL   H39613926   1.304   1.756   6.390  0.1762 -0.5720 -0.4067
   16MOL   H39713927   1.181   1.422   6.628 -0.1896 -0.9818 -0.6545
   16MOL   H39813928   0.993   1.572   6.722 -1.4432  0.5969 -0.6815
   16MOL   H39913929   1.228   1.257   6.456 -1.0274 -1.6789 -1.2253
   16MOL   H40013930   1.190   1.111   6.270 -1.1415  2.0037 -0.4053
   16MOL   H40113931   1.375   1.395   6.012  1.5022 -0.6192  0.2565
   16MOL   H40213932   1.409   1.552   6.207 -0.9207 -0.4542 -3.6688
   16MOL   H40313933   1.100   1.248   5.922 -1.0645 -0.6620  1.7529
   16MOL   H40413934   1.076   1.080   5.735 -0.5378  2.0401 -0.6189
   16MOL   H40513935   1.402   0.854   5.892  3.5982  3.0735  4.2488
   16MOL   H40613936   1.416   0.993   6.072  0.5867  1.1414 -0.4325
   16MOL   C40713937   1.159   0.736   5.757 -0.7230  0.3410 -0.3802
   16MOL   C40813938   1.059   0.726   5.855  0.7585 -0.2896  0.2642
   16MOL   C40913939   1.018   0.599   5.908 -0.3851  0.0911 -0.2436
   16MOL   C41013940   1.072   0.480   5.855 -0.9990 -0.0564  0.3145
   16MOL   C41113941   1.173   0.491   5.755 -0.4559 -0.3676  0.2902
   16MOL   C41213942   1.209   0.617   5.696 -0.3024  0.2176  0.1365
   16MOL   S41313943   1.022   0.315   5.906  0.0755 -0.1869  0.4489
   16MOL   O41413944   1.027   0.322   6.055  0.7118 -0.8132  0.5323
   16MOL   O41513945   1.097   0.214   5.841  0.0242  0.2863 -0.1270
   16MOL   C41613946   0.856   0.284   5.863  0.0813  0.1494  0.3127
   16MOL   C41713947   0.799   0.328   5.743 -0.1376 -0.5169 -0.6842
   16MOL   C41813948   0.659   0.303   5.714  0.5985  0.2878 -1.0025
   16MOL   C41913949   0.590   0.220   5.803 -0.2733  0.4166  0.7514
   16MOL   C42013950   0.645   0.179   5.928  0.2737 -0.0352  0.9765
   16MOL   C42113951   0.777   0.218   5.959  0.3752 -0.5531  0.1671
   16MOL   O42213952   0.463   0.186   5.763  0.2800 -0.0221 -0.5303
   16MOL   C42313953   0.413   0.067   5.804 -0.0233  0.1041 -0.0443
   16MOL   C42413954   0.310   0.074   5.896 -0.2672 -0.2591 -0.0779
   16MOL   C42513955   0.251   8.315   5.938  0.1745 -0.2549 -0.4186
   16MOL   C42613956   0.291   8.192   5.887  0.3820 -0.8090 -0.3746
   16MOL   C42713957   0.401   8.189   5.800  0.6200  0.6845 -0.4358
   16MOL   C42813958   0.463   8.311   5.756  0.4913  0.1253 -0.2582
   16MOL   C42913959   0.227   8.070   5.935 -0.2457  0.7575  0.6009
   16MOL   C43013960   0.187   7.967   5.841 -0.0009  0.4484  0.3533
   16MOL   C43113961   0.118   7.854   5.877  0.4090  0.0482  0.0308
   16MOL   C43213962   0.092   7.822   6.016 -0.3435 -0.3835 -0.4288
   16MOL   C43313963   0.126   7.918   6.107 -0.3027  1.1721  0.2458
   16MOL   C43413964   0.196   8.037   6.072  0.5545  0.0757 -0.3925
   16MOL   O43513965   0.025   7.707   6.050  0.2615  0.6125  0.2937
   16MOL   H43613966   1.002   0.807   5.899  0.7121 -0.8062  1.1633
   16MOL   H43713967   0.949   0.601   5.991  0.5849 -0.8149  0.5866
   16MOL   H43813968   1.205   0.395   5.719  1.0766 -0.1614  1.0642
   16MOL   H43913969   1.285   0.616   5.619 -0.3715  0.5627  0.0654
   16MOL   H44013970   0.861   0.387   5.677  0.1097 -1.0087 -0.8893
   16MOL   H44113971   0.609   0.334   5.624  0.7753 -0.0584 -1.2202
   16MOL   H44213972   0.586   0.119   5.995 -2.4447 -0.4409 -1.6568
   16MOL   H44313973   0.824   0.199   6.054  0.9576 -0.0931 -0.0275
   16MOL   H44413974   0.274   0.168   5.934 -0.3828 -0.1984 -0.3389
   16MOL   H44513975   0.159   8.328   5.993  0.6451  2.8358 -0.2351
   16MOL   H44613976   0.424   8.091   5.763 -0.8096 -0.4904  1.6343
   16MOL   H44713977   0.539   8.287   5.683 -0.8312  0.4013 -1.7650
   16MOL   H44813978   0.219   7.969   5.738 -1.0797 -3.3637 -0.1051
   16MOL   H44913979   0.095   7.775   5.806  0.2426  1.4451 -1.4983
   16MOL   H45013980   0.102   7.896   6.210 -2.0617 -0.9021 -0.5745
   16MOL   H45113981   0.217   8.114   6.145  2.5710  1.3640 -2.2762
   16MOL   C45213982   0.089   7.584   6.038  0.6566 -0.0793 -0.5505
   16MOL   C45313983   0.215   7.550   6.090 -0.2834 -0.0629  0.3654
   16MOL   C45413984   0.269   7.425   6.061 -0.7563  0.4201  0.8150
   16MOL   C45513985   0.187   7.330   5.997 -1.0693  0.3897 -0.4676
   16MOL   C45613986   0.062   7.361   5.937  0.4119  0.0787  0.5163
   16MOL   C45713987   0.013   7.495   5.962 -0.4705  0.6459  0.0337
   16MOL   S45813988   0.257   7.161   5.980 -0.1813 -0.3178  0.1939
   16MOL   O45913989   0.397   7.167   5.946  0.5598  0.9238 -0.1059
   16MOL   O46013990   0.165   7.086   5.888  0.1128 -0.0037 -0.4007
   16MOL   C46113991   0.236   7.092   6.141 -0.6988 -0.2842  0.5270
   16MOL   C46213992   0.347   7.071   6.219 -0.1329  0.2361  0.3112
   16MOL   C46313993   0.338   7.017   6.346 -0.4805 -0.4908  0.0830
   16MOL   C46413994   0.211   6.982   6.393  0.1029 -0.0582  0.1849
   16MOL   C46513995   0.096   6.993   6.307  0.0123  0.1203 -0.3718
   16MOL   C46613996   0.109   7.049   6.182  0.2052 -0.3625 -0.5152
   16MOL   O46713997   0.197   6.937   6.521 -0.7957  0.4874 -0.3453
   16MOL   C46813998   0.202   7.027   6.624 -0.3464 -0.3593  0.5328
   16MOL   C46913999   0.249   6.982   6.748  0.4666 -0.6480 -0.2017
   16MOL   C47014000   0.275   7.069   6.857 -0.5918 -0.3110 -0.5605
   16MOL   C47114001   0.249   7.206   6.840 -1.0253  0.0938 -0.2496
   16MOL   C47214002   0.204   7.248   6.707  0.6515  0.0945 -0.2411
   16MOL   C47314003   0.180   7.159   6.606  0.0197  0.1546  0.0491
   16MOL   C47414004   0.270   7.296   6.951 -1.0273 -0.3040  0.4082
   16MOL   C47514005   0.364   7.279   7.059 -0.1439  0.7308  0.3022
   16MOL   C47614006   0.379   7.375   7.161  0.0428  0.1484  0.0788
   16MOL   C47714007   0.307   7.497   7.158 -0.6411 -0.5624 -0.8704
   16MOL   C47814008   0.216   7.517   7.054 -0.0456  0.0803  0.4166
   16MOL   C47914009   0.201   7.420   6.946  0.0694 -0.0571 -0.4077
   16MOL   O48014010   0.323   7.583   7.268 -0.3940 -0.4053  0.4196
   16MOL   H48114011   0.260   7.620   6.159 -1.9641  0.9386  0.4760
   16MOL   H48214012   0.359   7.380   6.101 -1.0047 -1.6203 -0.8144
   16MOL   H48314013   8.364   7.283   5.897  0.6865  0.4381 -0.6375
   16MOL   H48414014   8.283   7.522   5.921 -1.1321 -2.2145 -0.4724
   16MOL   H48514015   0.443   7.106   6.185  0.4908  0.4802  2.2668
   16MOL   H48614016   0.424   7.001   6.410  0.2607 -2.5993 -1.4086
   16MOL   H48714017   8.363   6.956   6.330 -0.0232  0.7073  0.4139
   16MOL   H48814018   0.023   7.072   6.120 -0.4521  1.1318  0.8934
   16MOL   H48914019   0.272   6.877   6.761 -0.7059 -1.1833 -2.2156
   16MOL   H49014020   0.322   7.019   6.940 -0.2354 -1.9548 -1.7154
   16MOL   H49114021   0.200   7.353   6.686 -0.5087  0.3786  1.3121
   16MOL   H49214022   0.143   7.202   6.514  0.6716 -0.1061 -0.3346
   16MOL   H49314023   0.420   7.187   7.070 -0.5312  0.6286  1.4271
   16MOL   H49414024   0.454   7.360   7.238 -0.3185 -2.2534  0.0045
   16MOL   H49514025   0.142   7.595   7.051 -0.0151  0.1573  1.3591
   16MOL   H49614026   0.126   7.443   6.872  0.7744 -0.1775 -1.1578
   16MOL   C49714027   0.323   7.715   7.242  0.1936 -0.1279  0.1376
   16MOL   C49814028   0.203   7.782   7.237  0.2156  0.2277  0.6722
   16MOL   C49914029   0.202   7.918   7.218  0.9104 -0.5603  0.2332
   16MOL   C50014030   0.317   7.994   7.206  0.0105 -0.9058  0.5541
   16MOL   C50114031   0.440   7.921   7.210  0.4921 -0.1807  0.4091
   16MOL   C50214032   0.448   7.781   7.222 -0.1094  0.5217  0.1042
   16MOL   S50314033   0.316   8.173   7.198  0.2132 -0.2263 -0.2211
   16MOL   O50414034   0.429   8.228   7.274  0.6719  0.6422 -0.4871
   16MOL   O50514035   0.180   8.219   7.228 -0.1054  0.1615 -0.5568
   16MOL   C50614036   0.355   8.191   7.024 -0.1287  0.3819  0.2884
   16MOL   C50714037   0.482   8.159   6.974 -0.1818  0.3980 -0.1428
   16MOL   C50814038   0.505   8.172   6.832  0.4024  0.3655  0.1625
   16MOL   C50914039   0.407   8.224   6.745  0.4820 -0.0644  0.5269
   16MOL   C51014040   0.280   8.247   6.800 -0.5791  0.1060  0.5494
   16MOL   C51114041   0.253   8.227   6.937  0.3715 -0.5035 -1.3761
   16MOL   O51214042   0.439   8.228   6.611  0.4257 -0.5795 -0.0626
   16MOL   C51314043   0.371   8.325   6.537 -0.8499  0.0460  0.0029
   16MOL   C51414044   0.309   8.289   6.419  0.3728 -0.4217  0.8769
   16MOL   C51514045   0.231   0.029   6.353  0.1608  0.1454 -0.6253
   16MOL   C51614046   0.229   0.164   6.389  0.0426  0.0245  0.5254
   16MOL   C51714047   0.300   0.201   6.502  0.1548 -0.1828 -0.0327
   16MOL   C51814048   0.365   0.099   6.578 -0.4856 -0.0195  0.0610
   16MOL   C51914049   0.148   0.259   6.305  0.8493  0.0761  0.4320
   16MOL   C52014050   0.027   0.212   6.248  0.6222  0.3718 -0.0274
   16MOL   C52114051   8.311   0.295   6.172  0.2341 -0.2466  0.6921
   16MOL   C52214052   8.349   0.424   6.148  0.3145  0.0329  0.2125
   16MOL   C52314053   0.108   0.472   6.201  0.1899 -0.0337 -0.0749
   16MOL   C52414054   0.189   0.389   6.281 -0.2934 -0.1964  0.1040
   16MOL   O52514055   8.268   0.504   6.078  0.2163  0.0186  0.0658
   16MOL   H52614056   0.107   7.731   7.237  1.1393 -1.5284 -0.5964
   16MOL   H52714057   0.108   7.969   7.207  2.3688  1.6873 -2.4253
   16MOL   H52814058   0.530   7.979   7.195  0.3565  0.1196  0.7546
   16MOL   H52914059   0.543   7.730   7.228 -0.1346  0.3843 -0.5531
   16MOL   H53014060   0.550   8.116   7.045  1.0738  1.9174 -0.3895
   16MOL   H53114061   0.604   8.152   6.794 -0.7351 -1.0116 -2.1342
   16MOL   H53214062   0.200   8.284   6.737 -1.0291 -0.6394  0.6887
   16MOL   H53314063   0.159   8.260   6.979  1.7396  2.0364 -0.1591
   16MOL   H53414064   0.321   8.191   6.374 -1.1421 -0.8267  1.3426
   16MOL   H53514065   0.170   8.364   6.269  0.2003  0.9398 -0.9506
   16MOL   H53614066   0.302   0.307   6.521 -0.1608 -0.5319  2.1311
   16MOL   H53714067   0.417   0.129   6.668 -0.7243 -0.1562  0.2421
   16MOL   H53814068   8.363   0.109   6.263  0.3770  0.6252  1.3437
   16MOL   H53914069   8.215   0.261   6.134  0.0973 -0.2890  1.0707
   16MOL   H54014070   0.141   0.574   6.190 -0.0004  0.1997  1.4550
   16MOL   H54114071   0.273   0.435   6.331 -1.4223  1.9780  0.0701
   16MOL   C54214072   8.320   0.566   5.970  0.6205 -0.0264 -1.0889
   16MOL   C54314073   0.006   0.499   5.861 -0.0002 -0.2697 -0.0702
   16MOL   C54414074   0.049   0.579   5.751  0.4191  0.2297 -0.4418
   16MOL   C54514075   0.038   0.714   5.756 -0.0434 -0.4879 -0.1069
   16MOL   C54614076   8.355   0.780   5.872 -0.1187  0.2555 -0.4732
   16MOL   C54714077   8.315   0.706   5.982  0.2388  0.0655  0.3776
   16MOL   S54814078   0.090   0.809   5.616 -0.0925  0.1186  0.1521
   16MOL   O54914079   0.231   0.827   5.622 -0.2831 -0.1516  0.1444
   16MOL   O55014080   0.000   0.923   5.618 -0.0876 -0.4756 -0.0294
   16MOL   C55114081   0.056   0.723   5.465  0.3535  0.1531  0.7171
   16MOL   C55214082   8.317   0.630   5.443  0.1894  0.0170  0.0313
   16MOL   C55314083   8.299   0.580   5.315  0.2488 -0.2424 -0.1101
   16MOL   C55414084   0.022   0.606   5.212 -0.2453 -0.0387 -0.3535
   16MOL   C55514085   0.126   0.703   5.234  0.2637  0.3275 -0.3589
   16MOL   C55614086   0.147   0.757   5.364  0.0731 -0.0198  0.2562
   16MOL   O55714087   0.003   0.560   5.084 -0.1907 -0.3915  0.0426
   16MOL   C55814088   0.107   0.493   5.025  0.2197  0.0325  0.4234
   16MOL   C55914089   0.185   0.567   4.939  0.1171 -0.5517 -0.2180
   16MOL   C56014090   0.298   0.500   4.883 -0.3738 -0.1912 -0.8907
   16MOL   C56114091   0.327   0.366   4.908 -1.1184 -0.3199  0.1070
   16MOL   C56214092   0.238   0.292   4.986 -0.0261 -0.6023 -0.3372
   16MOL   C56314093   0.126   0.355   5.041  0.2914  0.0976  0.3792
   16MOL   C56414094   0.459   0.313   4.867 -0.5879 -0.2662  0.6430
   16MOL   C56514095   0.579   0.388   4.890  0.3803 -0.0141  0.5642
   16MOL   C56614096   0.704   0.336   4.844  0.5861 -0.5250  0.8821
   16MOL   C56714097   0.707   0.209   4.777 -0.1015 -0.6425 -0.3222
   16MOL   C56814098   0.588   0.140   4.766 -0.0725  0.2776  1.0479
   16MOL   C56914099   0.462   0.192   4.802  0.1837  0.0147  0.1189
   16MOL   O57014100   0.821   0.160   4.726  0.0596 -0.1883  0.3331
   16MOL   H57114101   0.017   0.391   5.857  0.2599 -0.3300  1.8071
   16MOL   H57214102   0.071   0.525   5.660  1.0371  1.4150 -1.0000
   16MOL   H57314103   8.332   0.886   5.878  0.7020  0.5366 -1.9656
   16MOL   H57414104   8.261   0.744   6.068 -0.2570 -0.3450  0.2519
   16MOL   H57514105   8.249   0.595   5.520  1.6511 -2.5142  0.2120
   16MOL   H57614106   8.221   0.507   5.299 -0.3862  0.9233 -2.4229
   16MOL   H57714107   0.190   0.732   5.152 -1.7899  1.0328 -1.7585
   16MOL   H57814108   0.222   0.834   5.382  0.0989  0.1742 -0.6974
   16MOL   H57914109   0.167   0.670   4.915  0.5577 -0.2170  0.8708
   16MOL   H58014110   0.366   0.557   4.821 -2.5841 -0.0814 -3.3008
   16MOL   H58114111   0.266   0.192   5.014  0.8340 -0.7100 -1.5341
   16MOL   H58214112   0.054   0.297   5.097 -0.1590  0.5300  0.2525
   16MOL   H58314113   0.585   0.487   4.934 -1.0395  0.5220 -0.4154
   16MOL   H58414114   0.793   0.394   4.864 -0.0338  0.5211  0.6539
   16MOL   H58514115   0.589   0.046   4.713  1.1412  0.5244  0.6017
   16MOL   H58614116   0.370   0.137   4.793  0.8261 -0.6717 -2.6482
   16MOL   C58714117   0.907   0.235   4.656 -0.1386 -0.5397 -0.8159
   16MOL   C58814118   0.865   0.291   4.532 -0.5361  0.3317  0.0934
   16MOL   C58914119   0.968   0.352   4.456 -0.4428  0.1912  0.0635
   16MOL   C59014120   1.104   0.354   4.499  0.6377  0.3436 -0.5332
   16MOL   C59114121   1.135   0.312   4.623 -0.7999 -0.3813 -1.4647
   16MOL   C59214122   1.037   0.248   4.702 -0.6777  0.4735  0.4191
   16MOL   S59314123   1.222   0.433   4.390 -0.4848 -0.0872 -0.1045
   16MOL   O59414124   1.354   0.383   4.433 -0.9113 -0.1871 -1.4343
   16MOL   O59514125   1.201   0.579   4.366  0.0031  0.3935 -0.0323
   16MOL   C59614126   1.201   0.351   4.232 -0.3765  0.1558 -0.8978
   16MOL   C59714127   1.119   0.404   4.132 -0.3263  0.0820 -0.4050
   16MOL   C59814128   1.088   0.337   4.014 -0.4928 -0.0469 -0.0326
   16MOL   C59914129   1.154   0.217   3.998 -0.4829 -0.5110 -0.4656
   16MOL   C60014130   1.246   0.159   4.093 -0.5481  0.5051  0.0508
   16MOL   C60114131   1.265   0.235   4.211 -0.5268  0.7121  0.2124
   16MOL   O60214132   1.120   0.154   3.890  0.1677  0.4088 -0.0603
   16MOL   C60314133   1.165   0.203   3.769  0.1872  0.1423 -0.5027
   16MOL   C60414134   1.299   0.186   3.722  0.9217 -0.4947  0.0646
   16MOL   C60514135   1.342   0.232   3.598  0.1704  0.0500  0.0798
   16MOL   C60614136   1.258   0.320   3.525 -0.2168  0.4036  0.2121
   16MOL   C60714137   1.123   0.341   3.570 -0.2099  0.1187  0.1742
   16MOL   C60814138   1.079   0.273   3.687  0.4804 -0.2766  0.1583
   16MOL   C60914139   1.301   0.378   3.396 -0.1842  1.0412  0.1488
   16MOL   C61014140   1.357   0.295   3.297 -0.0143 -0.2382 -0.4417
   16MOL   C61114141   1.406   0.344   3.175  0.4359  0.2051  0.0575
   16MOL   C61214142   1.396   0.485   3.153 -0.7300  0.1008 -0.2808
   16MOL   C61314143   1.339   0.573   3.247  0.1419  0.6669  0.3143
   16MOL   C61414144   1.293   0.516   3.367  0.8299 -0.4115 -0.2337
   16MOL   O61514145   1.441   0.550   3.043 -0.1417 -0.2382 -0.2789
   16MOL   H61614146   0.763   0.275   4.501 -1.0499  3.8346 -0.2020
   16MOL   H61714147   0.950   0.402   4.362  1.2748 -0.8954 -0.8654
   16MOL   H61814148   1.238   0.308   4.654 -1.4226 -1.1899  0.6281
   16MOL   H61914149   1.064   0.209   4.800  2.7381 -0.1317 -0.6871
   16MOL   H62014150   1.073   0.501   4.145  0.7759  0.5422  0.0696
   16MOL   H62114151   1.016   0.369   3.940  1.2818  2.6493 -0.6851
   16MOL   H62214152   1.299   0.069   4.067 -0.7730  0.4025 -0.0509
   16MOL   H62314153   1.339   0.206   4.285 -1.6890 -1.0726  0.7204
   16MOL   H62414154   1.380   0.143   3.779  0.0545 -0.9800  0.9462
   16MOL   H62514155   1.440   0.211   3.559  0.2237  2.3136 -1.0570
   16MOL   H62614156   1.053   0.403   3.516 -0.3511  0.9252  1.2752
   16MOL   H62714157   0.981   0.287   3.730  0.6048  3.7518 -0.6587
   16MOL   H62814158   1.371   0.188   3.307  0.1718 -0.0531  1.5181
   16MOL   H62914159   1.450   0.279   3.100 -0.3161 -0.7314  0.4265
   16MOL   H63014160   1.343   0.679   3.227 -0.2516  0.4244 -1.1163
   16MOL   H63114161   1.259   0.585   3.443  3.1184  0.2955  0.2148
   16MOL   C63214162   1.560   0.509   2.990 -0.1806 -0.0963 -0.0268
   16MOL   C63314163   1.582   0.518   2.853  0.8137 -0.4390 -0.3432
   16MOL   C63414164   1.706   0.495   2.790 -0.1105 -0.5235  0.0921
   16MOL   C63514165   1.808   0.445   2.875  0.5848  1.3166  0.0877
   16MOL   C63614166   1.787   0.429   3.010 -0.0249 -0.1003  0.2396
   16MOL   C63714167   1.666   0.460   3.070  0.4664  0.0125  0.6789
   16MOL   S63814168   1.960   0.386   2.788 -0.5524  0.1452 -0.1186
   16MOL   O63914169   2.053   0.366   2.901  0.0675  1.2790 -0.0422
   16MOL   O64014170   1.994   0.487   2.686  0.2812  0.5276  0.3960
   16MOL   C64114171   1.928   0.230   2.710  1.1154 -0.2534 -0.2264
   16MOL   C64214172   1.796   0.169   2.710  0.2935  0.3855  0.7662
   16MOL   C64314173   1.783   0.042   2.647  0.8860 -0.2073 -0.0233
   16MOL   C64414174   1.882   8.356   2.564 -0.1313 -0.8820 -0.1331
   16MOL   C64514175   2.010   0.054   2.562 -0.3773 -0.0310  0.6552
   16MOL   C64614176   2.032   0.177   2.629  0.8539 -0.1290  0.3053
   16MOL   O64714177   1.871   8.234   2.505  0.0287 -0.4232 -0.3992
   16MOL   C64814178   1.874   8.228   2.371  0.1105  1.0377  0.1333
   16MOL   C64914179   1.804   8.318   2.288 -0.2464  0.2921  0.1917
   16MOL   C65014180   1.809   8.314   2.146  0.9366  0.3712 -0.0845
   16MOL   C65114181   1.894   8.222   2.091 -0.0737  0.1454  0.0927
   16MOL   C65214182   1.959   8.123   2.170  0.7162 -0.3316  0.1838
   16MOL   C65314183   1.947   8.121   2.309  0.3960 -0.6887  0.3948
   16MOL   C65414184   1.903   8.230   1.950 -0.2353  0.4182 -0.5875
   16MOL   C65514185   1.856   8.125   1.876  0.6330  1.2317  0.1620
   16MOL   C65614186   1.852   8.137   1.735  0.0079  0.2277  0.1854
   16MOL   C65714187   1.907   8.256   1.675  0.8526  0.0540  0.5341
   16MOL   C65814188   1.954   8.364   1.752  0.3837 -0.5914  0.7097
   16MOL   C65914189   1.956   8.345   1.890 -0.3790  0.3937  0.2901
   16MOL   O66014190   1.940   8.241   1.543  0.0933  0.1535 -0.1883
   16MOL   H66114191   1.495   0.559   2.803  0.2726 -0.0178  0.9416
   16MOL   H66214192   1.723   0.514   2.685  0.3863  3.2903  0.7971
   16MOL   H66314193   1.868   0.388   3.069  0.7412 -0.9826 -1.3845
   16MOL   H66414194   1.650   0.457   3.177 -0.5164 -1.7269  0.4925
   16MOL   H66514195   1.722   0.216   2.774  0.8208  0.1896  1.5324
   16MOL   H66614196   1.683   0.001   2.648  0.5251  0.6036 -1.0588
   16MOL   H66714197   2.095   0.012   2.511 -0.7169  0.1188 -0.0487
   16MOL   H66814198   2.129   0.225   2.633 -0.1042  1.8387  1.2433
   16MOL   H66914199   1.758   0.041   2.328  0.8970  0.3905  1.3335
   16MOL   H67014200   1.762   0.024   2.085 -2.9555 -1.6800  0.2812
   16MOL   H67114201   2.022   8.050   2.121  1.1649 -0.1549  0.4833
   16MOL   H67214202   1.992   8.051   2.377 -0.7637  0.0918  2.0141
   16MOL   H67314203   1.798   8.042   1.914  0.7388  0.6116 -0.9898
   16MOL   H67414204   1.789   8.069   1.679  0.3811 -0.9705  1.2174
   16MOL   H67514205   1.982   0.092   1.707  1.6437 -0.9448  0.7297
   16MOL   H67614206   1.978   0.068   1.947 -0.7466 -0.1794  1.3421
   16MOL   C67714207   2.063   8.270   1.508  0.1554  0.3888  0.2130
   16MOL   C67814208   2.171   8.186   1.541  0.1527  0.1341 -0.9285
   16MOL   C67914209   2.301   8.230   1.514 -0.0268 -0.6865 -0.0729
   16MOL   C68014210   2.322   8.358   1.466  0.3662 -0.1541  0.2017
   16MOL   C68114211   2.214   0.079   1.438 -0.5044  0.0404 -0.7064
   16MOL   C68214212   2.083   0.031   1.445  0.0348 -0.1218  0.1308
   16MOL   S68314213   2.486   0.056   1.447 -0.0141 -0.2289 -0.4544
   16MOL   O68414214   2.486   0.197   1.405  0.1444 -0.1472  0.0721
   16MOL   O68514215   2.546   8.321   1.361 -0.0846 -0.0954  0.2875
   16MOL   C68614216   2.559   0.047   1.614  0.4122  0.7543  0.0950
   16MOL   C68714217   2.699   0.064   1.615 -0.0009 -0.0951 -0.3726
   16MOL   C68814218   2.776   0.048   1.734 -0.6001 -0.7153 -0.1923
   16MOL   C68914219   2.707   0.020   1.855  0.8894 -0.0545 -0.4801
   16MOL   C69014220   2.566   8.353   1.852  0.2859  0.0408  0.3142
   16MOL   C69114221   2.494   0.002   1.734 -0.5628  0.4659 -0.1505
   16MOL   O69214222   2.786   0.016   1.970 -0.1880  0.0608  0.1542
   16MOL   C69314223   2.744   0.055   2.096 -0.1954  0.5749  0.1540
   16MOL   C69414224   2.774   0.184   2.146 -0.4034 -0.0906  0.2692
   16MOL   C69514225   2.755   0.211   2.282 -0.3356 -0.0129  0.6843
   16MOL   C69614226   2.706   0.117   2.371  0.4441  0.2262 -0.0828
   16MOL   C69714227   2.669   8.358   2.322 -0.4361  0.4372 -0.0845
   16MOL   C69814228   2.683   8.330   2.183 -0.2698  0.4316 -0.2672
   16MOL   C69914229   2.685   0.139   2.518 -0.9256  0.5899 -0.0030
   16MOL   C70014230   2.712   0.033   2.607  0.6953  0.0448  0.1644
   16MOL   C70114231   2.691   0.041   2.743 -0.3096  0.5458 -0.3703
   16MOL   C70214232   2.627   0.152   2.797 -0.1979 -0.1441 -0.5179
   16MOL   C70314233   2.614   0.265   2.720 -0.3044  0.4666  0.0512
   16MOL   C70414234   2.649   0.258   2.583 -0.1827  0.0670  0.2861
   16MOL   O70514235   2.591   0.146   2.928  0.1768 -0.3029  0.0706
   16MOL   H70614236   2.165   8.091   1.593  0.9433  0.5025 -0.1634
   16MOL   H70714237   2.385   8.164   1.529  1.4899  1.3108  0.3800
   16MOL   H70814238   2.239   0.179   1.406  0.3940  0.1302  0.2468
   16MOL   H70914239   1.997   0.086   1.410 -1.2229 -1.0848  1.6694
   16MOL   H71014240   2.747   0.100   1.526 -0.9713  2.9596  0.2682
   16MOL   H71114241   2.874   0.094   1.729  0.2301 -2.2553  1.4809
   16MOL   H71214242   2.507   8.330   1.939  1.8238  1.5161  1.7792
   16MOL   H71314243   2.388   8.346   1.730 -0.0692 -1.9495 -0.8420
   16MOL   H71414244   2.805   0.262   2.077  0.4708  0.0175  0.7682
   16MOL   H71514245   2.790   0.307   2.319  2.5493 -0.6871 -0.1649
   16MOL   H71614246   2.647   8.280   2.394 -0.9537 -0.7130 -1.4659
   16MOL   H71714247   2.667   8.232   2.139  0.6762  0.4593 -0.6812
   16MOL   H71814248   2.755   8.308   2.567  3.9542  2.2679 -1.6464
   16MOL   H71914249   2.704   8.315   2.800 -0.0476 -0.0591 -1.3863
   16MOL   H72014250   2.596   0.359   2.770  2.1623  0.2703  1.3930
   16MOL   H72114251   2.642   0.351   2.528  1.8153  0.7760  1.1747
   16MOL   C72214252   2.461   0.109   2.948 -0.2906 -0.4042  0.2762
   16MOL   C72314253   2.380   0.176   3.041  0.2665  0.1939 -0.4305
   16MOL   C72414254   2.252   0.133   3.066  0.1015  0.4697  0.1297
   16MOL   C72514255   2.199   0.026   2.994  0.0465 -0.1228  0.1924
   16MOL   C72614256   2.277   8.328   2.898  0.9395  0.1545 -0.1323
   16MOL   C72714257   2.405   0.002   2.872 -0.5480 -0.3541  0.6011
   16MOL   S72814258   2.040   8.321   3.038  0.0718 -0.0624 -0.0562
   16MOL   O72914259   2.029   8.183   2.992 -0.2866  0.2003 -0.0438
   16MOL   O73014260   1.939   0.055   3.007  0.0467  0.6453  0.1513
   16MOL   C73114261   2.039   8.321   3.220 -0.2991 -0.1922 -0.2101
   16MOL   C73214262   1.942   0.030   3.289  0.5693  0.1811  0.2735
   16MOL   C73314263   1.937   0.026   3.429 -0.2343 -0.2596 -0.0879
   16MOL   C73414264   2.020   8.309   3.499  0.2906  0.3323 -0.2866
   16MOL   C73514265   2.107   8.227   3.430  0.1086 -0.6648  0.0999
   16MOL   C73614266   2.118   8.233   3.290  0.0562 -0.4894 -0.2002
   16MOL   O73714267   2.015   8.304   3.637 -0.0857 -0.3694  0.4966
   16MOL   C73814268   2.099   0.031   3.702 -0.2600 -0.6698  0.2085
   16MOL   C73914269   2.138   0.155   3.641 -0.2042 -0.3611 -0.5135
   16MOL   C74014270   2.243   0.229   3.706  0.4173 -0.4910  0.4607
   16MOL   C74114271   2.297   0.193   3.828  0.3024 -0.4106 -0.7034
   16MOL   C74214272   2.253   0.078   3.894 -0.1678  0.2266 -0.1676
   16MOL   C74314273   2.149   8.361   3.831  0.4948 -0.2480 -0.1654
   16MOL   C74414274   2.395   0.275   3.899  0.6315 -0.1044  0.3233
   16MOL   C74514275   2.497   0.333   3.830 -0.0432  0.3186 -0.4795
   16MOL   C74614276   2.588   0.415   3.890  0.0427 -0.0924 -0.3054
   16MOL   C74714277   2.590   0.428   4.033 -0.5625 -0.1372  0.2512
   16MOL   C74814278   2.487   0.369   4.108 -0.2069 -0.1664  0.4368
   16MOL   C74914279   2.386   0.301   4.035 -0.3958  0.5074  0.2003
   16MOL   O75014280   2.695   0.490   4.089  0.0952  0.0491 -0.1528
   16MOL   H75114281   2.431   0.254   3.096  1.4276 -1.3334  0.7017
   16MOL   H75214282   2.193   0.180   3.144  0.5626 -3.3199  2.9475
   16MOL   H75314283   2.236   8.241   2.850  1.0878 -1.0458  1.8589
   16MOL   H75414284   2.474   8.305   2.818  1.2097 -0.3014  2.7047
   16MOL   H75514285   1.873   0.094   3.237 -0.7445  1.3572  3.3668
   16MOL   H75614286   1.866   0.087   3.483 -0.6870  0.8105 -1.8155
   16MOL   H75714287   2.178   8.168   3.486  0.7716 -1.6554 -1.7324
   16MOL   H75814288   2.181   8.164   3.236 -2.0841  0.6952 -4.3577
   16MOL   H75914289   2.099   0.185   3.545 -2.7832 -0.4186  0.4514
   16MOL   H76014290   2.284   0.312   3.650 -0.3242 -0.3522  0.1181
   16MOL   H76114291   2.301   0.050   3.987 -0.8334 -0.3537  0.0097
   16MOL   H76214292   2.119   8.266   3.871  1.0055  0.1674  1.2407
   16MOL   H76314293   2.506   0.327   3.722  1.4297  1.0405 -0.4092
   16MOL   H76414294   2.668   0.461   3.835 -0.9269  1.8946 -0.0678
   16MOL   H76514295   2.472   0.386   4.214 -1.0699  0.1431  0.2717
   16MOL   H76614296   2.308   0.263   4.100 -0.8680 -0.8426 -1.1251
   16MOL   C76714297   2.669   0.590   4.175  0.3098 -0.0744  0.0887
   16MOL   C76814298   2.640   0.721   4.129  0.0550  0.1674  0.1546
   16MOL   C76914299   2.618   0.831   4.206 -0.1378  0.7665 -0.5446
   16MOL   C77014300   2.625   0.811   4.346 -0.5430  0.2395 -0.7462
   16MOL   C77114301   2.641   0.683   4.400  0.1294 -0.0241 -0.0362
   16MOL   C77214302   2.668   0.570   4.315 -0.7975 -0.3175  0.4107
   16MOL   S77314303   2.569   0.935   4.462 -0.2974 -0.5055 -0.2360
   16MOL   O77414304   2.446   0.881   4.524 -0.3949  0.0859 -0.4839
   16MOL   O77514305   2.564   1.064   4.388  0.2433 -0.3973 -0.4012
   16MOL   C77614306   2.709   0.936   4.576 -0.3129  0.1578 -0.4821
   16MOL   C77714307   2.687   0.949   4.713  0.1440  0.1157  0.3674
   16MOL   C77814308   2.796   0.956   4.802 -0.3161  0.2826  0.8849
   16MOL   C77914309   2.929   0.945   4.756  1.2670  0.7108  0.1265
   16MOL   C78014310   2.951   0.922   4.616 -0.0822 -0.1096 -1.0101
   16MOL   C78114311   2.837   0.915   4.526  0.3194 -0.3833 -0.3376
   16MOL   O78214312   3.038   0.951   4.838  0.1582  0.2280 -0.1575
   16MOL   C78314313   3.104   1.065   4.852 -0.3533  0.5773  0.5265
   16MOL   C78414314   3.190   1.060   4.963  0.5590  0.0439  0.0101
   16MOL   C78514315   3.278   1.164   4.981  0.7387 -0.4027  0.3563
   16MOL   C78614316   3.293   1.269   4.889  0.1056 -0.5409  0.9228
   16MOL   C78714317   3.207   1.266   4.773  0.4931 -0.1067  0.2256
   16MOL   C78814318   3.112   1.166   4.754 -0.1740 -0.1442  0.4155
   16MOL   C78914319   3.391   1.380   4.898  0.6579 -0.3069 -0.8608
   16MOL   C79014320   3.416   1.435   5.026 -0.7284 -1.0443 -0.3718
   16MOL   C79114321   3.522   1.528   5.041 -0.4891 -0.2758  0.1827
   16MOL   C79214322   3.588   1.581   4.927 -0.4399 -0.3668  0.1666
   16MOL   C79314323   3.558   1.527   4.800  0.2052 -0.5265  0.4425
   16MOL   C79414324   3.459   1.423   4.785 -0.0899 -0.1850 -0.8858
   16MOL   O79514325   3.690   1.679   4.932  0.9084  0.0724 -0.6141
   16MOL   H79614326   2.636   0.734   4.022 -1.0170  0.2893  0.2023
   16MOL   H79714327   2.604   0.933   4.173 -1.2631  0.2479 -1.7216
   16MOL   H79814328   2.643   0.671   4.508  0.1017 -0.2486 -0.0605
   16MOL   H79914329   2.687   0.470   4.351  1.5404 -0.2671 -0.5289
   16MOL   H80014330   2.589   0.980   4.746 -0.5837 -1.1426 -0.5645
   16MOL   H80114331   2.783   0.977   4.907  0.2804 -0.9787  1.2125
   16MOL   H80214332   3.053   0.906   4.585  0.4010  1.9700 -0.5461
   16MOL   H80314333   2.852   0.903   4.420  0.2108  0.2044 -0.4216
   16MOL   H80414334   3.197   0.970   5.022  1.1728  0.4066  0.4951
   16MOL   H80514335   3.340   1.163   5.069 -0.1578 -0.7161  0.9860
   16MOL   H80614336   3.208   1.342   4.696 -0.8754 -0.3197 -0.0065
   16MOL   H80714337   3.046   1.165   4.669 -0.2873 -1.1818  0.5183
   16MOL   H80814338   3.362   1.405   5.115  1.3590  0.2137  1.3521
   16MOL   H80914339   3.554   1.566   5.137  3.4522 -2.5956 -0.1185
   16MOL   H81014340   3.605   1.561   4.710 -0.2752 -3.5228 -1.0046
   16MOL   H81114341   3.443   1.381   4.687  0.4568 -3.3011  0.2905
   16MOL   C81214342   3.697   1.760   5.045 -0.8479  0.0179  0.3719
   16MOL   C81314343   3.592   1.852   5.060  0.0386  0.9491  0.0262
   16MOL   C81414344   3.597   1.937   5.168  0.4117 -0.5522 -0.4524
   16MOL   C81514345   3.689   1.911   5.274  0.0181 -0.5187 -0.3992
   16MOL   C81614346   3.783   1.805   5.269 -0.0731  0.5007 -0.6724
   16MOL   C81714347   3.788   1.731   5.155  0.3383  0.0521 -0.2467
   16MOL   S81814348   3.699   2.032   5.414 -0.1257  0.1306  0.1013
   16MOL   O81914349   3.655   2.164   5.368  0.1964 -0.1414 -0.0050
   16MOL   O82014350   3.835   2.023   5.468 -0.4320 -0.1731 -0.2112
   16MOL   C82114351   3.596   1.978   5.537 -0.2593  0.9893 -0.2281
   16MOL   C82214352   3.648   1.952   5.664 -0.1281 -0.5630 -0.1804
   16MOL   C82314353   3.565   1.918   5.769  0.6602  0.0545  0.6905
   16MOL   C82414354   3.426   1.895   5.752 -0.0465 -0.1604  0.6643
   16MOL   C82514355   3.373   1.927   5.625 -0.1033  0.3681 -0.1873
   16MOL   C82614356   3.456   1.961   5.518  0.2948  0.6993  0.3957
   16MOL   O82714357   3.356   1.859   5.864 -0.1975 -0.5146 -0.2643
   16MOL   C82814358   3.244   1.927   5.887  0.5121  0.0712 -0.8234
   16MOL   C82914359   3.251   2.055   5.948 -0.3924  0.5931  0.2793
   16MOL   C83014360   3.135   2.115   6.006 -0.3696 -0.1010  0.5830
   16MOL   C83114361   3.010   2.058   5.988 -0.8732 -0.2929  0.4589
   16MOL   C83214362   3.000   1.943   5.913 -0.5470  0.5533 -0.6480
   16MOL   C83314363   3.115   1.878   5.869  0.0048  0.7037  0.4084
   16MOL   C83414364   2.893   2.129   6.043  0.7036 -1.2168 -0.4339
   16MOL   C83514365   2.877   2.144   6.183  0.1492  0.5850  0.1098
   16MOL   C83614366   2.761   2.201   6.248 -0.1253 -0.6384 -0.3569
   16MOL   C83714367   2.662   2.261   6.168 -0.0979  0.7080 -0.1857
   16MOL   C83814368   2.679   2.245   6.025  0.5241 -0.6446 -0.3157
   16MOL   C83914369   2.792   2.186   5.964 -0.8398 -0.0086 -0.3084
   16MOL   O84014370   2.564   2.330   6.219  0.5598  0.1509  0.1910
   16MOL   H84114371   3.522   1.864   4.978  0.7092 -0.1247 -0.7197
   16MOL   H84214372   3.531   2.022   5.180  0.5891 -0.7850  2.6032
   16MOL   H84314373   3.844   1.785   5.356  1.7432  0.7609 -1.8575
   16MOL   H84414374   3.873   1.666   5.139 -1.3250 -2.1368 -0.4230
   16MOL   H84514375   3.754   1.966   5.679 -0.0825  1.1729 -1.8754
   16MOL   H84614376   3.605   1.895   5.867  0.6278 -1.0223  0.4558
   16MOL   H84714377   3.266   1.928   5.609 -0.1810  0.3897  0.3195
   16MOL   H84814378   3.411   1.978   5.422  0.1452 -0.9886  0.1541
   16MOL   H84914379   3.351   2.093   5.964 -0.2910 -0.0685  1.2532
   16MOL   H85014380   3.139   2.212   6.054 -0.7496  0.2394 -0.0723
   16MOL   H85114381   2.904   1.898   5.892 -0.8762  0.9077  0.0661
   16MOL   H85214382   3.112   1.784   5.816  0.4377  1.0839 -0.3030
   16MOL   H85314383   2.964   2.119   6.242  0.5896 -0.6541 -1.0400
   16MOL   H85414384   2.764   2.221   6.354  0.6512  3.9341 -1.1565
   16MOL   H85514385   2.604   2.295   5.966 -0.0464  0.1093  1.0121
   16MOL   H85614386   2.790   2.165   5.858 -1.3442 -0.5246 -0.2050
   16MOL   C85714387   2.443   2.268   6.257 -0.4156  0.0085 -0.5007
   16MOL   C85814388   2.380   2.159   6.183  0.3457 -0.2700  0.6320
   16MOL   C85914389   2.250   2.123   6.222  0.4736 -0.5430 -0.1229
   16MOL   C86014390   2.186   2.184   6.334 -0.4282 -0.1946  0.2646
   16MOL   C86114391   2.255   2.281   6.409  0.6356  0.1824  0.2525
   16MOL   C86214392   2.378   2.317   6.374 -0.5228  0.4268  0.1187
   16MOL   S86314393   2.017   2.149   6.377 -0.5950 -0.0206 -0.0306
   16MOL   O86414394   1.956   2.084   6.266 -0.2061  0.3627  0.2447
   16MOL   O86514395   1.954   2.272   6.426 -0.5922  0.0137  0.5288
   16MOL   C86614396   2.022   2.031   6.512  0.1921 -0.6982  0.0413
   16MOL   C86714397   1.996   1.894   6.479 -0.7176 -0.2038 -0.1324
   16MOL   C86814398   2.001   1.798   6.581 -0.5561  0.9994  0.1697
   16MOL   C86914399   2.016   1.833   6.720 -0.2246  0.1975  0.1533
   16MOL   C87014400   2.018   1.970   6.755  0.0635 -0.1447  0.4942
   16MOL   C87114401   2.021   2.071   6.649  0.1167 -0.2112  0.4444
   16MOL   O87214402   2.025   1.736   6.818  0.6174  0.5005 -0.1553
   16MOL   C87314403   1.919   1.654   6.822  0.3180 -0.0939  0.2533
   16MOL   C87414404   1.800   1.690   6.876  0.0412 -0.5898 -0.4881
   16MOL   C87514405   1.689   1.610   6.872  0.0194  0.2365  0.1553
   16MOL   C87614406   1.700   1.479   6.824 -0.3389 -0.2910  0.0479
   16MOL   C87714407   1.823   1.433   6.771  0.4127 -0.1058  0.5256
   16MOL   C87814408   1.929   1.529   6.765 -0.1247  0.7198 -0.0634
   16MOL   C87914409   1.572   1.406   6.819  0.5933  0.2992  0.4803
   16MOL   C88014410   1.535   1.329   6.706 -0.5491  0.3022  0.1194
   16MOL   C88114411   1.421   1.250   6.706  0.0209 -0.2783 -0.7714
   16MOL   C88214412   1.329   1.266   6.813  0.0392  0.1115 -0.8465
   16MOL   C88314413   1.361   1.353   6.924 -0.6625  0.0192 -0.3995
   16MOL   C88414414   1.478   1.419   6.927 -0.6120 -0.1441  0.5203
   16MOL   O88514415   1.207   1.202   6.805  0.1507  0.0560  0.3273
   16MOL   H88614416   2.429   2.113   6.098  0.4196 -0.2410  0.6590
   16MOL   H88714417   2.189   2.047   6.176 -2.2091  1.2487  0.3308
   16MOL   H88814418   2.210   2.331   6.493  2.7593  1.6889  0.5247
   16MOL   H88914419   2.424   2.397   6.430 -0.3926 -1.0337  2.1775
   16MOL   H89014420   1.994   1.860   6.376  0.5293 -1.3580  0.2020
   16MOL   H89114421   1.999   1.692   6.562  0.1008  0.6143  2.0912
   16MOL   H89214422   2.003   2.007   6.855 -0.0360 -0.4791  0.6022
   16MOL   H89314423   2.024   2.176   6.672  0.8059 -0.5230  1.7983
   16MOL   H89414424   1.789   1.787   6.921 -1.8761 -0.7892 -0.4724
   16MOL   H89514425   1.596   1.646   6.913  1.8056  1.0736  3.5836
   16MOL   H89614426   1.843   1.328   6.753 -0.1439  0.0461 -1.0677
   16MOL   H89714427   2.026   1.505   6.725 -0.6588 -1.0801 -0.3395
   16MOL   H89814428   1.596   1.304   6.621 -0.9878  2.6548 -0.9205
   16MOL   H89914429   1.403   1.178   6.628  0.4363 -0.0992 -1.0358
   16MOL   H90014430   1.293   1.352   7.009 -1.5879 -0.8913 -1.1352
   16MOL   H90114431   1.497   1.468   7.021 -0.1398  4.5881 -1.9236
   16MOL   H90214432   1.188   1.167   6.891 -1.7845  0.0575 -0.0833
   17MOL     C114433   2.177   6.111   5.435  0.5653 -0.0759  0.4728
   17MOL     C214434   2.068   6.102   5.343  0.5212  0.0242 -0.2161
   17MOL     C314435   2.082   6.065   5.207 -0.2149  0.0067  0.2986
   17MOL     C414436   2.210   6.033   5.161 -0.7898 -0.0799  0.5295
   17MOL     C514437   2.323   6.045   5.248  0.2826 -0.5793 -0.7492
   17MOL     C614438   2.303   6.080   5.386 -0.1248 -0.2230  0.1307
   17MOL     S714439   2.235   5.981   4.987 -0.0183  0.1425 -0.0343
   17MOL     O814440   2.232   5.837   4.989  0.3666  0.0546  0.0372
   17MOL     O914441   2.351   6.052   4.940  0.1610  0.0278  0.2956
   17MOL    C1014442   2.085   6.027   4.903 -1.0893  0.0263  0.1156
   17MOL    C1114443   1.979   5.941   4.890  0.9477  0.8084 -0.0720
   17MOL    C1214444   1.860   5.979   4.826  0.6344 -0.1421  0.1569
   17MOL    C1314445   1.841   6.111   4.781 -0.6055 -1.1158  0.3963
   17MOL    C1414446   1.942   6.204   4.797 -0.5409 -0.3088 -0.1451
   17MOL    C1514447   2.067   6.166   4.861  0.2142  0.3760 -0.4449
   17MOL    O1614448   1.719   6.153   4.726 -0.6220 -0.8606 -0.1926
   17MOL    C1714449   1.621   6.182   4.817 -0.3188 -0.1815  0.8029
   17MOL    C1814450   1.536   6.083   4.858  0.2629  0.1724 -0.0402
   17MOL    C1914451   1.428   6.106   4.944  0.0234 -0.2771  0.0360
   17MOL    C2014452   1.406   6.239   4.988 -0.9637 -0.0586 -0.1517
   17MOL    C2114453   1.494   6.342   4.946 -0.1339  1.0593 -0.1870
   17MOL    C2214454   1.600   6.311   4.862 -0.1501 -0.0167 -0.8570
   17MOL    C2314455   1.287   6.261   5.073 -0.4154  0.0605 -0.4389
   17MOL    C2414456   1.172   6.181   5.069  0.5360 -0.4836  0.3064
   17MOL    C2514457   1.072   6.187   5.167 -0.5810 -0.4721 -0.6617
   17MOL    C2614458   1.086   6.279   5.272 -0.6603 -0.0809  0.5231
   17MOL    C2714459   1.190   6.371   5.270 -0.1193 -0.4262  0.6091
   17MOL    C2814460   1.292   6.354   5.181  0.6865 -0.1842  0.3203
   17MOL    O2914461   0.990   6.279   5.367  0.6591 -0.0110  0.5917
   17MOL    H3014462   1.964   6.124   5.366  0.8440  0.6413  0.7003
   17MOL    H3114463   1.997   6.060   5.140 -0.8374 -2.4217  1.2272
   17MOL    H3214464   2.420   6.017   5.211  0.5163  0.3319 -0.8462
   17MOL    H3314465   2.384   6.094   5.457 -0.8117  0.9825  0.6857
   17MOL    H3414466   1.991   5.839   4.926  0.2349  1.0312  0.8168
   17MOL    H3514467   1.777   5.909   4.821  0.8634 -0.3502 -0.9411
   17MOL    H3614468   1.925   6.308   4.774  0.1130  0.0544  0.9596
   17MOL    H3714469   2.147   6.235   4.883  1.0591 -1.3377  1.9684
   17MOL    H3814470   1.547   5.984   4.817 -0.9381  0.5270 -1.2689
   17MOL    H3914471   1.356   6.033   4.976 -1.3666  1.1003  0.1278
   17MOL    H4014472   1.469   6.446   4.965 -4.3408 -0.0187  0.8561
   17MOL    H4114473   1.668   6.392   4.840 -0.2876  1.0263  2.2931
   17MOL    H4214474   1.174   6.103   4.994  1.0282  0.1562 -0.3523
   17MOL    H4314475   0.984   6.125   5.160 -2.0254  1.5376 -0.8596
   17MOL    H4414476   1.212   6.448   5.341 -1.6827  1.5099 -0.9469
   17MOL    H4514477   1.381   6.416   5.190  1.5774 -1.3445 -0.3093
   17MOL    H4614478   2.160   6.126   5.540  0.9951  4.8168 -0.0619
   17MOL    C4714479   1.013   6.233   5.492 -0.2969  0.2704  0.7159
   17MOL    C4814480   1.005   6.327   5.590 -0.5870 -0.1946  0.1310
   17MOL    C4914481   1.033   6.292   5.722  0.5043 -0.4960 -0.3855
   17MOL    C5014482   1.042   6.153   5.754 -0.4161  0.1352 -0.7573
   17MOL    C5114483   1.043   6.057   5.656  0.2411 -0.0905  0.6942
   17MOL    C5214484   1.027   6.098   5.523  0.1239  0.2038  0.3936
   17MOL    S5314485   1.061   6.092   5.926 -0.0130  0.6169 -0.3102
   17MOL    O5414486   1.068   6.194   6.030  0.7351 -0.5137 -0.3883
   17MOL    O5514487   1.174   5.997   5.936  0.5043 -0.2211  0.3330
   17MOL    C5614488   0.905   6.003   5.957  0.3842  0.3150  0.3454
   17MOL    C5714489   0.873   5.984   6.091  0.2564 -0.0136  0.3351
   17MOL    C5814490   0.744   5.924   6.129 -0.0072 -0.6410  0.3479
   17MOL    C5914491   0.656   5.882   6.031  0.1637 -0.3108 -0.1484
   17MOL    C6014492   0.691   5.903   5.901 -0.1272 -0.4355  0.5559
   17MOL    C6114493   0.813   5.970   5.860  0.5498 -0.3670 -0.1340
   17MOL    O6214494   0.538   5.820   6.058  0.5626 -0.6906 -0.7017
   17MOL    C6314495   0.524   5.691   6.079 -0.0533 -0.4896 -0.0796
   17MOL    C6414496   0.531   5.601   5.978 -0.8074 -0.1006  0.0150
   17MOL    C6514497   0.511   5.466   6.002 -0.6065  0.0544  0.3928
   17MOL    C6614498   0.503   5.421   6.132  0.3148  0.6048 -0.2791
   17MOL    C6714499   0.496   5.519   6.238 -0.1109  0.3937 -0.4621
   17MOL    C6814500   0.492   5.654   6.207  0.5953  0.2747 -0.2274
   17MOL    C6914501   0.500   5.278   6.172 -0.1302 -0.2965  0.3344
   17MOL    C7014502   0.576   5.225   6.278 -0.7574  0.1906  0.1857
   17MOL    C7114503   0.575   5.086   6.307  0.1319 -0.4498  0.0349
   17MOL    C7214504   0.484   5.001   6.247 -0.2779 -0.5651  0.7526
   17MOL    C7314505   0.397   5.052   6.146 -0.0455 -0.2501  0.0678
   17MOL    C7414506   0.415   5.186   6.105 -0.5085 -0.0276  0.4054
   17MOL    O7514507   0.467   4.880   6.299  0.1803 -0.1527  0.1795
   17MOL    H7614508   1.003   6.430   5.556  2.5959 -0.2875 -0.4555
   17MOL    H7714509   1.049   6.367   5.798  0.8888  1.4500 -2.3240
   17MOL    H7814510   1.070   5.959   5.692  1.4777 -1.0513 -2.6098
   17MOL    H7914511   1.041   6.032   5.438 -3.1878 -0.4378  0.3031
   17MOL    H8014512   0.943   6.016   6.167 -0.3314  0.5385  0.6466
   17MOL    H8114513   0.717   5.915   6.233 -0.4065  2.0672  0.5357
   17MOL    H8214514   0.610   5.876   5.835  0.3057  0.6689 -0.4392
   17MOL    H8314515   0.826   5.991   5.755  0.8140  0.1762  0.0085
   17MOL    H8414516   0.553   5.639   5.879  0.5149  1.7338  0.9824
   17MOL    H8514517   0.529   5.395   5.923  0.7142  0.1613  0.5824
   17MOL    H8614518   0.468   5.486   6.337 -0.8672  0.1855 -0.7453
   17MOL    H8714519   0.478   5.723   6.289 -1.7680 -0.5439  0.1022
   17MOL    H8814520   0.629   5.296   6.340 -3.4412  2.2509  0.2089
   17MOL    H8914521   0.623   5.055   6.399 -1.4129  1.8846  1.7012
   17MOL    H9014522   0.332   4.990   6.085 -1.5192  1.3919 -0.0827
   17MOL    H9114523   0.362   5.213   6.015  0.9043 -0.8088 -0.6909
   17MOL    C9214524   0.370   4.867   6.393  0.2586 -0.2430 -0.3106
   17MOL    C9314525   0.346   4.968   6.490 -0.2501 -0.2700 -0.2995
   17MOL    C9414526   0.232   4.945   6.568 -0.0101  0.4560  0.0361
   17MOL    C9514527   0.159   4.830   6.562  0.3295 -0.0599 -0.0455
   17MOL    C9614528   0.185   4.729   6.470  0.2391  0.6319  0.0033
   17MOL    C9714529   0.295   4.748   6.388  0.0774 -1.0260  0.3143
   17MOL    S9814530   0.021   4.819   6.666 -0.0931  0.0455 -0.2505
   17MOL    O9914531   0.085   4.837   6.800  0.0887 -0.1919 -0.3476
   17MOL   O10014532   8.312   4.701   6.631  0.1457  0.5672  0.0446
   17MOL   C10114533   8.286   4.961   6.636 -0.6828  0.0514 -0.7162
   17MOL   C10214534   8.254   4.988   6.500 -0.4165 -0.5326  0.1620
   17MOL   C10314535   8.186   5.099   6.467  0.9032 -0.5890  0.1521
   17MOL   C10414536   8.144   5.191   6.568 -0.0946 -0.0159 -0.1791
   17MOL   C10514537   8.169   5.163   6.707  0.8625  0.2722 -0.1763
   17MOL   C10614538   8.251   5.049   6.742 -0.0697  0.0208 -0.4703
   17MOL   O10714539   8.076   5.305   6.531  0.2419  0.2158 -0.1169
   17MOL   C10814540   8.147   5.409   6.466 -0.4871 -0.5924 -0.1950
   17MOL   C10914541   8.283   5.419   6.475  0.1303  0.6615  0.0356
   17MOL   C11014542   8.346   5.519   6.403  0.3227 -0.0119  0.3839
   17MOL   C11114543   8.279   5.629   6.341  0.3686 -0.2454  0.2287
   17MOL   C11214544   8.138   5.622   6.342 -0.0893 -0.6154 -0.5048
   17MOL   C11314545   8.075   5.509   6.397 -0.4589  0.0039 -0.2696
   17MOL   C11414546   8.347   5.742   6.284 -0.1375  0.0681 -0.0993
   17MOL   C11514547   0.117   5.727   6.242 -0.0222 -0.3396  0.2874
   17MOL   C11614548   0.186   5.835   6.179 -0.2790  0.5603 -0.2322
   17MOL   C11714549   0.130   5.957   6.157 -0.2585 -0.4439  0.0827
   17MOL   C11814550   8.363   5.975   6.198 -0.1406 -0.0675 -0.0862
   17MOL   C11914551   8.292   5.869   6.259  0.5120  0.5166  0.1000
   17MOL   O12014552   0.197   6.048   6.084 -0.0784  0.4408 -0.3894
   17MOL   H12114553   0.404   5.058   6.505 -2.3413  1.2416 -1.0629
   17MOL   H12214554   0.223   5.016   6.649 -5.4677 -0.5176  0.4893
   17MOL   H12314555   0.127   4.638   6.459 -2.1990  1.8632  2.2877
   17MOL   H12414556   0.323   4.677   6.311  4.0694 -0.8471  1.4796
   17MOL   H12514557   8.276   4.926   6.415 -1.7775 -0.5421 -0.1978
   17MOL   H12614558   8.162   5.125   6.365 -0.2863  0.1559  0.5995
   17MOL   H12714559   8.110   5.215   6.782  1.1294 -0.2667  0.4076
   17MOL   H12814560   8.270   5.025   6.846 -2.0366 -0.2080 -0.1452
   17MOL   H12914561   8.338   5.337   6.522 -3.8726 -2.0854  0.1778
   17MOL   H13014562   0.086   5.531   6.417  0.5709  1.2844 -2.3605
   17MOL   H13114563   8.079   5.688   6.281 -1.1036 -1.9950 -1.0371
   17MOL   H13214564   7.969   5.504   6.373 -0.1918  0.1411 -1.5016
   17MOL   H13314565   0.173   5.637   6.262  2.3577  1.7456  3.4173
   17MOL   H13414566   0.284   5.821   6.135 -0.6984 -2.6653 -0.2337
   17MOL   H13514567   8.320   6.073   6.181  1.0784  0.4962  0.0885
   17MOL   H13614568   8.192   5.888   6.295 -0.0053  0.8152 -1.4391
   17MOL   C13714569   0.311   6.114   6.122 -0.0774 -0.1214 -0.3370
   17MOL   C13814570   0.415   6.066   6.205  1.0384 -0.3439  0.4563
   17MOL   C13914571   0.532   6.138   6.225 -0.0900 -0.4667 -0.5327
   17MOL   C14014572   0.538   6.268   6.172 -0.3780 -0.6686  0.3403
   17MOL   C14114573   0.430   6.328   6.105 -0.4133 -0.3704  0.5681
   17MOL   C14214574   0.320   6.247   6.077  0.3777  0.7266  0.0132
   17MOL   S14314575   0.692   6.362   6.197 -0.1789  0.1669 -0.1399
   17MOL   O14414576   0.796   6.268   6.248 -0.0887 -0.0589 -0.7358
   17MOL   O14514577   0.657   6.476   6.279 -0.1678 -0.4633  0.3417
   17MOL   C14614578   0.729   6.423   6.029  0.3641 -0.0718  0.1874
   17MOL   C14714579   0.804   6.544   6.028  0.5744  0.3876 -0.8848
   17MOL   C14814580   0.828   6.595   5.902  0.0588 -1.2062  0.2744
   17MOL   C14914581   0.766   6.538   5.786 -0.6072  0.1297 -0.1068
   17MOL   C15014582   0.702   6.415   5.796  0.8652 -0.4970 -0.0140
   17MOL   C15114583   0.685   6.352   5.918 -0.1181 -0.4240 -0.1034
   17MOL   O15214584   0.789   6.596   5.664 -0.6959 -0.6530  0.6328
   17MOL   C15314585   0.713   6.704   5.631 -0.5402  0.0065  0.2767
   17MOL   C15414586   0.585   6.674   5.579  0.1933 -0.3563  0.4336
   17MOL   C15514587   0.504   6.774   5.528  0.3830  0.5029  0.1020
   17MOL   C15614588   0.542   6.906   5.515  0.2589 -0.1318 -0.2273
   17MOL   C15714589   0.667   6.933   5.580 -0.2160  0.0028 -0.0349
   17MOL   C15814590   0.754   6.838   5.633 -0.0955  0.1632  0.3251
   17MOL   C15914591   0.477   7.014   5.435  0.5585  0.2550 -0.5218
   17MOL   C16014592   0.438   6.999   5.301  0.4235  0.8259 -0.1847
   17MOL   C16114593   0.390   7.110   5.232  0.7791 -0.2419  0.0803
   17MOL   C16214594   0.394   7.241   5.295  0.0505  0.7195 -0.0091
   17MOL   C16314595   0.435   7.252   5.427  0.0562  0.5628  0.8336
   17MOL   C16414596   0.460   7.137   5.503 -0.6353  0.0253 -0.5210
   17MOL   O16514597   0.355   7.352   5.227  0.0935 -0.7129 -0.5334
   17MOL   H16614598   0.407   5.964   6.238 -1.8698 -0.4943 -0.5262
   17MOL   H16714599   0.607   6.103   6.294 -1.6431  1.3829  2.1751
   17MOL   H16814600   0.437   6.429   6.066 -2.8019 -0.5978 -0.5394
   17MOL   H16914601   0.239   6.286   6.017 -0.1100  0.0333  0.2097
   17MOL   H17014602   0.841   6.588   6.119  2.3842 -1.2061 -0.8095
   17MOL   H17114603   0.876   6.691   5.890  0.8215 -1.5086  0.8447
   17MOL   H17214604   0.647   6.370   5.715 -0.2064  1.2743 -0.3125
   17MOL   H17314605   0.613   6.274   5.936 -3.2075  1.8655 -2.0431
   17MOL   H17414606   0.548   6.573   5.572 -0.5712  0.0654 -2.4574
   17MOL   H17514607   0.407   6.747   5.488 -0.1865  1.2113  0.9959
   17MOL   H17614608   0.710   7.032   5.574 -0.8258  0.3326  1.0115
   17MOL   H17714609   0.847   6.865   5.682  0.6996 -0.6714 -0.6861
   17MOL   H17814610   0.457   6.909   5.245  0.6744  1.1078 -0.5503
   17MOL   H17914611   0.342   7.100   5.136  1.2776  1.3395 -0.3589
   17MOL   H18014612   0.424   7.348   5.474 -0.2854  0.2973  1.3035
   17MOL   H18114613   0.479   7.156   5.608 -0.3254 -2.9274  0.0009
   17MOL   C18214614   0.447   7.413   5.144  0.2397 -0.2471 -0.9586
   17MOL   C18314615   0.560   7.470   5.208  0.8237  0.7346 -0.0859
   17MOL   C18414616   0.667   7.527   5.132  0.4661  0.4111  0.0495
   17MOL   C18514617   0.652   7.529   4.993 -0.1610  0.0994 -0.1588
   17MOL   C18614618   0.550   7.461   4.925  0.5476  0.0688 -0.9204
   17MOL   C18714619   0.435   7.414   5.003 -0.4761  0.0273  0.4320
   17MOL   S18814620   0.783   7.603   4.895  0.6974 -0.1651  0.1329
   17MOL   O18914621   0.763   7.748   4.866 -0.2037 -0.1621 -0.0630
   17MOL   O19014622   0.798   7.516   4.776  0.4787  0.6593 -0.0922
   17MOL   C19114623   0.929   7.581   4.997 -0.2283 -0.4729 -0.4923
   17MOL   C19214624   0.966   7.685   5.089  0.0552 -0.0749 -0.2098
   17MOL   C19314625   1.082   7.668   5.164 -0.1987 -0.1514  0.2382
   17MOL   C19414626   1.155   7.547   5.158  0.0394  0.0712 -0.0061
   17MOL   C19514627   1.119   7.444   5.070 -0.7448  0.0852  0.2088
   17MOL   C19614628   1.001   7.458   4.991  0.2618 -0.1111 -0.5286
   17MOL   O19714629   1.263   7.532   5.240  0.7291  0.0966 -0.1785
   17MOL   C19814630   1.386   7.560   5.183  0.2254 -0.3597 -0.0547
   17MOL   C19914631   1.439   7.693   5.185 -0.2741  0.1860 -0.2058
   17MOL   C20014632   1.566   7.727   5.130  0.6109  0.4661 -0.5441
   17MOL   C20114633   1.641   7.620   5.072 -0.6531  0.0235  0.0390
   17MOL   C20214634   1.589   7.486   5.075 -0.2533 -0.1732 -0.4505
   17MOL   C20314635   1.465   7.458   5.118 -0.4349 -0.2886 -0.1571
   17MOL   C20414636   1.774   7.649   5.005  0.4919 -0.9396  0.1309
   17MOL   C20514637   1.825   7.561   4.909 -0.0939  0.5544  0.6345
   17MOL   C20614638   1.959   7.573   4.859 -0.5467 -0.3164 -0.1108
   17MOL   C20714639   2.044   7.672   4.913  0.1190 -0.5851 -0.7487
   17MOL   C20814640   1.993   7.759   5.012  0.7793 -0.0150 -0.0739
   17MOL   C20914641   1.862   7.747   5.060 -0.2072  0.2658  0.6003
   17MOL   O21014642   2.175   7.697   4.879  0.2049  0.2081  0.3698
   17MOL   H21114643   0.568   7.455   5.315 -0.1236  1.7787  0.1446
   17MOL   H21214644   0.752   7.558   5.192 -0.2998  1.7793  0.4534
   17MOL   H21314645   0.546   7.453   4.818 -1.2095 -0.3306 -0.8413
   17MOL   H21414646   0.358   7.357   4.952 -0.7754  0.6613  0.1621
   17MOL   H21514647   0.917   7.782   5.085  0.9649  0.3421 -1.7859
   17MOL   H21614648   1.121   7.753   5.218 -0.6054  0.3239 -0.2122
   17MOL   H21714649   1.183   7.358   5.059 -1.2371 -0.4619  1.5154
   17MOL   H21814650   0.981   7.377   4.923  2.5301 -1.2826  0.1449
   17MOL   H21914651   1.362   7.763   5.211 -1.7956 -1.8058  0.7920
   17MOL   H22014652   1.602   7.829   5.118 -0.0418  0.6929 -0.6088
   17MOL   H22114653   1.642   7.411   5.019  0.5022 -0.6039  0.8197
   17MOL   H22214654   1.424   7.358   5.110 -0.2170 -0.2369 -2.0274
   17MOL   H22314655   1.757   7.488   4.869 -0.1323  0.7977  0.2553
   17MOL   H22414656   1.992   7.515   4.774 -0.7229 -3.3178  1.8024
   17MOL   H22514657   2.065   7.828   5.052  0.1421 -0.3002  1.6151
   17MOL   H22614658   1.830   7.806   5.144  0.1271 -1.3539  1.9075
   17MOL   C22714659   2.262   7.597   4.872 -0.7111  0.1503 -0.0340
   17MOL   C22814660   2.378   7.620   4.793  0.2383  0.3796  0.2414
   17MOL   C22914661   2.471   7.515   4.760  0.0672  0.0272  0.1644
   17MOL   C23014662   2.437   7.384   4.808 -0.1937  0.2288 -0.6481
   17MOL   C23114663   2.326   7.360   4.883 -0.5692  0.4553 -0.2000
   17MOL   C23214664   2.247   7.469   4.929 -0.0296 -0.3052  0.9311
   17MOL   S23314665   2.545   7.258   4.770 -0.2514  0.0243  0.5030
   17MOL   O23414666   2.545   7.159   4.878  0.1907  0.3213  0.0159
   17MOL   O23514667   2.671   7.303   4.706  0.0654 -0.0555 -0.4918
   17MOL   C23614668   2.465   7.180   4.626 -0.7355 -0.1414  0.3763
   17MOL   C23714669   2.470   7.243   4.498 -0.1808  0.3511 -0.7019
   17MOL   C23814670   2.391   7.196   4.393 -0.5092 -0.1663  0.6858
   17MOL   C23914671   2.306   7.081   4.415  0.9898  0.6292 -0.8915
   17MOL   C24014672   2.315   7.018   4.539  0.2477 -0.3972 -0.0858
   17MOL   C24114673   2.389   7.065   4.646  0.7650  0.0432 -0.1323
   17MOL   O24214674   2.223   7.036   4.318  0.2434 -0.0675  0.0784
   17MOL   C24314675   2.277   7.016   4.193  0.4518  0.4048  0.7698
   17MOL   C24414676   2.241   7.112   4.095  0.3526 -0.2493  0.8108
   17MOL   C24514677   2.287   7.098   3.963 -0.6839 -0.0261  0.5674
   17MOL   C24614678   2.375   6.992   3.925  0.1510  0.1457  0.2362
   17MOL   C24714679   2.407   6.895   4.025  0.4476 -0.8953 -0.4040
   17MOL   C24814680   2.360   6.910   4.158 -0.3448  1.1283  0.4959
   17MOL   C24914681   2.435   6.976   3.788  0.2311 -0.5839 -0.1712
   17MOL   C25014682   2.462   7.093   3.711 -0.2697 -0.8597  0.6186
   17MOL   C25114683   2.511   7.084   3.578  0.7532 -0.2533  0.4178
   17MOL   C25214684   2.530   6.965   3.516 -0.6477  0.2079 -0.2911
   17MOL   C25314685   2.503   6.842   3.590  0.0186 -0.4231  0.5227
   17MOL   C25414686   2.459   6.851   3.725  0.2705  0.0963  0.1797
   17MOL   O25514687   2.561   6.938   3.386 -0.5052 -0.6448 -0.6327
   17MOL   H25614688   2.394   7.720   4.754  0.7692  0.6680  1.1933
   17MOL   H25714689   2.559   7.534   4.701  0.5719  1.7000  1.4302
   17MOL   H25814690   2.299   7.259   4.908  0.0883  0.0749 -0.9995
   17MOL   H25914691   2.155   7.447   4.982 -0.8410 -1.0671 -0.7498
   17MOL   H26014692   2.538   7.325   4.484  2.5059 -1.5808  0.4636
   17MOL   H26114693   2.385   7.251   4.300 -0.2638 -2.7670 -0.9492
   17MOL   H26214694   2.266   6.921   4.540 -0.2516 -0.1471 -0.2406
   17MOL   H26314695   2.400   7.015   4.741 -1.7402  0.7885  0.5788
   17MOL   H26414696   2.169   7.189   4.123  0.0464 -0.4135  0.4700
   17MOL   H26514697   2.258   7.176   3.894 -1.1802 -0.3887  0.3628
   17MOL   H26614698   2.481   6.823   3.996 -0.1218 -1.7688  0.2857
   17MOL   H26714699   2.401   6.842   4.230 -2.3010 -0.2974  0.3086
   17MOL   H26814700   2.452   7.192   3.752 -0.3935 -0.1315 -1.1220
   17MOL   H26914701   2.533   7.173   3.522 -0.3676  1.2864  2.3499
   17MOL   H27014702   2.508   6.742   3.551 -1.3402 -1.3435  2.6825
   17MOL   H27114703   2.438   6.758   3.774  0.0261  1.1368  2.1023
   17MOL   C27214704   2.697   6.928   3.361 -0.0770  0.1188  0.5612
   17MOL   C27314705   2.806   6.959   3.445  0.8313  0.4903  0.1152
   17MOL   C27414706   2.936   6.966   3.393  0.1760  0.5472 -0.6071
   17MOL   C27514707   2.962   6.950   3.259  0.0147  0.1380  0.0701
   17MOL   C27614708   2.856   6.918   3.175  0.4255  0.5749 -0.2890
   17MOL   C27714709   2.726   6.903   3.229 -0.4475  0.4383  0.6237
   17MOL   S27814710   3.115   6.954   3.175 -0.2933 -0.0678  0.0008
   17MOL   O27914711   3.109   7.082   3.102  0.2990 -0.2552  0.2328
   17MOL   O28014712   3.128   6.828   3.098  0.3789  0.1272 -0.0327
   17MOL   C28114713   3.246   6.951   3.298 -0.6495 -0.1472 -0.0312
   17MOL   C28214714   3.338   7.058   3.299  0.6204 -0.2519 -0.1541
   17MOL   C28314715   3.448   7.062   3.391  0.1697 -0.1284  0.4321
   17MOL   C28414716   3.455   6.965   3.494  0.3750  0.6043 -0.0902
   17MOL   C28514717   3.358   6.856   3.500 -0.2493  0.6642 -0.1703
   17MOL   C28614718   3.255   6.853   3.400  0.1207 -0.0149  0.4841
   17MOL   O28714719   3.553   6.976   3.591  0.3323 -0.0802  0.5222
   17MOL   C28814720   3.523   7.032   3.712  0.2025 -0.2005  0.9186
   17MOL   C28914721   3.586   6.993   3.833  0.1860  0.2940 -0.1465
   17MOL   C29014722   3.564   7.061   3.952  0.3891  0.0479 -0.2838
   17MOL   C29114723   3.463   7.163   3.957  0.0619 -0.5031 -0.3083
   17MOL   C29214724   3.406   7.201   3.835  0.0520  0.1714  0.6213
   17MOL   C29314725   3.437   7.142   3.711  0.5664  0.2047 -0.7148
   17MOL   C29414726   3.414   7.231   4.076  0.1510  0.3531  0.2158
   17MOL   C29514727   3.392   7.367   4.091 -0.7196 -0.9672  0.4193
   17MOL   C29614728   3.363   7.429   4.214  0.4202  0.2251  0.3771
   17MOL   C29714729   3.354   7.350   4.328  0.5262 -0.2124  0.0020
   17MOL   C29814730   3.373   7.207   4.316  0.1143 -0.3527  0.3347
   17MOL   C29914731   3.395   7.150   4.189  0.2094 -0.0936 -0.4935
   17MOL   O30014732   3.336   7.404   4.454  0.1258 -0.3718  0.5377
   17MOL   H30114733   2.790   6.991   3.547  2.0542 -2.0010  1.1376
   17MOL   H30214734   3.023   6.991   3.452 -0.5061  1.9759 -0.1650
   17MOL   H30314735   2.871   6.887   3.073  3.5435  1.6243 -0.2072
   17MOL   H30414736   2.643   6.890   3.161  0.2815  1.4067 -0.4591
   17MOL   H30514737   3.314   7.144   3.239  0.2365 -0.1715  0.1143
   17MOL   H30614738   3.515   7.147   3.394  2.4877 -1.9479  1.7858
   17MOL   H30714739   3.380   6.770   3.561  1.6823  0.7330 -0.7459
   17MOL   H30814740   3.175   6.780   3.396 -1.7643  1.9479  0.9298
   17MOL   H30914741   3.657   6.911   3.837  0.1303  0.2592  0.1095
   17MOL   H31014742   3.627   7.036   4.036  1.4633  0.7993 -0.8598
   17MOL   H31114743   3.325   7.273   3.835 -0.5142 -0.3730 -3.3226
   17MOL   H31214744   3.379   7.169   3.624 -0.4004 -0.6320 -0.3429
   17MOL   H31314745   3.416   7.442   4.017  0.2753 -1.8162 -0.1336
   17MOL   H31414746   3.359   7.537   4.218 -2.7714  0.2333 -1.3413
   17MOL   H31514747   3.360   7.136   4.397 -3.9187  1.1085  1.0911
   17MOL   H31614748   3.417   7.045   4.178 -2.1708 -0.4727 -2.0089
   17MOL   C31714749   3.229   7.484   4.461  0.1239 -0.0537  0.4102
   17MOL   C31814750   3.101   7.431   4.453  0.0827 -0.5357 -0.2972
   17MOL   C31914751   2.989   7.517   4.479  1.2978  0.3931  0.6505
   17MOL   C32014752   3.019   7.653   4.505  0.0883  0.1453  0.0855
   17MOL   C32114753   3.144   7.710   4.513  0.3251 -0.7985  0.1505
   17MOL   C32214754   3.250   7.626   4.482 -0.3957 -0.1119  0.0626
   17MOL   S32314755   2.885   7.760   4.559  0.3086 -0.3496 -0.3637
   17MOL   O32414756   2.763   7.722   4.484 -0.1201  0.2118 -0.2937
   17MOL   O32514757   2.928   7.898   4.556  0.1986  0.1398 -0.2418
   17MOL   C32614758   2.861   7.719   4.725  0.5983 -0.3481 -0.7637
   17MOL   C32714759   2.831   7.829   4.815 -0.1943 -0.2295 -0.6069
   17MOL   C32814760   2.799   7.801   4.951 -0.0479 -0.5078 -0.1669
   17MOL   C32914761   2.790   7.669   5.002  0.2283 -0.1686  0.1942
   17MOL   C33014762   2.826   7.567   4.919 -0.1090 -0.2307 -0.4531
   17MOL   C33114763   2.852   7.584   4.780 -0.5430  0.3066 -0.1426
   17MOL   O33214764   2.751   7.651   5.133 -0.1760  0.7822  0.0997
   17MOL   C33314765   2.698   7.534   5.184 -0.6438  0.0760 -0.2395
   17MOL   C33414766   2.745   7.470   5.299  0.0067  0.1911 -0.1749
   17MOL   C33514767   2.700   7.341   5.332 -0.0658 -0.1630  0.1973
   17MOL   C33614768   2.605   7.274   5.256 -0.2815  0.6952 -0.2111
   17MOL   C33714769   2.545   7.347   5.157  0.4703 -0.7018 -0.0053
   17MOL   C33814770   2.594   7.472   5.115 -0.2224 -0.5523 -0.2720
   17MOL   C33914771   2.546   7.146   5.306 -0.0870  0.3566 -0.5466
   17MOL   C34014772   2.506   7.125   5.443  0.3851 -0.2826  0.1829
   17MOL   C34114773   2.461   7.004   5.489 -0.5868 -0.1606 -0.3520
   17MOL   C34214774   2.437   6.900   5.399  0.7439  0.3150  0.3649
   17MOL   C34314775   2.468   6.919   5.261 -0.3278 -0.1606 -0.4678
   17MOL   C34414776   2.511   7.044   5.216  0.1095  0.4350  0.0969
   17MOL   O34514777   2.387   6.774   5.438  0.2718 -0.4969 -0.4469
   17MOL   H34614778   3.089   7.325   4.434 -2.7075 -0.3198  0.0882
   17MOL   H34714779   2.888   7.478   4.483  1.2325  0.7012  2.2268
   17MOL   H34814780   3.163   7.813   4.539 -1.5021  0.0670 -1.8005
   17MOL   H34914781   3.353   7.656   4.487 -0.1009 -1.1069  0.1173
   17MOL   H35014782   2.832   7.926   4.767 -0.3950 -0.0724 -0.2991
   17MOL   H35114783   2.773   7.888   5.010 -0.0989  0.2291 -1.2515
   17MOL   H35214784   2.830   7.464   4.950  0.8896 -0.2456 -0.6133
   17MOL   H35314785   2.857   7.493   4.722  0.4625 -1.3488  2.4544
   17MOL   H35414786   2.822   7.515   5.360  1.3450 -3.9366  1.3519
   17MOL   H35514787   2.747   7.290   5.415  2.4395 -0.3518 -1.2965
   17MOL   H35614788   2.462   7.312   5.097  1.1757 -0.0610 -1.3696
   17MOL   H35714789   2.538   7.520   5.035  1.3478  3.4611  0.9097
   17MOL   H35814790   2.528   7.205   5.512  0.4747  0.7952 -1.0738
   17MOL   H35914791   2.441   6.995   5.595  0.6570 -0.7153 -0.1605
   17MOL   H36014792   2.442   6.839   5.193  0.5705 -1.0661  0.2451
   17MOL   H36114793   2.521   7.060   5.110 -1.2448 -0.8079 -0.2411
   17MOL   C36214794   2.296   6.770   5.539  0.4856 -0.4395  0.1852
   17MOL   C36314795   2.175   6.838   5.512 -0.5169  0.1075  0.5638
   17MOL   C36414796   2.086   6.856   5.621 -0.2033  0.2910  0.0186
   17MOL   C36514797   2.131   6.818   5.750 -0.3062  0.7066  0.2490
   17MOL   C36614798   2.252   6.749   5.773 -0.4908  0.0148  0.9016
   17MOL   C36714799   2.337   6.728   5.662 -0.6262  0.8843 -0.0220
   17MOL   S36814800   2.034   6.875   5.894 -0.2894  0.1219  0.1856
   17MOL   O36914801   2.056   6.793   6.018 -0.0213  0.5172  0.0949
   17MOL   O37014802   1.895   6.893   5.850  0.0886  0.0105  0.0643
   17MOL   C37114803   2.098   7.036   5.940 -0.2365  0.2339  0.4334
   17MOL   C37214804   2.125   7.125   5.836 -0.0181  0.0288 -1.0293
   17MOL   C37314805   2.194   7.247   5.859 -0.2783 -0.2826  0.2550
   17MOL   C37414806   2.243   7.268   5.991 -0.6394  0.5741 -0.0466
   17MOL   C37514807   2.210   7.177   6.093  1.2229 -0.7362 -0.1327
   17MOL   C37614808   2.146   7.060   6.069  0.6123 -0.0502 -0.9281
   17MOL   O37714809   2.296   7.387   6.032  0.5552 -0.1492  0.9244
   17MOL   C37814810   2.403   7.442   5.964  0.0291  0.5791  0.0559
   17MOL   C37914811   2.509   7.362   5.919 -1.4431 -0.2402 -0.2575
   17MOL   C38014812   2.613   7.429   5.842  0.1864  0.3748 -0.2516
   17MOL   C38114813   2.604   7.570   5.810 -0.4388  0.6006 -0.1295
   17MOL   C38214814   2.492   7.640   5.850  0.4413 -0.6316  0.0362
   17MOL   C38314815   2.392   7.576   5.932 -0.1905 -0.1786  0.0489
   17MOL   C38414816   2.721   7.643   5.748  0.4013 -0.5201  0.7257
   17MOL   C38514817   2.759   7.771   5.779 -0.4002  0.0077 -0.0128
   17MOL   C38614818   2.882   7.824   5.736 -0.5172 -1.1712 -0.1401
   17MOL   C38714819   2.967   7.749   5.651  0.3284 -0.6082  0.3696
   17MOL   C38814820   2.927   7.621   5.609 -0.4443 -0.0334 -0.2675
   17MOL   C38914821   2.802   7.573   5.659 -0.4686 -0.7411 -0.3208
   17MOL   O39014822   3.088   7.804   5.615  0.3335 -0.2942  0.1264
   17MOL   H39114823   2.149   6.875   5.414 -1.3567  1.1470  1.1715
   17MOL   H39214824   2.003   6.924   5.609 -0.4834  0.2176  1.4616
   17MOL   H39314825   2.288   6.720   5.871 -0.0288 -0.0988  0.6988
   17MOL   H39414826   2.420   6.659   5.673 -1.1717  0.3085  0.5923
   17MOL   H39514827   2.104   7.103   5.732 -1.1809 -1.5748 -0.4699
   17MOL   H39614828   2.225   7.315   5.781 -1.4363  0.7620  0.6809
   17MOL   H39714829   2.253   7.211   6.186 -0.3604  0.6891  0.1043
   17MOL   H39814830   2.131   6.982   6.143  2.4128  0.2573 -0.2054
   17MOL   H39914831   2.520   7.255   5.924 -0.3463 -0.0464  1.7521
   17MOL   H40014832   2.700   7.382   5.798  1.2609  2.6204 -0.6583
   17MOL   H40114833   2.483   7.747   5.844 -0.3276 -0.7355 -0.9339
   17MOL   H40214834   2.305   7.635   5.958  2.2956  3.8120 -0.2265
   17MOL   H40314835   2.705   7.833   5.848 -1.7488  2.2632 -2.9540
   17MOL   H40414836   2.913   7.911   5.791 -1.1211  0.1163 -1.7959
   17MOL   H40514837   2.982   7.567   5.533  0.7272 -0.3891  0.8141
   17MOL   H40614838   2.772   7.478   5.618  1.5099 -1.9037  0.8334
   17MOL   C40714839   3.107   7.864   5.496 -0.2115 -0.2590  0.0924
   17MOL   C40814840   3.054   7.813   5.375  0.8588  0.1690  0.5612
   17MOL   C40914841   3.077   7.881   5.252 -0.3116  0.3127  0.3901
   17MOL   C41014842   3.166   7.990   5.251  0.5044  0.4613 -0.1793
   17MOL   C41114843   3.233   8.033   5.368  0.4623  0.1247  0.1743
   17MOL   C41214844   3.191   7.978   5.489  0.7502  0.0354 -0.7834
   17MOL   S41314845   3.198   8.077   5.102  0.1810  0.2369  0.1894
   17MOL   O41414846   3.243   8.216   5.127 -0.2628  0.4398 -0.7875
   17MOL   O41514847   3.081   8.051   5.015  0.5593  0.2931 -0.4215
   17MOL   C41614848   3.331   7.998   5.016  0.2262 -0.1261  0.1842
   17MOL   C41714849   3.455   7.974   5.083  0.0742 -0.0497 -0.5785
   17MOL   C41814850   3.556   7.900   5.018  0.0156 -0.6188  0.0219
   17MOL   C41914851   3.536   7.849   4.890 -0.2232 -1.2968  0.6042
   17MOL   C42014852   3.414   7.875   4.825  0.3112  0.5558  0.8409
   17MOL   C42114853   3.311   7.953   4.887 -0.0522  0.1259 -1.0756
   17MOL   O42214854   3.631   7.769   4.832  0.1629 -0.4788 -0.5118
   17MOL   C42314855   3.650   7.769   4.695 -0.2466 -0.3885 -0.1679
   17MOL   C42414856   3.622   7.657   4.628  0.6544  0.4525  0.4796
   17MOL   C42514857   3.623   7.659   4.488  0.8972 -0.6041 -0.5291
   17MOL   C42614858   3.653   7.777   4.414  0.1916 -0.0615 -0.7164
   17MOL   C42714859   3.711   7.883   4.483 -0.9554  0.2707 -0.2032
   17MOL   C42814860   3.702   7.884   4.629  0.5294 -0.5771 -0.3772
   17MOL   C42914861   3.627   7.770   4.274 -0.4353  0.7174  0.2000
   17MOL   C43014862   3.495   7.753   4.213  0.9175 -0.7188  0.5555
   17MOL   C43114863   3.478   7.729   4.076  0.1410 -0.0489  0.1441
   17MOL   C43214864   3.591   7.714   3.990  0.2432  0.2151 -0.2710
   17MOL   C43314865   3.716   7.735   4.053  0.0778  0.7101  0.5638
   17MOL   C43414866   3.733   7.766   4.185 -0.2197  0.5928 -0.0578
   17MOL   O43514867   3.563   7.686   3.858 -0.3425 -0.5257  0.1138
   17MOL   H43614868   2.978   7.737   5.378  1.7141 -0.7599 -0.7946
   17MOL   H43714869   3.031   7.834   5.167  1.3682 -1.2426  0.2986
   17MOL   H43814870   3.300   8.117   5.363 -0.5593  0.9092 -0.8496
   17MOL   H43914871   3.238   8.016   5.579 -0.8156  1.3382 -0.4978
   17MOL   H44014872   3.479   8.026   5.174  2.9600  0.5108 -1.6163
   17MOL   H44114873   3.651   7.885   5.068 -0.6956 -1.4900  1.1337
   17MOL   H44214874   3.390   7.833   4.729  1.6324  1.4952  0.0877
   17MOL   H44314875   3.217   7.961   4.834 -1.5133 -0.0729  1.4097
   17MOL   H44414876   3.592   7.571   4.686  1.4471 -0.0832  0.1100
   17MOL   H44514877   3.595   7.567   4.438  0.3119 -0.4235 -0.5237
   17MOL   H44614878   3.768   7.964   4.439  0.3009 -0.6867 -0.3586
   17MOL   H44714879   3.741   7.973   4.676 -0.2757 -0.0972 -0.6117
   17MOL   H44814880   3.409   7.764   4.277  1.5354  1.0293  1.1022
   17MOL   H44914881   3.380   7.713   4.035  0.9334 -1.6141 -1.1837
   17MOL   H45014882   3.800   7.720   3.987 -0.8235 -0.4284 -0.3656
   17MOL   H45114883   3.830   7.792   4.226 -0.8731  1.0981  1.2050
   17MOL   C45214884   3.652   7.723   3.767  0.4022 -0.0027 -0.1126
   17MOL   C45314885   3.672   7.633   3.656  0.6741  0.1203 -0.1395
   17MOL   C45414886   3.762   7.670   3.553 -0.4150  0.0656 -0.2578
   17MOL   C45514887   3.839   7.790   3.564 -0.4352 -0.4709  0.8656
   17MOL   C45614888   3.819   7.876   3.671  0.1471  0.0824 -0.4233
   17MOL   C45714889   3.727   7.843   3.774 -0.2732  0.7680 -0.0037
   17MOL   S45814890   3.971   7.833   3.454 -0.2649  0.3515  0.2242
   17MOL   O45914891   3.987   7.724   3.356  0.0983  0.2098 -0.1431
   17MOL   O46014892   4.093   7.855   3.537  0.3486  0.3956  0.0845
   17MOL   C46114893   3.924   7.988   3.371 -0.5095 -0.1818 -0.4473
   17MOL   C46214894   3.868   7.992   3.239 -0.8001 -0.2849  0.3092
   17MOL   C46314895   3.825   8.114   3.188  0.5702  0.4634  0.0548
   17MOL   C46414896   3.830   8.228   3.265 -0.1967  0.6074 -0.5249
   17MOL   C46514897   3.892   8.227   3.390  0.1523 -0.3903  1.2136
   17MOL   C46614898   3.936   8.107   3.446 -0.7798 -0.0160  0.2709
   17MOL   O46714899   3.812   8.347   3.201  0.5351 -0.3926 -0.1925
   17MOL   C46814900   3.698   0.048   3.220  0.3724 -0.3143 -0.5023
   17MOL   C46914901   3.599   0.041   3.116 -0.0295  0.3084  0.6864
   17MOL   C47014902   3.477   0.119   3.126 -0.6075  0.2200  0.0294
   17MOL   C47114903   3.455   0.198   3.242  0.3704  0.5591 -0.3042
   17MOL   C47214904   3.546   0.189   3.348 -0.7412 -0.0824 -0.3221
   17MOL   C47314905   3.664   0.114   3.340  0.3754 -0.3455 -0.2826
   17MOL   C47414906   3.339   0.282   3.260  0.4646 -0.2703  0.6793
   17MOL   C47514907   3.260   0.278   3.382 -0.6264 -0.4497 -0.8390
   17MOL   C47614908   3.154   0.371   3.394  0.2582  0.3090  0.0423
   17MOL   C47714909   3.131   0.471   3.300 -0.1877 -0.5271  0.7887
   17MOL   C47814910   3.207   0.467   3.180 -0.2752 -0.1788 -0.0118
   17MOL   C47914911   3.308   0.372   3.162 -0.2046 -0.7184  0.2605
   17MOL   O48014912   3.031   0.562   3.341 -0.5943  0.1550 -0.2987
   17MOL   H48114913   3.623   7.537   3.654  0.7501  0.0963 -1.7030
   17MOL   H48214914   3.786   7.603   3.472 -0.5069 -0.7401  0.3827
   17MOL   H48314915   3.877   7.966   3.684  0.9817 -0.5746  0.4399
   17MOL   H48414916   3.710   7.920   3.848  1.1970  2.1957 -1.1215
   17MOL   H48514917   3.857   7.900   3.185  0.9656 -0.0571 -0.4828
   17MOL   H48614918   3.787   8.121   3.087 -2.8078  1.6185  1.3542
   17MOL   H48714919   3.904   8.324   3.436  1.3569  1.2715 -2.3821
   17MOL   H48814920   3.989   8.111   3.540 -0.6253 -1.8684  0.2784
   17MOL   H48914921   3.604   8.341   3.031 -1.0159 -0.5214  1.2645
   17MOL   H49014922   3.407   0.124   3.044  1.7911 -2.2340 -2.2753
   17MOL   H49114923   3.531   0.241   3.441 -2.4020 -2.2949  0.7063
   17MOL   H49214924   3.734   0.108   3.422  0.4784  0.0088 -0.3420
   17MOL   H49314925   3.297   0.210   3.457  1.4145 -0.7313 -2.0745
   17MOL   H49414926   3.097   0.352   3.483 -1.6743  0.6903 -1.0676
   17MOL   H49514927   3.180   0.532   3.098 -0.2591  0.9932  0.8789
   17MOL   H49614928   3.356   0.371   3.066  1.3687 -0.8062  1.0277
   17MOL   C49714929   2.916   0.578   3.258 -0.2549 -0.2422 -0.6078
   17MOL   C49814930   2.868   0.468   3.193  0.3902  0.3738  0.3817
   17MOL   C49914931   2.757   0.465   3.111  0.2087  0.5413  0.1474
   17MOL   C50014932   2.685   0.589   3.095  0.2893 -0.4355 -0.3336
   17MOL   C50114933   2.727   0.708   3.162 -0.0774 -0.2397 -0.0750
   17MOL   C50214934   2.846   0.702   3.242  0.3731  0.1789 -0.2859
   17MOL   S50314935   2.561   0.602   2.968  0.3676 -0.1248 -0.0365
   17MOL   O50414936   2.483   0.725   2.985  0.2573 -0.3431 -0.0047
   17MOL   O50514937   2.489   0.474   2.951 -0.4625 -0.6501 -0.1246
   17MOL   C50614938   2.654   0.639   2.823  0.2869 -0.2033 -0.4075
   17MOL   C50714939   2.790   0.678   2.823 -0.1943  0.0023  0.0493
   17MOL   C50814940   2.855   0.722   2.705 -0.0421  0.4246 -0.4708
   17MOL   C50914941   2.785   0.718   2.581  0.4362 -0.0486  0.0838
   17MOL   C51014942   2.649   0.677   2.587 -0.2927  0.4574  0.4152
   17MOL   C51114943   2.586   0.632   2.700 -0.1342  0.3525 -0.0522
   17MOL   O51214944   2.846   0.772   2.474 -0.1611  0.8859  0.1013
   17MOL   C51314945   2.883   0.698   2.365  0.3804  0.6006 -0.7017
   17MOL   C51414946   2.980   0.589   2.370  0.5758  0.3908 -0.2892
   17MOL   C51514947   3.034   0.533   2.255  0.2936  0.2549  0.9649
   17MOL   C51614948   2.977   0.569   2.129 -0.7305  0.5137  0.7607
   17MOL   C51714949   2.890   0.677   2.119  0.2124  0.4351 -0.3672
   17MOL   C51814950   2.844   0.749   2.240  0.0690  0.8200  0.0438
   17MOL   C51914951   3.041   0.508   2.020 -0.1726 -0.0051  0.3972
   17MOL   C52014952   3.057   0.371   2.014  0.3166  0.6630  0.5064
   17MOL   C52114953   3.125   0.313   1.906  0.4855 -0.1228 -0.4237
   17MOL   C52214954   3.188   0.396   1.811  0.2409 -0.1770  0.3891
   17MOL   C52314955   3.197   0.538   1.832 -0.5254  0.0914  0.9446
   17MOL   C52414956   3.106   0.590   1.931  0.0287 -0.2058  0.4551
   17MOL   O52514957   3.256   0.337   1.704  0.2242 -0.7827 -0.4135
   17MOL   H52614958   2.917   0.372   3.199 -0.8027 -0.3823 -1.5498
   17MOL   H52714959   2.724   0.374   3.062  0.6291  0.9555 -0.9183
   17MOL   H52814960   2.667   0.798   3.161 -1.2773 -1.0003  1.2554
   17MOL   H52914961   2.894   0.788   3.285  1.4578 -1.2944  1.5385
   17MOL   H53014962   2.839   0.677   2.919 -1.5790 -0.3004  0.7702
   17MOL   H53114963   2.948   0.775   2.716 -0.3083  0.9006 -0.4573
   17MOL   H53214964   2.586   0.671   2.500 -0.7266 -0.9917  0.8179
   17MOL   H53314965   2.482   0.607   2.699 -0.1276  0.3329 -0.5435
   17MOL   H53414966   3.021   0.551   2.462  0.7618 -2.6695 -1.5751
   17MOL   H53514967   3.111   0.457   2.259 -1.1169 -1.3054 -0.7604
   17MOL   H53614968   2.856   0.701   2.019 -1.7525 -1.0851 -0.1056
   17MOL   H53714969   2.768   0.825   2.228 -0.4653  0.4141  0.8231
   17MOL   H53814970   3.010   0.309   2.088 -0.6395  1.6009  0.6947
   17MOL   H53914971   3.135   0.206   1.896 -0.5372 -0.3309  0.6992
   17MOL   H54014972   3.243   0.609   1.765  0.3381 -1.8042 -0.5356
   17MOL   H54114973   3.089   0.696   1.929 -2.2355 -0.5793 -1.6599
   17MOL   C54214974   3.374   0.389   1.663  0.4689 -0.5906 -0.5564
   17MOL   C54314975   3.386   0.428   1.528  0.1704 -1.2981 -0.3037
   17MOL   C54414976   3.503   0.490   1.477 -0.0077  0.2255  0.3066
   17MOL   C54514977   3.616   0.499   1.561  0.3441 -0.5707 -0.2184
   17MOL   C54614978   3.602   0.462   1.700 -0.0091 -0.0344 -0.4362
   17MOL   C54714979   3.483   0.407   1.754  0.0370 -0.8673  0.3436
   17MOL   S54814980   3.751   0.589   1.481 -0.2880 -0.0449  0.1501
   17MOL   O54914981   3.725   0.731   1.493  0.0369  0.2986  0.9768
   17MOL   O55014982   3.769   0.529   1.347 -0.4027 -0.3086 -0.4781
   17MOL   C55114983   3.883   0.542   1.593  0.3769 -0.3129  0.6310
   17MOL   C55214984   3.962   0.638   1.649 -0.2512  0.4776  0.7024
   17MOL   C55314985   4.072   0.608   1.734  0.8203 -0.0705 -0.3802
   17MOL   C55414986   4.098   0.473   1.769 -0.5262 -0.3459  1.1391
   17MOL   C55514987   4.020   0.372   1.708 -0.3361  0.2839  0.1923
   17MOL   C55614988   3.914   0.406   1.619  0.1216  0.8571 -0.5677
   17MOL   O55714989   4.200   0.444   1.861 -0.0118 -0.1556  0.3243
   17MOL   C55814990   4.195   0.470   1.995  0.6281 -0.7299  0.7173
   17MOL   C55914991   4.071   0.482   2.061  0.4000 -0.1724  0.2039
   17MOL   C56014992   4.069   0.523   2.193  0.8837 -0.0865  0.4350
   17MOL   C56114993   4.190   0.538   2.271  0.0355  0.0842  0.2688
   17MOL   C56214994   4.313   0.519   2.200 -1.0845 -0.3892  0.4332
   17MOL   C56314995   4.311   0.492   2.064 -0.0517 -0.0766  0.4112
   17MOL   C56414996   4.184   0.580   2.410 -0.3479  0.1215  1.2131
   17MOL   C56514997   4.262   0.527   2.510  0.0506 -0.6818 -0.2668
   17MOL   C56614998   4.245   0.556   2.645 -0.0394 -0.2237 -0.2139
   17MOL   C56714999   4.156   0.660   2.680 -0.6184 -0.0730  0.1208
   17MOL   C56815000   4.075   0.712   2.581  0.8216  0.0314 -0.4053
   17MOL   C56915001   4.087   0.677   2.449 -0.0715 -0.3487  0.0184
   17MOL   O57015002   4.155   0.707   2.808 -0.5151  0.0826 -0.0784
   17MOL   H57115003   3.297   0.434   1.466  0.6036 -2.3675 -1.0340
   17MOL   H57215004   3.507   0.515   1.372 -2.4693  0.6775  0.2916
   17MOL   H57315005   3.679   0.487   1.772  0.2985  0.9479 -1.0889
   17MOL   H57415006   3.472   0.373   1.856  1.5713  0.1436  0.8573
   17MOL   H57515007   3.944   0.744   1.635 -1.8827  0.0004 -1.0255
   17MOL   H57615008   4.116   0.682   1.799 -1.7380 -0.1945  1.5415
   17MOL   H57715009   4.036   0.271   1.744  4.3213  0.7618 -0.2482
   17MOL   H57815010   3.848   0.340   1.565  1.5089 -1.6342  0.6771
   17MOL   H57915011   3.973   0.469   2.018  1.2931  1.2729 -2.3978
   17MOL   H58015012   3.972   0.534   2.240  0.6376 -0.2395 -0.0418
   17MOL   H58115013   4.403   0.547   2.253 -0.0496 -0.5950 -1.1968
   17MOL   H58215014   4.405   0.476   2.012 -0.9928 -1.9650 -0.7540
   17MOL   H58315015   4.317   0.436   2.489 -0.1491 -1.5133  2.5256
   17MOL   H58415016   4.311   0.511   2.718 -1.9086  0.0685  1.7340
   17MOL   H58515017   4.004   0.787   2.612  1.4565 -0.6003  2.7432
   17MOL   H58615018   4.005   0.714   2.390  0.9267  1.0957 -0.4925
   17MOL   C58715019   4.069   0.649   2.894 -0.6542  0.4716  0.0057
   17MOL   C58815020   3.935   0.627   2.857 -0.0397 -0.0372 -0.6387
   17MOL   C58915021   3.848   0.555   2.949 -1.2035  0.2332 -0.2199
   17MOL   C59015022   3.892   0.513   3.076 -0.3951 -0.6610  0.8762
   17MOL   C59115023   4.023   0.541   3.110 -0.6548 -0.0763 -0.1619
   17MOL   C59215024   4.113   0.612   3.023  0.7971  0.2504 -0.2957
   17MOL   S59315025   3.785   0.421   3.176  0.1415  0.2903  0.1602
   17MOL   O59415026   3.850   0.369   3.296 -0.2397 -0.1636 -0.3396
   17MOL   O59515027   3.721   0.326   3.088 -0.3480 -0.0132 -0.1359
   17MOL   C59615028   3.663   0.542   3.236 -0.2823 -0.7040  0.2442
   17MOL   C59715029   3.675   0.591   3.372 -0.0268 -0.2047  0.1318
   17MOL   C59815030   3.591   0.698   3.407 -0.0989 -0.3240 -0.0035
   17MOL   C59915031   3.493   0.745   3.313 -0.4090 -0.3215 -0.2964
   17MOL   C60015032   3.481   0.689   3.178 -0.6023  0.3820 -0.1872
   17MOL   C60115033   3.574   0.590   3.140 -0.2027  0.4932 -0.3183
   17MOL   O60215034   3.411   0.845   3.357  0.0152 -0.4157 -0.4934
   17MOL   C60315035   3.469   0.960   3.406 -0.3456  0.7135 -0.7946
   17MOL   C60415036   3.520   1.055   3.318  0.4566 -0.5645  0.3031
   17MOL   C60515037   3.575   1.171   3.367 -0.9531 -0.7889 -0.3257
   17MOL   C60615038   3.569   1.217   3.499  0.0050 -0.6774  0.2848
   17MOL   C60715039   3.513   1.128   3.594 -0.2739 -0.0303  0.2256
   17MOL   C60815040   3.468   1.003   3.543  0.1447  0.4382  0.4313
   17MOL   C60915041   3.607   1.359   3.530 -0.2752 -0.3545 -0.0028
   17MOL   C61015042   3.537   1.430   3.632 -0.9721  0.1633 -0.5491
   17MOL   C61115043   3.575   1.564   3.666  0.1804  0.4184 -0.5110
   17MOL   C61215044   3.686   1.621   3.591  0.0675  0.0611  0.2123
   17MOL   C61315045   3.751   1.556   3.484 -0.4562  0.5605  0.1912
   17MOL   C61415046   3.704   1.424   3.450  0.8467 -0.6035  0.5010
   17MOL   O61515047   3.721   1.752   3.616 -0.0821  0.0631 -0.0234
   17MOL   H61615048   3.898   0.637   2.757  1.4119  0.4813 -1.1361
   17MOL   H61715049   3.749   0.532   2.912 -0.9556 -1.1296 -0.0413
   17MOL   H61815050   4.052   0.509   3.209  1.9454  0.0618 -0.8601
   17MOL   H61915051   4.213   0.641   3.052 -0.2216  2.9483  0.7395
   17MOL   H62015052   3.760   0.558   3.431  0.0201 -1.4641 -0.6227
   17MOL   H62115053   3.606   0.741   3.506 -0.2968  0.5053 -0.3306
   17MOL   H62215054   3.413   0.737   3.109 -0.5344 -1.2467 -1.4164
   17MOL   H62315055   3.582   0.552   3.039  1.8165  0.5978 -0.2104
   17MOL   H62415056   3.522   1.038   3.211  1.3807 -0.4685  0.3022
   17MOL   H62515057   3.618   1.242   3.298 -1.3477 -0.7085 -0.4910
   17MOL   H62615058   3.509   1.149   3.700  0.9677  1.1743  0.0487
   17MOL   H62715059   3.423   0.938   3.616  0.4455 -0.0916  0.1441
   17MOL   H62815060   3.475   1.376   3.703  0.0705  1.4015  1.3509
   17MOL   H62915061   3.521   1.614   3.745  0.6241 -1.3032  0.8963
   17MOL   H63015062   3.828   1.604   3.426 -0.6320 -2.7566 -2.9873
   17MOL   H63115063   3.759   1.360   3.382  0.7137  0.7165 -0.8750
   17MOL   C63215064   3.776   1.777   3.743 -0.7129  0.0886 -0.2798
   17MOL   C63315065   3.915   1.755   3.766 -0.6701  0.2208 -0.4181
   17MOL   C63415066   3.969   1.764   3.891  0.1478 -0.6536  0.1890
   17MOL   C63515067   3.885   1.812   3.995 -0.0255  0.2510  0.2590
   17MOL   C63615068   3.753   1.853   3.975  0.6353  0.3051  1.0384
   17MOL   C63715069   3.691   1.821   3.847 -0.1361  0.3565  0.4007
   17MOL   S63815070   3.967   1.850   4.149  0.1952 -0.1283  0.3547
   17MOL   O63915071   4.047   1.733   4.184 -0.3018  0.0667  0.3607
   17MOL   O64015072   3.871   1.907   4.244 -0.2068 -1.0622  0.1703
   17MOL   C64115073   4.083   1.980   4.100 -0.6650 -0.5093 -0.4369
   17MOL   C64215074   4.204   1.986   4.172  0.4109  0.4468 -0.4320
   17MOL   C64315075   4.309   2.066   4.126  0.4157  0.4439 -0.3955
   17MOL   C64415076   4.295   2.150   4.012  0.5519  0.2742  0.3521
   17MOL   C64515077   4.173   2.136   3.934 -0.1556  0.3362  0.0281
   17MOL   C64615078   4.064   2.057   3.984  0.1563  0.4756  1.0490
   17MOL   O64715079   4.397   2.223   3.949 -0.2954 -0.1930 -0.1528
   17MOL   C64815080   4.511   2.246   4.017  0.2120  0.5375  0.1013
   17MOL   C64915081   4.603   2.145   4.034  0.0204 -0.3935  0.0569
   17MOL   C65015082   4.720   2.175   4.106 -0.1019 -0.2858  0.0833
   17MOL   C65115083   4.742   2.304   4.172 -0.2599  0.4285  0.8099
   17MOL   C65215084   4.650   2.403   4.149 -0.5169  0.9533  0.3716
   17MOL   C65315085   4.531   2.371   4.077  1.3810  0.1294  0.0933
   17MOL   C65415086   4.864   2.332   4.261  0.3129 -0.0312  0.1311
   17MOL   C65515087   4.916   2.462   4.273 -1.0942  0.4911 -0.6034
   17MOL   C65615088   5.041   2.480   4.341  0.1865 -0.5577  0.3051
   17MOL   C65715089   5.099   2.372   4.406 -0.2756  0.2934  0.2399
   17MOL   C65815090   5.044   2.245   4.395  0.1096  0.1134 -0.8928
   17MOL   C65915091   4.925   2.223   4.329  0.4894  0.5470  0.5470
   17MOL   O66015092   5.220   2.378   4.468  0.5571  0.6109  0.4953
   17MOL   H66115093   3.976   1.713   3.687 -1.2161 -1.7347  0.1890
   17MOL   H66215094   4.073   1.742   3.911  0.5044  2.1078  1.5808
   17MOL   H66315095   3.681   1.883   4.050  0.9503 -1.7830  2.2049
   17MOL   H66415096   3.587   1.835   3.825 -0.3798 -1.1217  0.5595
   17MOL   H66515097   4.214   1.922   4.259 -1.1884 -0.5476 -0.9662
   17MOL   H66615098   4.392   2.076   4.195  1.0851 -2.9787 -0.6482
   17MOL   H66715099   4.163   2.185   3.838  0.5427  0.3435 -0.0407
   17MOL   H66815100   3.982   2.034   3.919  1.9000  1.8067 -1.6954
   17MOL   H66915101   4.588   2.047   3.991 -0.3685 -0.1156 -0.4372
   17MOL   H67015102   4.788   2.095   4.129 -0.3311 -0.1040  1.4594
   17MOL   H67115103   4.650   2.500   4.195 -0.0167  0.5090  1.3382
   17MOL   H67215104   4.456   2.449   4.072  0.4278 -0.8097 -0.2113
   17MOL   H67315105   4.862   2.545   4.231  0.4178  0.8131 -1.9630
   17MOL   H67415106   5.088   2.577   4.341 -1.4251  0.2380  1.3926
   17MOL   H67515107   5.076   2.162   4.457 -0.9307  0.2930 -0.0930
   17MOL   H67615108   4.877   2.127   4.320  0.4675  0.5213  0.9691
   17MOL   C67715109   5.328   2.417   4.395 -0.5230  0.4105 -0.0139
   17MOL   C67815110   5.425   2.500   4.454  0.6844 -0.5202 -0.7018
   17MOL   C67915111   5.535   2.540   4.375  0.0641 -0.2320 -0.1915
   17MOL   C68015112   5.555   2.480   4.249 -0.4042  0.2385 -0.3039
   17MOL   C68115113   5.468   2.390   4.192  0.3870 -0.9560  0.6928
   17MOL   C68215114   5.353   2.359   4.269 -0.1806  0.0658  0.1997
   17MOL   S68315115   5.689   2.528   4.150 -0.1598 -0.0496  0.3916
   17MOL   O68415116   5.757   2.636   4.220 -0.2353  0.2385 -0.1960
   17MOL   O68515117   5.658   2.541   4.009 -0.1691 -0.5737  0.1502
   17MOL   C68615118   5.802   2.393   4.166 -0.0054  0.5705 -1.2499
   17MOL   C68715119   5.808   2.316   4.286 -0.6380  0.1579 -0.4557
   17MOL   C68815120   5.903   2.211   4.285  0.2568 -0.1642 -0.8253
   17MOL   C68915121   5.991   2.191   4.180  0.3716 -0.9519 -0.3597
   17MOL   C69015122   5.977   2.260   4.056 -0.6071  0.5474 -0.8933
   17MOL   C69115123   5.886   2.372   4.054 -0.2798  0.3302 -0.0662
   17MOL   O69215124   6.087   2.099   4.190 -0.1341 -0.4909  0.3170
   17MOL   C69315125   6.213   2.137   4.233  0.3577  0.0142 -0.6672
   17MOL   C69415126   6.320   2.044   4.219  0.3647  0.2563 -0.1874
   17MOL   C69515127   6.453   2.076   4.254 -0.6025  0.3206  0.1020
   17MOL   C69615128   6.480   2.205   4.320 -1.0353 -0.2520 -0.3538
   17MOL   C69715129   6.374   2.298   4.343 -0.0918 -0.4094 -1.4155
   17MOL   C69815130   6.244   2.262   4.299  0.5374  0.1598  0.6474
   17MOL   C69915131   6.619   2.244   4.366  0.6738  0.6265  1.3370
   17MOL   C70015132   6.720   2.222   4.271 -0.2793 -0.0192 -0.6127
   17MOL   C70115133   6.849   2.266   4.301  0.1009  0.0973 -0.0008
   17MOL   C70215134   6.882   2.331   4.420  0.4775  0.2363 -0.1295
   17MOL   C70315135   6.781   2.355   4.513  0.7090 -0.1279  0.7652
   17MOL   C70415136   6.650   2.316   4.484  0.3459 -0.6776  0.3401
   17MOL   O70515137   7.010   2.380   4.441  0.2149  0.2819 -0.1068
   17MOL   H70615138   5.416   2.536   4.555 -1.4102  1.6366 -1.6006
   17MOL   H70715139   5.619   2.595   4.414 -0.0910  0.2887 -0.5941
   17MOL   H70815140   5.480   2.338   4.098 -1.7913 -3.2197  1.6183
   17MOL   H70915141   5.282   2.285   4.238  0.7303  0.5392 -3.2030
   17MOL   H71015142   5.740   2.324   4.370  0.1124 -0.0121  0.1689
   17MOL   H71115143   5.910   2.137   4.363 -0.2729 -0.3831 -0.9834
   17MOL   H71215144   6.043   2.243   3.972  1.2161  0.7606  0.4566
   17MOL   H71315145   5.882   2.440   3.971  2.5851  0.1578 -0.3933
   17MOL   H71415146   6.306   1.947   4.173  0.2587  1.1774 -2.1655
   17MOL   H71515147   6.533   2.007   4.232 -1.1806 -0.4946  0.5344
   17MOL   H71615148   6.396   2.391   4.393  1.0444 -2.4977  2.1157
   17MOL   H71715149   6.158   2.323   4.324 -0.5981 -1.4876  0.8403
   17MOL   H71815150   6.699   2.186   4.172  1.3331  1.7001 -1.6049
   17MOL   H71915151   6.927   2.261   4.228 -1.0787 -1.2256 -1.1880
   17MOL   H72015152   6.793   2.401   4.610 -1.2950  1.0318  0.5082
   17MOL   H72115153   6.568   2.347   4.548 -0.8586  1.6792 -2.2458
   17MOL   C72215154   7.111   2.305   4.494 -0.5066 -0.1694  0.0575
   17MOL   C72315155   7.118   2.284   4.635 -0.1105  0.0669  0.1659
   17MOL   C72415156   7.230   2.230   4.695 -0.1754 -0.1497  0.1649
   17MOL   C72515157   7.335   2.185   4.613  0.3098  0.1885  0.0398
   17MOL   C72615158   7.338   2.218   4.478 -0.1083  0.0395  0.2017
   17MOL   C72715159   7.229   2.282   4.417  0.1564  0.2504 -0.6217
   17MOL   S72815160   7.474   2.103   4.704  0.3163  0.3520 -0.7648
   17MOL   O72915161   7.412   2.038   4.819  0.0005  0.2790 -0.7749
   17MOL   O73015162   7.584   2.201   4.720 -0.8109 -0.0826 -0.4840
   17MOL   C73115163   7.542   1.978   4.591  0.2028  0.3675 -0.1856
   17MOL   C73215164   7.479   1.850   4.572  0.5445  0.4463  0.2406
   17MOL   C73315165   7.525   1.761   4.471  0.2166  0.3313 -0.3078
   17MOL   C73415166   7.634   1.802   4.387  0.0082  0.5437 -0.0218
   17MOL   C73515167   7.701   1.924   4.415 -0.2875 -0.3460 -0.8748
   17MOL   C73615168   7.652   2.014   4.507  0.4837 -0.2099 -0.1130
   17MOL   O73715169   7.671   1.731   4.275  0.5922  0.0822  0.4067
   17MOL   C73815170   7.641   1.799   4.163 -0.3550 -0.2107 -0.1023
   17MOL   C73915171   7.753   1.847   4.096  0.1001 -0.6455 -0.0308
   17MOL   C74015172   7.735   1.915   3.971  0.0578 -0.4346 -0.3872
   17MOL   C74115173   7.605   1.943   3.928  0.6667  0.3475 -0.8244
   17MOL   C74215174   7.493   1.896   4.007 -0.3120 -0.3086  0.0165
   17MOL   C74315175   7.505   1.830   4.126  0.1979  0.2457 -0.6091
   17MOL   C74415176   7.593   2.010   3.797  0.2942  0.9178 -0.2966
   17MOL   C74515177   7.663   2.132   3.781  0.3257 -0.1157  0.0584
   17MOL   C74615178   7.655   2.190   3.654 -0.8699 -0.4768 -0.4654
   17MOL   C74715179   7.574   2.145   3.548 -0.4438 -0.0370  0.3717
   17MOL   C74815180   7.498   2.027   3.574  0.5089  0.4746 -0.3193
   17MOL   C74915181   7.507   1.962   3.697 -0.3014 -0.0876  0.4334
   17MOL   O75015182   7.577   2.208   3.428  0.4411 -0.2247  0.1099
   17MOL   H75115183   7.030   2.315   4.688  0.2513  0.3147  0.6283
   17MOL   H75215184   7.236   2.214   4.802  0.3849 -2.0269 -0.1236
   17MOL   H75315185   7.427   2.188   4.424  0.3978 -2.6031  2.3963
   17MOL   H75415186   7.228   2.307   4.312 -1.2389 -0.1724 -0.7245
   17MOL   H75515187   7.395   1.811   4.627  1.6531  0.4817  2.0199
   17MOL   H75615188   7.468   1.672   4.447  0.7119  0.4735 -2.0389
   17MOL   H75715189   7.772   1.965   4.346  1.9312 -3.5560 -0.5973
   17MOL   H75815190   7.689   2.115   4.505  0.4232 -0.1754  0.3346
   17MOL   H75915191   7.857   1.827   4.119  0.0310 -1.7313 -0.6484
   17MOL   H76015192   7.821   1.946   3.913 -0.7636  0.6946 -1.0249
   17MOL   H76115193   7.391   1.909   3.974 -0.1103  0.4172 -0.3381
   17MOL   H76215194   7.423   1.797   4.188  1.5271 -2.0062  0.0025
   17MOL   H76315195   7.713   2.173   3.868 -1.9394 -0.4329  1.5645
   17MOL   H76415196   7.725   2.271   3.645  1.6880 -2.6959 -1.1911
   17MOL   H76515197   7.439   1.975   3.499 -1.1927 -1.5909  2.3502
   17MOL   H76615198   7.447   1.874   3.714  0.5652 -0.6568  0.5910
   17MOL   C76715199   7.646   2.157   3.321 -0.3334 -0.5805 -0.2623
   17MOL   C76815200   7.775   2.106   3.341  0.5624  0.0718  0.2992
   17MOL   C76915201   7.837   2.043   3.225  0.5347  0.1023 -0.3936
   17MOL   C77015202   7.780   2.041   3.097  1.1960  0.3933  0.0542
   17MOL   C77115203   7.647   2.087   3.086  0.3119  0.3345 -0.3994
   17MOL   C77215204   7.581   2.149   3.191  0.9612  0.1455  1.4829
   17MOL   S77315205   7.861   1.969   2.952 -0.1371 -0.0846 -0.2414
   17MOL   O77415206   8.004   1.954   2.990 -0.0785 -0.8839  0.2616
   17MOL   O77515207   7.827   2.047   2.833  0.2326 -0.0041  0.1981
   17MOL   C77615208   7.789   1.802   2.924 -0.4099  0.1253  0.2206
   17MOL   C77715209   7.884   1.696   2.908  0.4869 -1.0254  0.2493
   17MOL   C77815210   7.830   1.564   2.890  0.1875 -0.4971  0.4400
   17MOL   C77915211   7.689   1.544   2.892 -0.9878 -0.5463 -0.2330
   17MOL   C78015212   7.597   1.650   2.898 -0.1493 -0.6113  0.8214
   17MOL   C78115213   7.652   1.780   2.918  0.1655  0.0290  0.4307
   17MOL   O78215214   7.644   1.414   2.874 -0.4012  0.6249 -0.2950
   17MOL   C78315215   7.549   1.405   2.774 -0.5096  0.1313 -0.6284
   17MOL   C78415216   7.565   1.462   2.646 -0.4730  0.1948 -0.2900
   17MOL   C78515217   7.467   1.452   2.546 -0.3045 -0.0255 -0.1376
   17MOL   C78615218   7.350   1.389   2.576 -0.2494 -0.2479  0.3404
   17MOL   C78715219   7.331   1.316   2.694 -0.1688  0.3627 -0.0961
   17MOL   C78815220   7.432   1.326   2.795  0.5997 -0.0261 -0.2556
   17MOL   C78915221   7.243   1.396   2.476 -0.1794  0.9391  0.1341
   17MOL   C79015222   7.108   1.388   2.511  0.2771 -0.0652  0.5899
   17MOL   C79115223   7.000   1.404   2.420 -0.2561 -0.0550 -0.0979
   17MOL   C79215224   7.025   1.431   2.283  0.8932  0.3417  0.0684
   17MOL   C79315225   7.168   1.447   2.245 -0.3707  0.6064 -0.0947
   17MOL   C79415226   7.272   1.414   2.336  0.7269 -0.5683  0.6939
   17MOL   O79515227   6.927   1.466   2.195 -0.1342 -0.0914  0.5561
   17MOL   H79615228   7.827   2.109   3.435  2.3683  0.1229 -0.6698
   17MOL   H79715229   7.939   2.008   3.228  0.0537 -1.3033 -0.1823
   17MOL   H79815230   7.601   2.086   2.988 -4.6814  2.5277  1.7687
   17MOL   H79915231   7.489   2.204   3.180 -0.3767 -2.5193 -1.5504
   17MOL   H80015232   7.990   1.712   2.913  0.3252  0.6669 -1.0817
   17MOL   H80115233   7.894   1.477   2.887  1.7054  0.6468 -2.0693
   17MOL   H80215234   7.489   1.642   2.901 -0.4968  2.6819 -0.8517
   17MOL   H80315235   7.575   1.856   2.919 -0.6345 -0.7491 -0.1504
   17MOL   H80415236   7.661   1.507   2.621  0.5915 -2.1412 -0.5204
   17MOL   H80515237   7.490   1.501   2.453 -1.5420 -0.6466 -0.7743
   17MOL   H80615238   7.242   1.255   2.703  0.6932 -0.9242 -0.2209
   17MOL   H80715239   7.408   1.282   2.891  1.3755  2.0438  0.9219
   17MOL   H80815240   7.070   1.356   2.607 -1.2555  0.7814  0.2795
   17MOL   H80915241   6.900   1.398   2.459  0.0827 -0.7818  0.6937
   17MOL   H81015242   7.193   1.467   2.142  0.8443 -1.9493 -0.3336
   17MOL   H81115243   7.375   1.421   2.303  0.2872  0.9305 -0.4130
   17MOL   C81215244   6.903   1.399   2.077 -0.1287 -0.5226  0.3969
   17MOL   C81315245   6.974   1.422   1.955  0.2421 -0.0331 -0.4346
   17MOL   C81415246   6.940   1.361   1.835 -0.2967  0.1901  0.1941
   17MOL   C81515247   6.827   1.273   1.828  0.0022 -0.0268 -1.1805
   17MOL   C81615248   6.765   1.241   1.950  0.0582 -0.0665  0.0561
   17MOL   C81715249   6.796   1.310   2.067  0.7433  0.2241  0.1511
   17MOL   S81815250   6.747   1.225   1.671  0.3132 -0.2575 -0.2208
   17MOL   O81915251   6.681   1.095   1.693 -0.4262  0.7441 -0.3879
   17MOL   O82015252   6.848   1.242   1.563  0.2432 -0.5536  0.1537
   17MOL   C82115253   6.636   1.356   1.654  0.1297 -0.8759  0.4937
   17MOL   C82215254   6.501   1.339   1.684  0.6024 -0.5739 -0.8709
   17MOL   C82315255   6.412   1.453   1.682 -0.9713 -0.0392  0.1672
   17MOL   C82415256   6.467   1.580   1.654  0.5506  0.4917  0.0450
   17MOL   C82515257   6.602   1.595   1.623 -0.7833  0.0835 -0.4899
   17MOL   C82615258   6.687   1.484   1.625 -0.3938  0.0315 -0.2377
   17MOL   O82715259   6.395   1.696   1.659 -0.0045  0.1486 -0.3198
   17MOL   C82815260   6.445   1.800   1.731 -0.0421 -0.9200 -0.2739
   17MOL   C82915261   6.426   1.927   1.681  0.5338 -0.2465  0.1121
   17MOL   C83015262   6.477   2.042   1.754 -0.3861  0.1197  0.0218
   17MOL   C83115263   6.541   2.024   1.878  0.6194 -0.0185  0.3443
   17MOL   C83215264   6.550   1.890   1.931 -0.2986 -0.4954  0.0380
   17MOL   C83315265   6.497   1.782   1.858 -0.7184 -0.6937  0.6752
   17MOL   C83415266   6.608   2.130   1.954  0.0675  0.5012  0.4225
   17MOL   C83515267   6.619   2.120   2.096 -0.4053  0.1583 -0.0334
   17MOL   C83615268   6.712   2.199   2.174  1.1125  0.3125 -0.3956
   17MOL   C83715269   6.787   2.294   2.104  0.5051  0.0191 -0.0534
   17MOL   C83815270   6.763   2.321   1.968 -0.2428 -0.0950  0.2534
   17MOL   C83915271   6.690   2.229   1.889 -0.2436 -0.3420 -0.1632
   17MOL   O84015272   6.868   2.374   2.180  0.3618 -0.3972 -0.3203
   17MOL   H84115273   7.041   1.507   1.961 -1.3869  1.4807 -2.8377
   17MOL   H84215274   6.982   1.406   1.746 -2.0096 -2.1659 -1.8762
   17MOL   H84315275   6.668   1.193   1.944 -0.7583  1.7885 -3.0755
   17MOL   H84415276   6.725   1.301   2.148 -1.7165 -0.0447 -1.9867
   17MOL   H84515277   6.464   1.240   1.706  2.9405 -1.4261 -0.6776
   17MOL   H84615278   6.305   1.449   1.701 -0.9725 -1.5419 -0.0817
   17MOL   H84715279   6.631   1.695   1.594 -1.2934  0.7785  1.3746
   17MOL   H84815280   6.793   1.487   1.603  0.0064  1.6162  1.7560
   17MOL   H84915281   6.381   1.934   1.583  0.8190 -1.9577 -0.1482
   17MOL   H85015282   6.476   2.136   1.701  0.1813  0.6079  0.8746
   17MOL   H85115283   6.599   1.874   2.026  0.0193 -3.2275 -0.5182
   17MOL   H85215284   6.504   1.680   1.894 -0.8779 -2.1673 -3.2192
   17MOL   H85315285   6.569   2.045   2.155  0.8293  0.5415  1.5268
   17MOL   H85415286   6.727   2.192   2.281  1.0339 -0.6957 -0.4496
   17MOL   H85515287   6.819   2.401   1.923 -1.8726  0.5402 -0.6977
   17MOL   H85615288   6.681   2.234   1.782 -1.1065 -0.0407 -0.0825
   17MOL   C85715289   6.991   2.319   2.202  0.3341 -0.4084  0.1499
   17MOL   C85815290   7.026   2.248   2.318 -0.1257  0.2580  0.3032
   17MOL   C85915291   7.150   2.181   2.321  0.5196 -0.7202 -0.2424
   17MOL   C86015292   7.242   2.194   2.216  0.2751  0.4799 -0.5457
   17MOL   C86115293   7.214   2.278   2.105 -0.5766 -0.0770 -0.3259
   17MOL   C86215294   7.084   2.341   2.105 -0.1162 -0.5759 -0.5932
   17MOL   S86315295   7.397   2.098   2.213 -0.0209 -0.0650  0.3587
   17MOL   O86415296   7.507   2.182   2.264 -0.2915 -0.3467 -0.6325
   17MOL   O86515297   7.405   2.028   2.082  0.3474 -0.0747  0.2253
   17MOL   C86615298   7.381   1.968   2.330 -0.1671  0.5028  0.2035
   17MOL   C86715299   7.465   1.968   2.447 -0.0599 -0.5016 -0.5781
   17MOL   C86815300   7.441   1.871   2.548  0.1064  0.3509 -0.6783
   17MOL   C86915301   7.325   1.786   2.543 -0.5101 -0.4203 -0.5364
   17MOL   C87015302   7.237   1.803   2.436 -0.5267  0.2065 -0.4907
   17MOL   C87115303   7.263   1.888   2.328  0.1394 -0.0765 -0.0637
   17MOL   O87215304   7.295   1.692   2.637  0.2546  0.4497  0.7724
   17MOL   C87315305   7.216   1.723   2.741 -0.4903 -0.1376  0.2620
   17MOL   C87415306   7.095   1.663   2.768 -0.0955 -0.0493  0.2857
   17MOL   C87515307   7.012   1.685   2.879  0.0394  0.3214  0.3954
   17MOL   C87615308   7.050   1.779   2.976  0.7230 -0.6921  0.3365
   17MOL   C87715309   7.179   1.847   2.957 -0.0500  0.3675 -0.3845
   17MOL   C87815310   7.258   1.814   2.844 -0.0092 -0.0152 -0.5602
   17MOL   C87915311   6.956   1.798   3.091  0.0514  0.2812 -0.6133
   17MOL   C88015312   6.887   1.683   3.147  0.5421  0.9608 -0.5389
   17MOL   C88115313   6.787   1.708   3.249  0.0379  0.1454 -0.3168
   17MOL   C88215314   6.765   1.840   3.302 -0.3163 -0.1516  0.1864
   17MOL   C88315315   6.845   1.947   3.253  0.3794  0.2652  0.6162
   17MOL   C88415316   6.935   1.930   3.146  1.3103 -0.8075 -0.3977
   17MOL   O88515317   6.675   1.869   3.401 -0.0213  0.2635 -0.1334
   17MOL   H88615318   6.951   2.225   2.393 -1.0377  1.0953 -0.3411
   17MOL   H88715319   7.167   2.110   2.400 -1.9120 -0.9711  0.0737
   17MOL   H88815320   7.285   2.302   2.028  0.2012  0.0619  0.4239
   17MOL   H88915321   7.049   2.395   2.018 -1.2657 -0.7829 -0.2735
   17MOL   H89015322   7.548   2.038   2.446 -0.6869  0.2871  0.5859
   17MOL   H89115323   7.501   1.859   2.638 -1.2238 -1.4920 -0.0047
   17MOL   H89215324   7.149   1.741   2.426 -0.8208  0.2426  1.7292
   17MOL   H89315325   7.186   1.894   2.252 -3.1591  1.4313  3.2103
   17MOL   H89415326   7.062   1.581   2.707  0.9793  1.0648 -1.8445
   17MOL   H89515327   6.918   1.633   2.891 -0.3648  0.6226 -1.2886
   17MOL   H89615328   7.212   1.923   3.025  0.2718  0.2109 -0.3646
   17MOL   H89715329   7.351   1.868   2.849 -0.9964  1.5694  1.5655
   17MOL   H89815330   6.906   1.581   3.117  1.7332  0.9645  0.1911
   17MOL   H89915331   6.739   1.618   3.285 -0.9213  0.7371 -0.1190
   17MOL   H90015332   6.830   2.049   3.283 -0.6363  0.3906 -0.3182
   17MOL   H90115333   6.987   2.015   3.104 -0.9614  1.3781  1.0737
   17MOL   H90215334   6.616   1.797   3.420 -1.3471  1.1588 -0.8126
   18MOL     C115335   1.501   4.595   4.880  0.0984  0.3735 -0.8551
   18MOL     C215336   1.425   4.535   4.774 -0.2270 -0.2462 -0.1048
   18MOL     C315337   1.484   4.483   4.658  0.1805 -0.7030 -0.5430
   18MOL     C415338   1.622   4.473   4.652  0.2235  0.7283  0.1468
   18MOL     C515339   1.703   4.523   4.755  0.5553 -0.1077 -0.7859
   18MOL     C615340   1.643   4.589   4.866  0.5752 -0.1652  0.1156
   18MOL     S715341   1.690   4.398   4.507  0.3241  0.5919  0.4301
   18MOL     O815342   1.776   4.495   4.434  0.0109 -0.3626 -0.3788
   18MOL     O915343   1.578   4.335   4.436  0.1457 -0.0011  0.1971
   18MOL    C1015344   1.785   4.265   4.568 -0.5440 -0.1740 -0.4650
   18MOL    C1115345   1.882   4.203   4.491 -0.2923  0.1193 -0.1681
   18MOL    C1215346   1.948   4.086   4.533  0.0273 -0.3257  0.1221
   18MOL    C1315347   1.931   4.044   4.664  0.4702 -0.2470 -0.1559
   18MOL    C1415348   1.840   4.111   4.748  0.2334  0.1661  0.2560
   18MOL    C1515349   1.760   4.218   4.694 -0.0194 -0.4335 -0.0479
   18MOL    O1615350   2.008   3.935   4.708 -0.3886 -0.1014  0.3334
   18MOL    C1715351   1.940   3.823   4.735  0.0522 -0.6526 -0.0708
   18MOL    C1815352   1.868   3.801   4.858  0.1368 -0.3726 -0.1463
   18MOL    C1915353   1.797   3.684   4.880 -0.2932  0.4936 -0.1821
   18MOL    C2015354   1.784   3.584   4.780  0.0761  0.4299  0.1469
   18MOL    C2115355   1.862   3.602   4.666  0.0016  0.2363  0.1259
   18MOL    C2215356   1.941   3.714   4.646 -0.1240  0.5574  0.8591
   18MOL    C2315357   1.699   3.466   4.795 -0.7797 -0.4020 -0.3036
   18MOL    C2415358   1.585   3.475   4.876  0.2549  1.3394  0.2845
   18MOL    C2515359   1.498   3.364   4.883  0.2357  0.4007  0.0624
   18MOL    C2615360   1.522   3.242   4.812 -0.4141 -0.9619 -0.5915
   18MOL    C2715361   1.643   3.232   4.750 -0.0186 -0.2207 -0.2619
   18MOL    C2815362   1.721   3.345   4.725  0.1450 -0.4459  0.0658
   18MOL    O2915363   1.445   3.133   4.823  0.2319 -0.0614 -0.0701
   18MOL    H3015364   1.318   4.535   4.787  0.1302 -0.1057  3.1105
   18MOL    H3115365   1.419   4.434   4.586 -1.5056  0.1250  0.3730
   18MOL    H3215366   1.811   4.513   4.749  0.9169  3.3532 -0.9836
   18MOL    H3315367   1.699   4.629   4.949 -1.7554  1.5788  0.9090
   18MOL    H3415368   1.899   4.247   4.394  0.7676 -1.0389 -0.5237
   18MOL    H3515369   2.013   4.031   4.465 -1.3830 -0.2673 -1.3014
   18MOL    H3615370   1.824   4.075   4.849  0.9177 -2.9323 -0.6910
   18MOL    H3715371   1.682   4.249   4.762 -0.6950 -2.3244  0.0681
   18MOL    H3815372   1.859   3.879   4.932  0.4909 -0.6239  0.1666
   18MOL    H3915373   1.745   3.685   4.975 -0.4085 -0.4670 -0.2323
   18MOL    H4015374   1.864   3.539   4.578  1.2466 -0.1795  0.4442
   18MOL    H4115375   1.993   3.730   4.552  1.4281 -1.3319  1.3755
   18MOL    H4215376   1.561   3.557   4.943 -0.8637  0.8684  0.4798
   18MOL    H4315377   1.409   3.370   4.944 -0.9185  0.5692 -1.6044
   18MOL    H4415378   1.679   3.136   4.714 -2.6576 -2.0002  1.6307
   18MOL    H4515379   1.807   3.324   4.663 -1.3382 -1.7723 -1.5824
   18MOL    H4615380   1.446   4.639   4.961 -0.6133  1.7192 -2.0554
   18MOL    C4715381   1.468   3.034   4.913 -0.1133 -0.2973 -0.8421
   18MOL    C4815382   1.421   2.902   4.876 -0.2227 -0.4482  0.2229
   18MOL    C4915383   1.440   2.789   4.956  0.1602 -0.8067 -0.7115
   18MOL    C5015384   1.509   2.809   5.083  0.4224  0.6591 -0.0354
   18MOL    C5115385   1.560   2.937   5.121 -0.3144  0.1610  0.2683
   18MOL    C5215386   1.528   3.048   5.041  0.3725 -0.3594  0.3425
   18MOL    S5315387   1.531   2.663   5.183  0.2276  0.3033  0.2811
   18MOL    O5415388   1.639   2.684   5.279  0.1103  0.4090 -0.0796
   18MOL    O5515389   1.552   2.550   5.089  0.2179  0.3152 -0.2662
   18MOL    C5615390   1.374   2.640   5.268 -0.4953  0.0660  0.6800
   18MOL    C5715391   1.299   2.749   5.312  0.2088  0.4358 -0.8189
   18MOL    C5815392   1.171   2.730   5.377  0.0399  0.4667  0.2911
   18MOL    C5915393   1.119   2.597   5.390 -0.5510 -0.4085  0.6414
   18MOL    C6015394   1.197   2.492   5.347 -0.1578  0.5980 -0.1629
   18MOL    C6115395   1.324   2.511   5.284 -0.2374 -0.5798 -0.3991
   18MOL    O6215396   0.999   2.577   5.452  0.3432 -0.1584  0.1481
   18MOL    C6315397   0.996   2.479   5.550 -0.4764 -0.3619 -0.1513
   18MOL    C6415398   0.948   2.344   5.522  0.3036 -0.4865 -0.2134
   18MOL    C6515399   0.953   2.249   5.628 -0.2551  0.2729 -0.2567
   18MOL    C6615400   0.980   2.287   5.759 -0.2232  0.6256 -0.0461
   18MOL    C6715401   1.017   2.421   5.787 -0.3338  0.1740 -0.4264
   18MOL    C6815402   1.021   2.518   5.684 -0.3540  0.1543 -0.1916
   18MOL    C6915403   1.000   2.191   5.871 -0.5670 -1.1493  0.2760
   18MOL    C7015404   1.100   2.097   5.868 -0.2156  0.3050 -0.6937
   18MOL    C7115405   1.121   2.006   5.976 -0.2343  0.1950 -0.5731
   18MOL    C7215406   1.031   2.005   6.086 -0.6420 -0.1717 -0.4310
   18MOL    C7315407   0.931   2.103   6.094 -0.0207  0.1866 -0.5288
   18MOL    C7415408   0.918   2.197   5.987  0.7259 -1.0093 -0.3329
   18MOL    O7515409   1.039   1.914   6.191  0.1961  0.6395 -0.3729
   18MOL    H7615410   1.358   2.893   4.788  0.7534  1.6134 -0.7424
   18MOL    H7715411   1.405   2.695   4.917 -0.6764 -0.7577 -0.0791
   18MOL    H7815412   1.615   2.955   5.212  0.1500  0.4892 -0.0756
   18MOL    H7915413   1.555   3.150   5.067 -0.3570 -0.2217  0.5768
   18MOL    H8015414   1.350   2.843   5.327  0.5446 -0.1279  1.9493
   18MOL    H8115415   1.133   2.815   5.431 -1.5333 -0.8913  1.4070
   18MOL    H8215416   1.155   2.392   5.347 -0.3562  0.6821  1.0337
   18MOL    H8315417   1.388   2.433   5.247  0.3041  0.4363 -1.6303
   18MOL    H8415418   0.937   2.315   5.419  0.6638 -0.2537 -0.3174
   18MOL    H8515419   0.924   2.145   5.619 -0.4547  0.3218 -0.1875
   18MOL    H8615420   1.043   2.452   5.887  1.0729  1.2776 -1.1076
   18MOL    H8715421   1.057   2.618   5.703 -0.6588  0.2042  0.1166
   18MOL    H8815422   1.171   2.103   5.786  1.4417  0.9775  0.7476
   18MOL    H8915423   1.208   1.942   5.969  0.8099  1.6914 -1.7382
   18MOL    H9015424   0.872   2.118   6.183  0.8145 -1.5253  0.3383
   18MOL    H9115425   0.829   2.257   5.989  1.2823 -0.1880  0.6309
   18MOL    C9215426   0.992   1.787   6.158  0.3955 -0.4730  0.2237
   18MOL    C9315427   1.075   1.678   6.187 -0.5868 -0.0308 -0.1815
   18MOL    C9415428   1.025   1.554   6.165 -0.1140  0.4993  1.0316
   18MOL    C9515429   0.894   1.532   6.116 -0.0994 -0.8170  0.0287
   18MOL    C9615430   0.810   1.643   6.083 -0.6424 -0.6561  0.5044
   18MOL    C9715431   0.859   1.772   6.111  0.5510  0.1345 -0.1592
   18MOL    S9815432   0.828   1.373   6.086  0.1929  0.3113 -0.1433
   18MOL    O9915433   0.940   1.280   6.137  0.5034  0.3289  0.1344
   18MOL   O10015434   0.785   1.359   5.946  0.7211 -0.0626 -0.4888
   18MOL   C10115435   0.693   1.359   6.201 -0.3525  0.2242  0.4609
   18MOL   C10215436   0.713   1.391   6.335 -0.1904 -0.5091  0.0231
   18MOL   C10315437   0.609   1.386   6.427 -0.0584  0.2379  0.1520
   18MOL   C10415438   0.481   1.350   6.384  0.4890 -0.3284  0.4433
   18MOL   C10515439   0.459   1.313   6.252  0.3690 -1.1587  0.5130
   18MOL   C10615440   0.563   1.332   6.151 -0.0885  0.3547  0.1187
   18MOL   O10715441   0.387   1.329   6.484 -0.6681  0.6624  0.0567
   18MOL   C10815442   0.307   1.431   6.519 -0.1359  0.5960 -0.8875
   18MOL   C10915443   0.340   1.529   6.617 -0.4055  0.0120 -0.4600
   18MOL   C11015444   0.256   1.634   6.644  0.1858  0.0938  0.0752
   18MOL   C11115445   0.126   1.638   6.581 -0.1129 -0.0352 -0.2638
   18MOL   C11215446   0.085   1.533   6.502  0.7755  0.4417 -0.3803
   18MOL   C11315447   0.178   1.435   6.458  0.9350 -0.0674 -0.1026
   18MOL   C11415448   0.047   1.762   6.602 -0.4488  0.1986  0.3295
   18MOL   C11515449   8.277   1.756   6.636 -0.6272 -0.4371  1.1988
   18MOL   C11615450   8.211   1.885   6.637  0.3216 -0.0806 -0.0834
   18MOL   C11715451   8.276   2.010   6.620 -0.5344 -0.4363 -0.0372
   18MOL   C11815452   0.054   2.008   6.605 -0.3063  0.0062  0.4955
   18MOL   C11915453   0.117   1.884   6.600 -0.5791 -0.2836 -0.0955
   18MOL   O12015454   8.213   2.127   6.633 -0.2410 -0.3383 -0.1733
   18MOL   H12115455   1.173   1.686   6.231  0.0691 -2.9071 -1.0212
   18MOL   H12215456   1.085   1.472   6.202 -1.1768 -1.9289 -2.4270
   18MOL   H12315457   0.710   1.612   6.056 -1.1193  0.2874  1.1542
   18MOL   H12415458   0.792   1.856   6.105 -2.5159 -2.2118  0.3067
   18MOL   H12515459   0.815   1.407   6.365  0.8870 -2.0314 -2.5974
   18MOL   H12615460   0.626   1.395   6.534 -0.6113 -3.5202  0.6296
   18MOL   H12715461   0.356   1.292   6.226  0.8472 -1.1134 -1.4727
   18MOL   H12815462   0.546   1.312   6.047  0.0789  1.4839 -0.1366
   18MOL   H12915463   0.438   1.533   6.661 -0.3974 -1.5440 -0.3193
   18MOL   H13015464   0.288   1.715   6.708 -1.6739 -0.6816  2.0399
   18MOL   H13115465   8.356   1.535   6.452  0.2091  1.2135  0.7147
   18MOL   H13215466   0.156   1.360   6.384 -2.0760 -0.5523  1.2191
   18MOL   H13315467   8.223   1.662   6.634  0.2806 -0.9454  0.4059
   18MOL   H13415468   8.105   1.892   6.657  0.3915  2.2053 -0.3832
   18MOL   H13515469   0.099   2.103   6.580  0.3481 -0.8177 -1.5691
   18MOL   H13615470   0.223   1.885   6.576 -0.7752 -2.1253 -1.0898
   18MOL   C13715471   8.150   2.176   6.519 -0.1717  0.3179 -0.0237
   18MOL   C13815472   8.015   2.136   6.487  0.6190 -0.6973  0.2006
   18MOL   C13915473   7.951   2.184   6.375  0.3376 -0.3393  0.3972
   18MOL   C14015474   8.016   2.274   6.292 -0.0958 -0.2998 -0.0689
   18MOL   C14115475   8.145   2.321   6.326 -0.3515 -0.0513 -0.3556
   18MOL   C14215476   8.214   2.272   6.440 -0.2192  0.2118  0.5170
   18MOL   S14315477   7.927   2.344   6.160 -0.1248  0.5841 -0.2306
   18MOL   O14415478   7.781   2.321   6.173 -0.3109  0.1922  0.8417
   18MOL   O14515479   7.991   2.309   6.032 -0.1432 -0.0288 -0.0086
   18MOL   C14615480   7.943   2.517   6.186 -0.3758  0.1565  0.1317
   18MOL   C14715481   7.919   2.572   6.319  0.2110 -0.3351 -0.0684
   18MOL   C14815482   7.933   2.708   6.340  0.3320 -0.2544  0.1758
   18MOL   C14915483   7.971   2.794   6.238 -0.0448 -0.5498 -0.1323
   18MOL   C15015484   8.000   2.742   6.109  0.5814 -0.0738 -0.3025
   18MOL   C15115485   7.969   2.609   6.082  0.3153 -0.5543  0.3533
   18MOL   O15215486   7.992   2.928   6.272  0.6707  0.2113  0.2004
   18MOL   C15315487   8.119   2.972   6.275  0.1388 -0.7089 -0.2025
   18MOL   C15415488   8.221   2.893   6.328  0.4278 -0.7476 -0.9662
   18MOL   C15515489   8.355   2.915   6.307  0.4555 -0.4769 -0.5815
   18MOL   C15615490   0.026   3.035   6.239  0.3473  1.1011 -0.7927
   18MOL   C15715491   8.291   3.118   6.180 -0.1411  0.3710  0.4920
   18MOL   C15815492   8.153   3.087   6.197 -0.2721  0.2465 -0.1075
   18MOL   C15915493   0.171   3.068   6.229 -0.9591  0.2357  0.6186
   18MOL   C16015494   0.255   2.980   6.153 -0.0500 -0.6828 -0.1776
   18MOL   C16115495   0.399   2.990   6.148  0.1593  0.1280  0.5338
   18MOL   C16215496   0.458   3.085   6.229  0.0092 -0.0676 -0.3904
   18MOL   C16315497   0.375   3.168   6.307 -0.7878  0.3786  0.0729
   18MOL   C16415498   0.235   3.153   6.314  0.3139  0.3423  0.6718
   18MOL   O16515499   0.592   3.096   6.220 -0.1052 -0.2019 -0.3909
   18MOL   H16615500   7.965   2.061   6.547 -1.0537  0.7014  0.5621
   18MOL   H16715501   7.857   2.139   6.346  0.5770  0.0227 -0.9988
   18MOL   H16815502   8.197   2.396   6.268 -1.2562  1.0259  0.1874
   18MOL   H16915503   8.315   2.306   6.459 -0.3893  1.8389 -1.2366
   18MOL   H17015504   7.879   2.513   6.400  3.2651  0.2241  1.9247
   18MOL   H17115505   7.911   2.752   6.437 -1.1689 -1.9628  0.6502
   18MOL   H17215506   8.042   2.799   6.027 -1.3478 -0.8615 -1.8916
   18MOL   H17315507   7.976   2.584   5.977 -0.2230  2.8295 -0.5507
   18MOL   H17415508   8.183   2.801   6.371  0.9622 -0.3836  0.3038
   18MOL   H17515509   0.059   2.845   6.349  0.8715 -0.1972 -0.8062
   18MOL   H17615510   8.300   3.207   6.120  0.8962  0.5329  0.8914
   18MOL   H17715511   8.080   3.160   6.167  0.5126  1.1394  0.1009
   18MOL   H17815512   0.210   2.902   6.094 -0.5106 -0.9713  0.5504
   18MOL   H17915513   0.463   2.931   6.085  1.8661  1.2230  1.2011
   18MOL   H18015514   0.419   3.232   6.382  0.4935  2.2072 -2.2163
   18MOL   H18115515   0.177   3.226   6.368  1.5151  2.5914 -0.9963
   18MOL   C18215516   0.654   3.157   6.330  0.0369  0.4749 -0.7572
   18MOL   C18315517   0.683   3.292   6.333  0.3633 -0.6151  1.0201
   18MOL   C18415518   0.715   3.356   6.452  0.4529 -0.3158 -0.2033
   18MOL   C18515519   0.722   3.286   6.573  0.9086  0.9337  0.0310
   18MOL   C18615520   0.696   3.147   6.569 -0.4926  0.6096 -0.5818
   18MOL   C18715521   0.667   3.085   6.449  0.4516  0.1167 -0.8971
   18MOL   S18815522   0.775   3.363   6.722 -0.3442 -0.1417 -0.1531
   18MOL   O18915523   0.765   3.509   6.711 -0.4682  0.0488  0.1867
   18MOL   O19015524   0.902   3.305   6.761  0.4118 -0.1729 -0.4490
   18MOL   C19115525   0.655   3.308   6.842  0.5975  0.6701  0.2006
   18MOL   C19215526   0.522   3.285   6.797 -0.0692  0.4469 -0.1171
   18MOL   C19315527   0.425   3.245   6.889 -0.4872 -0.1951 -0.3447
   18MOL   C19415528   0.462   3.211   7.023 -0.0324 -0.3055 -0.1357
   18MOL   C19515529   0.595   3.237   7.061  0.3028  0.8794 -0.4646
   18MOL   C19615530   0.697   3.278   6.973  0.2487  0.1120  0.1649
   18MOL   O19715531   0.378   3.152   7.114 -0.2339  0.5769  0.2642
   18MOL   C19815532   0.240   3.164   7.090 -0.3157 -0.2548  0.0496
   18MOL   C19915533   0.165   3.052   7.060 -0.7614 -0.3343  0.5600
   18MOL   C20015534   0.026   3.061   7.036  0.3374 -0.3228  0.0044
   18MOL   C20115535   8.328   3.190   7.051 -0.3293 -0.0808 -0.4985
   18MOL   C20215536   0.039   3.304   7.078 -0.1898  0.2693  0.2853
   18MOL   C20315537   0.178   3.291   7.101 -0.3338  0.7532  0.1493
   18MOL   C20415538   8.182   3.201   7.027 -0.0792  0.1000  0.2800
   18MOL   C20515539   8.102   3.196   7.137  0.3207  0.2522 -0.4035
   18MOL   C20615540   7.961   3.215   7.129  0.6113 -0.3348  0.1361
   18MOL   C20715541   7.900   3.225   6.998 -0.1780  0.2587  0.1868
   18MOL   C20815542   7.981   3.228   6.886 -0.4018 -0.3517  0.5701
   18MOL   C20915543   8.125   3.218   6.901  0.2874  0.4824  0.0026
   18MOL   O21015544   7.764   3.242   6.987  0.2921  0.1953  0.7527
   18MOL   H21115545   0.670   3.341   6.237 -0.3005  0.4834  1.6487
   18MOL   H21215546   0.736   3.462   6.459  2.1413 -0.6650  0.3508
   18MOL   H21315547   0.718   3.084   6.654 -0.3818  1.0837 -0.2578
   18MOL   H21415548   0.638   2.981   6.458 -1.1605  0.4662 -2.0676
   18MOL   H21515549   0.490   3.315   6.698 -0.6143 -1.5530 -0.5731
   18MOL   H21615550   0.321   3.235   6.864 -0.7175 -0.2573  0.6517
   18MOL   H21715551   0.619   3.208   7.163  0.8958 -2.0421 -1.3908
   18MOL   H21815552   0.797   3.300   7.009 -0.1630 -1.4312  2.2931
   18MOL   H21915553   0.207   2.952   7.059 -0.5667 -0.2811  1.9289
   18MOL   H22015554   8.333   2.979   6.997  1.9189 -1.1878 -0.6357
   18MOL   H22115555   8.364   3.403   7.094 -0.4529  0.5283 -1.8963
   18MOL   H22215556   0.243   3.373   7.130  1.6370 -0.6754 -0.1318
   18MOL   H22315557   8.148   3.183   7.234  1.9326 -2.7799 -1.5171
   18MOL   H22415558   7.896   3.214   7.215 -1.8724 -0.4044 -1.6697
   18MOL   H22515559   7.947   3.234   6.784 -1.4941  3.9922  1.1146
   18MOL   H22615560   8.186   3.232   6.813  0.3190  2.5085  0.3234
   18MOL   C22715561   7.693   3.148   6.922  0.5521 -0.5380 -0.5911
   18MOL   C22815562   7.607   3.068   6.994  0.3905 -0.3309  0.2946
   18MOL   C22915563   7.510   2.986   6.942 -0.2963  0.1043 -0.8510
   18MOL   C23015564   7.503   2.979   6.800  0.5341 -0.8430 -0.0321
   18MOL   C23115565   7.585   3.064   6.722 -0.8490  0.0183  0.5513
   18MOL   C23215566   7.681   3.144   6.782  0.3648  0.0406 -0.3843
   18MOL   S23315567   7.378   2.885   6.708  0.0154 -0.1931  0.1850
   18MOL   O23415568   7.272   2.981   6.673 -0.3965 -0.3203 -0.0561
   18MOL   O23515569   7.336   2.769   6.793 -0.2115  0.4005 -0.1319
   18MOL   C23615570   7.449   2.821   6.559 -0.3706  0.1203 -0.6934
   18MOL   C23715571   7.558   2.731   6.565  0.7951 -0.3356 -0.3217
   18MOL   C23815572   7.611   2.674   6.449  0.4811  0.5875 -0.1932
   18MOL   C23915573   7.553   2.693   6.323  0.0814  0.0180  0.1418
   18MOL   C24015574   7.443   2.778   6.317  0.2718 -0.1414  0.0690
   18MOL   C24115575   7.393   2.847   6.435 -0.2184  0.7841  0.0304
   18MOL   O24215576   7.604   2.627   6.215  0.1412  0.1920 -0.2790
   18MOL   C24315577   7.535   2.514   6.167  0.7567  0.3220 -0.2535
   18MOL   C24415578   7.455   2.424   6.242 -0.4224  0.1893 -1.0042
   18MOL   C24515579   7.385   2.314   6.188 -0.8320  1.1515 -0.2757
   18MOL   C24615580   7.416   2.272   6.058 -0.3692 -0.3921  0.0301
   18MOL   C24715581   7.503   2.356   5.981 -0.6018  0.0613  0.2678
   18MOL   C24815582   7.556   2.472   6.038  0.0992 -0.2448  0.2812
   18MOL   C24915583   7.377   2.139   6.009  0.6388 -0.5060 -0.6389
   18MOL   C25015584   7.455   2.054   5.939 -0.2481  0.8790 -0.7572
   18MOL   C25115585   7.424   1.924   5.904  0.0410  0.4384  0.1432
   18MOL   C25215586   7.300   1.869   5.938  0.5937  0.2439  0.6817
   18MOL   C25315587   7.208   1.957   6.000  0.1424  0.0050 -0.7357
   18MOL   C25415588   7.246   2.089   6.039  0.3275  0.7558 -0.2979
   18MOL   O25515589   7.265   1.735   5.920 -0.1618  0.0079 -0.4020
   18MOL   H25615590   7.608   3.071   7.102  1.6760  0.1277  0.2795
   18MOL   H25715591   7.450   2.922   7.005  0.4614  0.6181  0.4062
   18MOL   H25815592   7.559   3.074   6.618 -1.7612  2.2191  0.9526
   18MOL   H25915593   7.746   3.205   6.720  1.4821 -0.0275  0.6954
   18MOL   H26015594   7.605   2.698   6.656  1.6366  0.7682 -0.3520
   18MOL   H26115595   7.694   2.606   6.455  0.7465  0.7040 -2.2612
   18MOL   H26215596   7.383   2.774   6.227 -1.4940  3.1540  1.0136
   18MOL   H26315597   7.299   2.900   6.432  0.9553  2.9571  0.6113
   18MOL   H26415598   7.444   2.439   6.349 -0.7209 -0.9742 -0.8579
   18MOL   H26515599   7.318   2.250   6.244 -0.9142 -0.9338 -2.6411
   18MOL   H26615600   7.545   2.329   5.886  0.6007  0.6525  0.6236
   18MOL   H26715601   7.616   2.530   5.969 -1.4925 -0.7810 -1.5787
   18MOL   H26815602   7.553   2.085   5.903  0.5558 -0.4799  0.2072
   18MOL   H26915603   7.501   1.866   5.856  1.4512  2.9664 -0.7303
   18MOL   H27015604   7.115   1.908   6.024 -0.9163  2.8012  1.1294
   18MOL   H27115605   7.175   2.144   6.099  0.3547  1.6643 -1.0781
   18MOL   C27215606   7.202   1.703   5.804 -0.1542  0.8722 -0.5479
   18MOL   C27315607   7.281   1.699   5.690 -0.2044 -0.1902 -0.0548
   18MOL   C27415608   7.233   1.641   5.573  0.1475  0.4580 -0.3050
   18MOL   C27515609   7.096   1.601   5.570 -0.9778 -0.0587  0.1970
   18MOL   C27615610   7.019   1.603   5.684 -0.5349  0.0044  0.3798
   18MOL   C27715611   7.070   1.653   5.810 -0.3386 -0.0825  0.3563
   18MOL   S27815612   7.023   1.544   5.421  0.2992 -0.0358 -0.2987
   18MOL   O27915613   7.130   1.533   5.318 -0.2787  0.0140  0.1827
   18MOL   O28015614   6.907   1.630   5.394 -0.0135 -0.8807 -0.0193
   18MOL   C28115615   6.965   1.376   5.464  0.4190 -0.6164 -0.1081
   18MOL   C28215616   7.058   1.270   5.490  0.1077 -0.4060 -0.2330
   18MOL   C28315617   7.012   1.143   5.530  0.5824  0.4749  0.6016
   18MOL   C28415618   6.868   1.115   5.527  0.0941  0.1266 -1.0501
   18MOL   C28515619   6.780   1.211   5.468  0.5060  0.0306 -0.5461
   18MOL   C28615620   6.827   1.345   5.446 -0.4044 -0.3906 -0.2568
   18MOL   O28715621   6.820   0.996   5.570 -0.4334  0.2329 -0.0511
   18MOL   C28815622   6.793   0.894   5.484 -0.1381  0.3765  0.2024
   18MOL   C28915623   6.888   0.799   5.457 -0.2918  0.1420  0.2724
   18MOL   C29015624   6.854   0.681   5.386  0.1250 -0.0534  0.0554
   18MOL   C29115625   6.724   0.657   5.335 -1.4490  0.3986 -0.2020
   18MOL   C29215626   6.630   0.764   5.361  1.0148  0.1540 -0.5708
   18MOL   C29315627   6.662   0.873   5.447 -0.1103 -0.3977 -0.0514
   18MOL   C29415628   6.687   0.537   5.262  0.0030  0.1346 -0.5940
   18MOL   C29515629   6.726   0.535   5.133  0.4353  0.1750 -0.5671
   18MOL   C29615630   6.693   0.426   5.051  0.3174  0.0144 -0.3209
   18MOL   C29715631   6.612   0.329   5.102  0.4575 -0.0719 -0.3623
   18MOL   C29815632   6.579   0.328   5.236  0.8698 -0.8305  0.2812
   18MOL   C29915633   6.612   0.437   5.319 -0.1247  0.4432  0.1573
   18MOL   O30015634   6.577   0.227   5.021  0.2914  0.0940 -0.2599
   18MOL   H30115635   7.381   1.739   5.691 -0.6532  0.9760 -0.3661
   18MOL   H30215636   7.294   1.635   5.484 -0.0801 -0.1224 -0.4228
   18MOL   H30315637   6.920   1.560   5.678 -0.7153  0.4771 -0.0599
   18MOL   H30415638   7.006   1.656   5.898 -0.5419  1.9777  0.1725
   18MOL   H30515639   7.163   1.294   5.492 -0.5813  2.9047 -0.3254
   18MOL   H30615640   7.081   1.064   5.555  2.9143  2.0396 -0.6317
   18MOL   H30715641   6.675   1.196   5.450  0.5693 -2.9404  1.0839
   18MOL   H30815642   6.767   1.430   5.417  0.4017  0.9503  1.8670
   18MOL   H30915643   6.986   0.816   5.499 -0.5341  0.8751  0.5393
   18MOL   H31015644   6.927   0.603   5.369 -0.1213 -0.1339 -0.6421
   18MOL   H31115645   6.528   0.745   5.331  1.0072  0.5122 -0.7751
   18MOL   H31215646   6.591   0.949   5.477 -0.1545 -1.7838  3.5835
   18MOL   H31315647   6.797   0.606   5.093  1.4998 -0.7439 -0.3269
   18MOL   H31415648   6.718   0.413   4.947 -0.5407 -2.5913 -0.2223
   18MOL   H31515649   6.525   0.245   5.279 -0.3097  0.7271  1.8797
   18MOL   H31615650   6.588   0.443   5.424  1.9954  2.7820  0.5630
   18MOL   C31715651   6.455   0.239   4.964  0.2857  0.1224  0.1056
   18MOL   C31815652   6.413   0.144   4.872  0.4964  0.5030  0.5585
   18MOL   C31915653   6.294   0.164   4.799 -0.1480  0.5539 -0.1522
   18MOL   C32015654   6.212   0.274   4.825  0.1741  0.0737 -0.3121
   18MOL   C32115655   6.246   0.367   4.922  0.4097  0.6145  0.3887
   18MOL   C32215656   6.366   0.355   4.989 -0.0392  0.1037  0.2178
   18MOL   S32315657   6.063   0.305   4.722  0.2007 -0.1014  0.1933
   18MOL   O32415658   5.949   0.289   4.810 -0.5228 -0.1214 -0.7577
   18MOL   O32515659   6.071   0.228   4.599 -0.0952  0.2068  0.3743
   18MOL   C32615660   6.071   0.479   4.693 -0.2727 -0.8778 -0.0854
   18MOL   C32715661   6.183   0.524   4.618 -0.6631  0.0276  0.0297
   18MOL   C32815662   6.211   0.663   4.601 -0.1606  0.5100  0.1722
   18MOL   C32915663   6.126   0.759   4.660  0.3137 -0.6307  0.2857
   18MOL   C33015664   6.017   0.714   4.732  0.3089  0.1876  0.1564
   18MOL   C33115665   5.989   0.573   4.758  0.6789  0.0562 -0.2322
   18MOL   O33215666   6.156   0.895   4.665  0.4023  0.0520 -0.1226
   18MOL   C33315667   6.269   0.940   4.731  0.4120 -0.1775  0.7073
   18MOL   C33415668   6.314   1.075   4.729 -0.6474  0.3298  0.7362
   18MOL   C33515669   6.435   1.114   4.790  0.0661 -0.3275  0.4241
   18MOL   C33615670   6.510   1.030   4.872 -0.1326  0.3586 -0.1347
   18MOL   C33715671   6.459   0.897   4.879 -0.6385  0.2105  0.2956
   18MOL   C33815672   6.348   0.851   4.806  0.7721 -0.8999  0.6014
   18MOL   C33915673   6.626   1.073   4.947 -0.7078  0.3986 -0.0685
   18MOL   C34015674   6.657   1.013   5.068 -0.0007 -0.1258 -0.4297
   18MOL   C34115675   6.767   1.051   5.143  0.1089 -0.6206 -0.4484
   18MOL   C34215676   6.858   1.147   5.090  0.7776  0.3214 -0.0271
   18MOL   C34315677   6.830   1.210   4.968  0.5232 -0.0377 -0.0051
   18MOL   C34415678   6.711   1.181   4.902 -0.1128  0.8718 -0.2820
   18MOL   O34515679   6.975   1.164   5.157 -0.2497  0.3281  0.6618
   18MOL   H34615680   6.467   0.053   4.849  1.6336  0.7604  2.1361
   18MOL   H34715681   6.259   0.097   4.721  2.0544 -1.2063  0.3311
   18MOL   H34815682   6.173   0.446   4.937 -0.7150 -0.2350 -0.5357
   18MOL   H34915683   6.395   0.440   5.048  1.3229 -0.1798 -0.0033
   18MOL   H35015684   6.233   0.448   4.559  2.0013  1.0998  0.8157
   18MOL   H35115685   6.293   0.688   4.535 -1.4486 -1.5708 -2.2963
   18MOL   H35215686   5.961   0.790   4.785 -0.0805 -0.2628  0.3899
   18MOL   H35315687   5.900   0.543   4.812  0.9270  0.9718  0.7117
   18MOL   H35415688   6.261   1.152   4.674  1.3730  0.4039 -1.1727
   18MOL   H35515689   6.469   1.216   4.779  0.9835 -0.4373  2.1033
   18MOL   H35615690   6.529   0.827   4.922 -0.1280  0.4084 -0.2104
   18MOL   H35715691   6.324   0.747   4.818 -0.8920 -0.4060  1.7110
   18MOL   H35815692   6.584   0.940   5.101 -1.4824  0.6357 -1.9782
   18MOL   H35915693   6.784   1.005   5.239 -0.2523  2.0342  0.9385
   18MOL   H36015694   6.904   1.283   4.941 -1.1400  2.1041  1.0475
   18MOL   H36115695   6.682   1.225   4.808 -2.0343  0.3354  0.0355
   18MOL   C36215696   7.067   1.067   5.134 -0.0344  0.0400  0.1835
   18MOL   C36315697   7.083   0.956   5.222 -0.1245 -0.4364  0.3090
   18MOL   C36415698   7.183   0.861   5.199 -0.5356  0.3813  0.9909
   18MOL   C36515699   7.247   0.861   5.078 -0.1194  0.2485  0.6187
   18MOL   C36615700   7.237   0.966   4.990 -0.0201 -0.3486 -0.0119
   18MOL   C36715701   7.141   1.062   5.012  0.0895 -0.0697 -0.2411
   18MOL   S36815702   7.344   0.716   5.031 -0.0676 -0.1772  0.1580
   18MOL   O36915703   7.254   0.612   4.982 -0.2988  0.3717  0.8039
   18MOL   O37015704   7.436   0.681   5.140  0.1309 -0.2556 -0.7929
   18MOL   C37115705   7.456   0.764   4.895 -0.2114 -0.1018 -0.2569
   18MOL   C37215706   7.561   0.862   4.923 -0.0145  0.1033 -0.0536
   18MOL   C37315707   7.639   0.910   4.815 -0.3635 -0.0346  0.3334
   18MOL   C37415708   7.633   0.850   4.689 -0.2860  0.3085  0.5814
   18MOL   C37515709   7.535   0.745   4.662  0.5417 -0.2428  0.4462
   18MOL   C37615710   7.447   0.710   4.770 -0.2588  0.3984 -0.0101
   18MOL   O37715711   7.727   0.894   4.596 -0.1632  0.0306 -0.9913
   18MOL   C37815712   7.714   0.862   4.467  0.2775  0.9358 -0.1353
   18MOL   C37915713   7.770   0.744   4.407  0.5817 -0.4487 -0.1391
   18MOL   C38015714   7.760   0.726   4.270 -0.1461 -0.4868  0.4013
   18MOL   C38115715   7.667   0.794   4.198 -0.1661  0.2346 -0.3770
   18MOL   C38215716   7.606   0.910   4.257  0.1258 -0.1415  0.4946
   18MOL   C38315717   7.634   0.948   4.389 -0.0026 -0.4933 -0.0648
   18MOL   C38415718   7.644   0.753   4.062  0.4224  0.5859  1.0397
   18MOL   C38515719   7.748   0.739   3.965 -0.5212  0.4809 -0.9494
   18MOL   C38615720   7.723   0.685   3.840  0.6736 -0.1078  0.0346
   18MOL   C38715721   7.601   0.626   3.804 -0.0474 -0.8805  0.1590
   18MOL   C38815722   7.494   0.655   3.897 -0.5571  0.1736  0.5305
   18MOL   C38915723   7.514   0.719   4.018  0.1952 -0.4722  0.1183
   18MOL   O39015724   7.575   0.575   3.683 -0.0874 -0.1444  0.3346
   18MOL   H39115725   7.024   0.963   5.313 -0.0230  2.1432  0.1969
   18MOL   H39215726   7.191   0.785   5.275 -1.3398  0.1789  0.8731
   18MOL   H39315727   7.301   0.976   4.904  1.1974  0.1977  0.9498
   18MOL   H39415728   7.137   1.139   4.936 -0.1919  0.4301  0.2699
   18MOL   H39515729   7.565   0.894   5.026  0.6780 -0.2183  0.0229
   18MOL   H39615730   7.724   0.971   4.842  1.1072 -1.7624 -0.2591
   18MOL   H39715731   7.530   0.695   4.567 -2.4011  0.3523  0.2578
   18MOL   H39815732   7.382   0.625   4.754  1.7753 -0.9973 -1.1524
   18MOL   H39915733   7.831   0.683   4.471 -0.9253 -0.1359  1.6478
   18MOL   H40015734   7.807   0.637   4.230 -0.2156 -2.3584  4.2568
   18MOL   H40115735   7.550   0.973   4.189  2.4640  0.5925 -0.8106
   18MOL   H40215736   7.585   1.033   4.434  1.0315 -1.3500  2.8055
   18MOL   H40315737   7.847   0.774   3.992 -0.7461  2.1899 -2.2613
   18MOL   H40415738   7.806   0.689   3.771  0.7005 -0.0323  0.0701
   18MOL   H40515739   7.393   0.627   3.873 -0.7210  1.3220 -0.1364
   18MOL   H40615740   7.428   0.740   4.079  2.2473  1.2355  2.5220
   18MOL   C40715741   7.594   0.438   3.684  0.1909  0.3771 -0.0854
   18MOL   C40815742   7.715   0.388   3.629  0.4917  0.3564 -0.0241
   18MOL   C40915743   7.742   0.249   3.617 -0.5858  0.8883 -0.2487
   18MOL   C41015744   7.645   0.159   3.669  0.5547 -0.1190 -0.6892
   18MOL   C41115745   7.528   0.212   3.735 -0.3942 -0.4996 -0.6893
   18MOL   C41215746   7.505   0.351   3.743 -0.2121  0.2877  0.4238
   18MOL   S41315747   7.661   8.347   3.659 -0.0359  0.1167 -0.1927
   18MOL   O41415748   7.632   8.288   3.790  0.7027 -0.5874 -0.1814
   18MOL   O41515749   7.788   8.313   3.594  0.4460 -0.3494 -0.3449
   18MOL   C41615750   7.531   8.281   3.552  0.5403 -0.0649  0.1307
   18MOL   C41715751   7.463   0.007   3.472  0.4911 -0.4125  0.8712
   18MOL   C41815752   7.346   8.330   3.398 -0.2919 -0.8247 -0.4666
   18MOL   C41915753   7.297   8.197   3.409 -0.4818 -0.0148  0.6625
   18MOL   C42015754   7.372   8.109   3.483 -0.4237 -0.2837 -0.3800
   18MOL   C42115755   7.489   8.148   3.550 -0.9953  0.2217 -0.0768
   18MOL   O42215756   7.175   8.152   3.358  0.0676  0.1806 -0.5274
   18MOL   C42315757   7.069   8.209   3.421 -0.4873  0.0917 -0.4149
   18MOL   C42415758   7.017   8.331   3.380  0.7280 -0.1504  0.1830
   18MOL   C42515759   6.898   0.015   3.436 -0.3361 -0.5063 -0.2476
   18MOL   C42615760   6.836   8.310   3.544  0.2677 -0.0140  0.2339
   18MOL   C42715761   6.894   8.186   3.584 -0.7212 -0.5030  0.2110
   18MOL   C42815762   7.012   8.141   3.525 -0.0637  0.5896 -0.5005
   18MOL   C42915763   6.723   0.004   3.608  0.3502  0.0934  0.4931
   18MOL   C43015764   6.596   8.315   3.581 -0.0720 -0.1414  0.1932
   18MOL   C43115765   6.485   0.002   3.638 -0.5336  0.0988 -0.3753
   18MOL   C43215766   6.490   0.131   3.702 -0.4716  0.3538  0.1639
   18MOL   C43315767   6.617   0.192   3.717  0.1701 -0.9506 -0.6557
   18MOL   C43415768   6.735   0.129   3.671 -0.0434  0.4470 -0.1673
   18MOL   O43515769   6.378   0.188   3.753  0.4205  0.4761  0.2683
   18MOL   H43615770   7.789   0.457   3.591  2.6772 -1.2048  1.2637
   18MOL   H43715771   7.832   0.218   3.568 -0.2552  3.0200 -1.0600
   18MOL   H43815772   7.473   0.135   3.787 -0.2320 -0.9933 -1.2291
   18MOL   H43915773   7.415   0.381   3.796 -0.1663  1.9419 -0.3905
   18MOL   H44015774   7.491   0.112   3.469  1.7018 -0.7139  1.1651
   18MOL   H44115775   7.286   0.035   3.344  1.5888  0.9548 -0.2559
   18MOL   H44215776   7.339   8.006   3.487  0.9228 -0.7599 -1.0760
   18MOL   H44315777   7.543   8.074   3.606  0.2756 -0.4723 -2.1614
   18MOL   H44415778   7.061   0.019   3.297 -1.3018  0.3924 -0.5696
   18MOL   H44515779   6.846   0.106   3.410 -1.0540 -1.3119 -1.6988
   18MOL   H44615780   6.860   8.135   3.673  2.5985 -1.7417  0.8284
   18MOL   H44715781   7.051   8.054   3.576 -0.0640  1.8222  1.6591
   18MOL   H44815782   6.599   8.221   3.527 -1.1288 -0.8339  1.3130
   18MOL   H44915783   6.392   8.312   3.640 -0.5941  0.2165  0.7888
   18MOL   H45015784   6.604   0.285   3.770 -1.8183 -1.4789 -0.1567
   18MOL   H45115785   6.827   0.181   3.695 -0.2126  1.6445 -2.0517
   18MOL   C45215786   6.314   0.300   3.708 -0.2671 -0.0155  0.1049
   18MOL   C45315787   6.218   0.358   3.786  0.0136 -0.3373 -0.6103
   18MOL   C45415788   6.164   0.486   3.759  0.1439  0.4299 -0.3364
   18MOL   C45515789   6.193   0.547   3.638  0.1193  0.1360  0.0746
   18MOL   C45615790   6.283   0.486   3.546  0.3503 -0.6980  0.0322
   18MOL   C45715791   6.343   0.362   3.587  0.5044 -0.1255  0.5504
   18MOL   S45815792   6.119   0.711   3.605 -0.0694  0.2084  0.3087
   18MOL   O45915793   5.989   0.712   3.676 -0.0187  0.0728  0.0775
   18MOL   O46015794   6.123   0.725   3.458 -0.3406 -0.2084 -0.0577
   18MOL   C46115795   6.229   0.842   3.677  0.1039  0.6656 -0.5964
   18MOL   C46215796   6.168   0.959   3.720 -0.5288  0.1748 -0.2075
   18MOL   C46315797   6.248   1.057   3.789  0.4114  0.1351  0.1298
   18MOL   C46415798   6.389   1.041   3.797 -0.2018  0.2121  0.0655
   18MOL   C46515799   6.448   0.925   3.742  0.0790 -0.3050  0.0746
   18MOL   C46615800   6.367   0.821   3.683  0.0341  0.0609  0.0255
   18MOL   O46715801   6.465   1.131   3.867 -0.1268 -0.1177 -0.0137
   18MOL   C46815802   6.479   1.243   3.796 -0.0871 -0.5080 -0.3645
   18MOL   C46915803   6.579   1.254   3.697  0.6182 -0.5995 -0.3883
   18MOL   C47015804   6.562   1.352   3.594 -0.6611 -0.5097 -0.5427
   18MOL   C47115805   6.469   1.456   3.612  0.2955 -0.0653 -0.0746
   18MOL   C47215806   6.378   1.457   3.722 -1.0074 -0.1190 -0.6331
   18MOL   C47315807   6.386   1.346   3.810 -0.3645 -0.5295 -0.1220
   18MOL   C47415808   6.445   1.556   3.501 -0.4325  0.3232  0.1518
   18MOL   C47515809   6.384   1.680   3.533 -0.2218 -0.4866  0.1451
   18MOL   C47615810   6.366   1.770   3.427  0.4400 -1.3862 -0.1864
   18MOL   C47715811   6.400   1.737   3.296 -0.6545 -0.6587 -0.3791
   18MOL   C47815812   6.462   1.612   3.264  0.3125 -0.3538 -0.4769
   18MOL   C47915813   6.479   1.520   3.368 -0.0780  0.1721 -0.3846
   18MOL   O48015814   6.398   1.829   3.195 -0.1958 -0.1950 -0.8749
   18MOL   H48115815   6.193   0.311   3.880  0.4912 -0.4200 -0.5244
   18MOL   H48215816   6.095   0.518   3.836 -0.5865 -2.8886  0.4603
   18MOL   H48315817   6.321   0.553   3.470  0.7173  0.6242  1.3680
   18MOL   H48415818   6.415   0.311   3.525 -0.5359 -0.2843 -0.5416
   18MOL   H48515819   6.062   0.978   3.708 -0.7547  0.2446  1.6794
   18MOL   H48615820   6.194   1.141   3.831  0.2036 -1.4231  3.1348
   18MOL   H48715821   6.556   0.923   3.737  0.2236 -1.3605  2.5996
   18MOL   H48815822   6.405   0.733   3.633 -2.2220 -0.2739 -1.1954
   18MOL   H48915823   6.644   1.173   3.668 -0.8835 -1.9631 -0.0149
   18MOL   H49015824   6.632   1.341   3.513 -0.0610  0.8634 -0.2332
   18MOL   H49115825   6.312   1.540   3.743 -1.9710 -0.1584 -3.2866
   18MOL   H49215826   6.322   1.340   3.897 -1.3388  1.1564 -0.7044
   18MOL   H49315827   6.359   1.705   3.635 -0.7939 -0.0001 -0.1095
   18MOL   H49415828   6.329   1.870   3.445 -0.4262 -1.8224  0.4669
   18MOL   H49515829   6.504   1.585   3.168 -0.8691 -0.6548 -0.9130
   18MOL   H49615830   6.528   1.427   3.347  1.1663  0.8456 -0.5161
   18MOL   C49715831   6.278   1.887   3.157 -0.1739  0.3425  0.3412
   18MOL   C49815832   6.168   1.808   3.121 -0.4138 -0.1808 -0.8372
   18MOL   C49915833   6.047   1.867   3.088 -0.3034 -0.4928 -0.3324
   18MOL   C50015834   6.046   2.012   3.071 -0.2223 -1.0735  0.5498
   18MOL   C50115835   6.166   2.087   3.085  0.2621 -0.1624  0.5074
   18MOL   C50215836   6.279   2.024   3.133  0.5892 -0.1340 -1.3138
   18MOL   S50315837   5.885   2.091   3.026  0.0113  0.1130  0.2525
   18MOL   O50415838   5.781   1.996   3.074 -0.2082 -0.3356 -0.3223
   18MOL   O50515839   5.897   2.140   2.886  0.0491 -0.4749  0.0279
   18MOL   C50615840   5.874   2.237   3.124  0.2392  0.3581  0.8956
   18MOL   C50715841   5.946   2.356   3.091  0.1056 -0.2771  0.2252
   18MOL   C50815842   5.944   2.470   3.181 -0.7791  0.0129 -0.3760
   18MOL   C50915843   5.861   2.467   3.297  0.1130 -0.4672  0.2229
   18MOL   C51015844   5.788   2.350   3.323  0.1542 -0.5028  0.1324
   18MOL   C51115845   5.794   2.239   3.239 -0.8179  0.0295  0.3398
   18MOL   O51215846   5.850   2.576   3.375  0.2992  0.6888 -0.5241
   18MOL   C51315847   5.926   2.590   3.488 -0.1785  0.0198 -0.0379
   18MOL   C51415848   6.049   2.522   3.519 -0.5041 -0.7007  0.2515
   18MOL   C51515849   6.112   2.537   3.645 -1.0051 -0.2678 -0.7622
   18MOL   C51615850   6.061   2.630   3.743  0.4735  0.1601  0.0252
   18MOL   C51715851   5.944   2.704   3.705 -0.1418 -0.3101  0.1768
   18MOL   C51815852   5.876   2.682   3.583  0.1031  0.2912 -0.8519
   18MOL   C51915853   6.122   2.644   3.880 -0.4624 -0.1823  0.0569
   18MOL   C52015854   6.191   2.540   3.944  0.0332  0.4029  0.3293
   18MOL   C52115855   6.251   2.556   4.071  0.0279 -0.0572 -0.4079
   18MOL   C52215856   6.255   2.686   4.130  0.2325 -0.6533  0.0194
   18MOL   C52315857   6.192   2.793   4.069  0.8777 -0.6456  0.0195
   18MOL   C52415858   6.122   2.775   3.946  0.3328  0.2220  0.2786
   18MOL   O52515859   6.308   2.699   4.255  0.1845 -0.1365  0.8182
   18MOL   H52615860   6.169   1.701   3.132  2.8076 -0.2108 -0.9159
   18MOL   H52715861   5.963   1.801   3.072  0.6801 -1.2568 -2.5224
   18MOL   H52815862   6.169   2.194   3.065  2.7654 -0.4364 -0.8222
   18MOL   H52915863   6.359   2.091   3.160  0.1468  0.6255 -1.8552
   18MOL   H53015864   5.994   2.349   2.995  1.2375  1.5537  0.6241
   18MOL   H53115865   6.000   2.554   3.143  1.9212 -1.2927  0.6148
   18MOL   H53215866   5.737   2.347   3.418  0.4685 -0.9900  0.2858
   18MOL   H53315867   5.729   2.156   3.264 -1.6513  1.0465  1.6232
   18MOL   H53415868   6.094   2.443   3.460  2.1098  0.6083  0.4040
   18MOL   H53515869   6.199   2.475   3.659 -0.7773  0.2088 -0.0587
   18MOL   H53615870   5.896   2.776   3.770 -4.6179 -1.5142 -1.6263
   18MOL   H53715871   5.782   2.729   3.556  0.5570  1.7737  0.0753
   18MOL   H53815872   6.174   2.441   3.905 -2.4024  1.3802 -1.2267
   18MOL   H53915873   6.294   2.471   4.122  1.4612  1.2538  0.5799
   18MOL   H54015874   6.190   2.886   4.123 -0.3159 -2.1176  2.5913
   18MOL   H54115875   6.064   2.854   3.900 -1.4039 -0.9126  0.4781
   18MOL   C54215876   6.233   2.667   4.366  0.6892  0.1128 -0.0307
   18MOL   C54315877   6.296   2.664   4.486  0.3931 -0.3139  0.0261
   18MOL   C54415878   6.240   2.599   4.602  0.8919  0.1666 -0.2689
   18MOL   C54515879   6.108   2.549   4.589  0.1586  0.2420 -0.0196
   18MOL   C54615880   6.039   2.563   4.464 -0.8648 -0.7003 -0.6909
   18MOL   C54715881   6.100   2.623   4.353 -0.5329 -0.2979  0.0312
   18MOL   S54815882   6.027   2.457   4.721  0.2754  0.0926  0.0850
   18MOL   O54915883   5.917   2.377   4.670 -0.1198  0.0410 -0.6354
   18MOL   O55015884   6.005   2.555   4.825 -0.6539  0.3939 -0.3292
   18MOL   C55115885   6.158   2.341   4.770 -0.4975  0.5380  0.2052
   18MOL   C55215886   6.218   2.352   4.900 -0.5234  0.1044  0.0012
   18MOL   C55315887   6.338   2.283   4.930  0.1838 -0.5313 -0.3091
   18MOL   C55415888   6.400   2.204   4.837 -0.0328 -0.5818 -1.1902
   18MOL   C55515889   6.343   2.186   4.713  0.1621  0.1568  0.1164
   18MOL   C55615890   6.223   2.256   4.678 -0.1426 -0.8992 -0.2024
   18MOL   O55715891   6.523   2.153   4.870  0.3487  0.3819  0.0824
   18MOL   C55815892   6.636   2.226   4.872 -0.7603 -0.1023  0.3091
   18MOL   C55915893   6.758   2.160   4.892 -0.1977  0.1004  0.0259
   18MOL   C56015894   6.876   2.231   4.922 -0.5502  0.4890  0.7838
   18MOL   C56115895   6.883   2.370   4.919  0.5716  0.1194  0.2042
   18MOL   C56215896   6.761   2.438   4.883  0.0622  0.3032  0.0859
   18MOL   C56315897   6.638   2.364   4.869 -0.2129  0.0147  0.2347
   18MOL   C56415898   7.005   2.442   4.955  0.0276  0.3492  0.3146
   18MOL   C56515899   7.056   2.423   5.085  0.2622 -0.4979 -0.4743
   18MOL   C56615900   7.182   2.479   5.121  0.7396 -0.1559 -0.0097
   18MOL   C56715901   7.252   2.564   5.030 -0.2371  0.3154  0.0348
   18MOL   C56815902   7.192   2.597   4.908  0.3181  0.2493  0.0422
   18MOL   C56915903   7.069   2.532   4.870 -0.7791 -0.1525  0.1995
   18MOL   O57015904   7.385   2.592   5.052  0.4318  0.1022  0.7418
   18MOL   H57115905   6.397   2.702   4.485  0.8167 -1.3706  0.7986
   18MOL   H57215906   6.297   2.583   4.692  0.0171 -0.1169  0.2393
   18MOL   H57315907   5.933   2.541   4.459 -1.2987  0.4300  2.3667
   18MOL   H57415908   6.043   2.626   4.262 -0.4323 -0.8615 -0.0529
   18MOL   H57515909   6.180   2.422   4.973 -2.1393 -0.4675 -0.2708
   18MOL   H57615910   6.386   2.293   5.025  0.1431 -0.6998 -0.2705
   18MOL   H57715911   6.389   2.119   4.643 -1.6178 -0.8301 -0.1348
   18MOL   H57815912   6.181   2.244   4.579 -0.0044  2.0392 -0.6515
   18MOL   H57915913   6.774   2.053   4.899  2.0293  0.3831 -0.2559
   18MOL   H58015914   6.963   2.170   4.940 -0.2759  0.0232 -1.8637
   18MOL   H58115915   6.745   2.544   4.871  1.6281  0.7232  1.6080
   18MOL   H58215916   6.550   2.422   4.847  0.1785  0.3767 -0.4189
   18MOL   H58315917   7.007   2.359   5.157 -1.6982  0.5358 -0.8357
   18MOL   H58415918   7.232   2.450   5.212  0.8485  0.0608  0.0016
   18MOL   H58515919   7.241   2.664   4.840 -0.3269  0.7195  0.0302
   18MOL   H58615920   7.033   2.539   4.768  1.1641  0.8290 -0.4539
   18MOL   C58715921   7.477   2.579   4.954  0.7336 -0.4220 -0.0294
   18MOL   C58815922   7.575   2.679   4.964 -0.0662  0.0290  0.5065
   18MOL   C58915923   7.678   2.673   4.874 -0.0897 -0.5897 -0.1215
   18MOL   C59015924   7.672   2.579   4.768  0.2843  0.1215 -0.2673
   18MOL   C59115925   7.568   2.493   4.753  0.7380 -0.2171  0.9708
   18MOL   C59215926   7.471   2.484   4.853 -0.1731  0.4465 -0.3583
   18MOL   S59315927   7.803   2.588   4.641  0.0311 -0.0244 -0.3982
   18MOL   O59415928   7.889   2.702   4.688 -0.3252 -0.5481 -0.2938
   18MOL   O59515929   7.745   2.597   4.507  0.4890  0.1159  0.0558
   18MOL   C59615930   7.883   2.427   4.657 -0.1157 -1.0237 -0.6396
   18MOL   C59715931   7.893   2.344   4.543  0.4973  0.4405  0.0816
   18MOL   C59815932   7.951   2.218   4.545  0.2965  0.2690 -0.2504
   18MOL   C59915933   8.013   2.178   4.672  0.0289  0.2428 -0.1273
   18MOL   C60015934   8.008   2.262   4.785  0.7657 -0.3897 -0.3522
   18MOL   C60115935   7.939   2.383   4.781 -0.0349 -0.2433 -0.1402
   18MOL   O60215936   8.072   2.051   4.671  0.2561  0.4827 -0.3929
   18MOL   C60315937   7.991   1.943   4.700  0.2068 -0.8042 -0.5018
   18MOL   C60415938   8.014   1.838   4.613  0.2013  0.4901 -0.5592
   18MOL   C60515939   7.941   1.717   4.626 -0.0260  1.0645  0.5854
   18MOL   C60615940   7.858   1.697   4.740  0.2350 -0.3628 -0.2097
   18MOL   C60715941   7.840   1.808   4.829  0.5699  0.2595 -0.6987
   18MOL   C60815942   7.899   1.928   4.804 -0.0397  0.6566 -0.3354
   18MOL   C60915943   7.767   1.584   4.752  0.4090  0.0923 -0.3004
   18MOL   C61015944   7.702   1.530   4.635  0.0569  0.1629  0.3367
   18MOL   C61115945   7.615   1.422   4.641 -0.6775  0.1365 -0.3067
   18MOL   C61215946   7.590   1.363   4.764 -0.3591  0.1999  0.5696
   18MOL   C61315947   7.637   1.416   4.888 -0.3453  0.3123  0.5582
   18MOL   C61415948   7.729   1.525   4.877 -0.2639  0.0567  0.0874
   18MOL   O61515949   7.483   1.278   4.764 -0.3637  0.3221 -0.6322
   18MOL   H61615950   7.580   2.754   5.042  1.4954 -0.7918  1.2235
   18MOL   H61715951   7.750   2.754   4.880  0.5734 -1.0400 -1.6612
   18MOL   H61815952   7.559   2.438   4.661 -2.2219  2.6694 -0.5701
   18MOL   H61915953   7.392   2.411   4.846  0.5823 -0.3841 -0.3715
   18MOL   H62015954   7.845   2.375   4.452 -0.1537 -0.4809  0.1064
   18MOL   H62115955   7.948   2.148   4.462 -0.5276  2.4560 -2.1080
   18MOL   H62215956   8.046   2.239   4.883 -3.4254  1.2391  1.7594
   18MOL   H62315957   7.933   2.443   4.870  1.2899 -3.2635  2.0647
   18MOL   H62415958   8.096   1.848   4.543  1.4522 -2.2285  0.4483
   18MOL   H62515959   7.948   1.634   4.557  0.2086  1.3692  0.2471
   18MOL   H62615960   7.769   1.799   4.910  0.0734 -0.0506 -1.1611
   18MOL   H62715961   7.889   2.013   4.869 -0.0870  0.9476 -0.7214
   18MOL   H62815962   7.720   1.577   4.540  0.1148  0.0419  0.2883
   18MOL   H62915963   7.568   1.382   4.552  0.5752 -0.1846 -0.8385
   18MOL   H63015964   7.610   1.360   4.976 -2.3681 -0.0997 -0.2945
   18MOL   H63115965   7.765   1.565   4.970 -2.7264  0.3546  0.9432
   18MOL   C63215966   7.357   1.328   4.753  0.2564  0.0167  0.1269
   18MOL   C63315967   7.295   1.336   4.625  0.1086  0.2846 -0.7634
   18MOL   C63415968   7.169   1.395   4.619 -0.0345 -0.4221 -0.4420
   18MOL   C63515969   7.104   1.436   4.732  0.0740 -0.1525  0.4734
   18MOL   C63615970   7.163   1.420   4.857 -0.3742  0.5919 -0.5377
   18MOL   C63715971   7.293   1.356   4.872 -0.4023 -0.1141  0.4570
   18MOL   S63815972   6.948   1.531   4.719  0.3861  0.3158  0.2898
   18MOL   O63915973   6.840   1.445   4.768 -0.1381  0.5788  0.2627
   18MOL   O64015974   6.937   1.578   4.580 -0.7817  0.5901 -0.3050
   18MOL   C64115975   6.965   1.665   4.837  0.1588 -0.0548  0.0101
   18MOL   C64215976   7.019   1.786   4.787  0.0348 -0.1346  0.1012
   18MOL   C64315977   7.067   1.885   4.874 -0.1414 -0.0254 -0.2696
   18MOL   C64415978   7.044   1.872   5.013  0.2035 -0.6748  0.7165
   18MOL   C64515979   6.975   1.756   5.060 -0.5193  0.5246 -0.0206
   18MOL   C64615980   6.936   1.650   4.974  0.1503 -0.3175 -0.0748
   18MOL   O64715981   7.088   1.973   5.105  0.2934  0.1995 -0.2477
   18MOL   C64815982   7.226   1.996   5.119  0.0217  0.4602  0.7969
   18MOL   C64915983   7.273   2.123   5.107  0.3208  0.0585  0.7386
   18MOL   C65015984   7.405   2.157   5.113 -0.5162  0.0574  0.1712
   18MOL   C65115985   7.501   2.047   5.131 -0.1958 -0.5333 -0.0509
   18MOL   C65215986   7.452   1.916   5.142 -0.2071  0.2400  0.2725
   18MOL   C65315987   7.314   1.888   5.142  0.7271  0.4945 -0.4137
   18MOL   C65415988   7.641   2.079   5.152  0.0296 -0.0921  1.3875
   18MOL   C65515989   7.692   2.196   5.095 -0.0214 -0.4297 -0.7555
   18MOL   C65615990   7.826   2.236   5.110 -0.1251 -0.0636  0.0886
   18MOL   C65715991   7.912   2.162   5.191 -0.5099 -0.1479 -0.0755
   18MOL   C65815992   7.861   2.040   5.244 -0.4113 -0.3577 -0.6524
   18MOL   C65915993   7.727   1.996   5.226  0.1875  0.1681  0.0663
   18MOL   O66015994   8.043   2.194   5.214  0.0563  0.1738 -0.1417
   18MOL   H66115995   7.354   1.304   4.541  0.1807  0.1891 -0.6762
   18MOL   H66215996   7.132   1.391   4.518  0.1411  0.5288 -0.5529
   18MOL   H66315997   7.110   1.435   4.950 -0.7388 -0.8730 -0.4857
   18MOL   H66415998   7.336   1.340   4.970 -2.0879  1.7265  1.5419
   18MOL   H66515999   7.040   1.784   4.681  0.9485 -1.7147  0.2920
   18MOL   H66616000   7.117   1.967   4.825 -2.1405  1.3430 -0.0604
   18MOL   H66716001   6.965   1.757   5.167  0.5629 -1.6900  0.1250
   18MOL   H66816002   6.905   1.559   5.023  2.8631 -1.8629 -1.0710
   18MOL   H66916003   7.205   2.204   5.081  0.5054  0.4036  1.3338
   18MOL   H67016004   7.433   2.260   5.100 -0.0104 -0.0613  0.2888
   18MOL   H67116005   7.521   1.835   5.155 -0.1645  0.4948  1.6480
   18MOL   H67216006   7.270   1.792   5.160 -0.0882  1.0940  0.8889
   18MOL   H67316007   7.635   2.250   5.020 -1.1119 -0.7681 -0.1879
   18MOL   H67416008   7.862   2.330   5.071  3.6143 -1.4611 -0.0097
   18MOL   H67516009   7.918   1.980   5.314  0.8977  0.6255 -0.8523
   18MOL   H67616010   7.698   1.907   5.279 -1.6917  0.7626  0.0782
   18MOL   C67716011   8.140   2.162   5.119  0.4040 -0.2722  0.2260
   18MOL   C67816012   8.131   2.041   5.049 -0.4164 -0.0527 -0.1269
   18MOL   C67916013   8.228   2.018   4.947  0.2233 -0.0861  0.6596
   18MOL   C68016014   8.331   2.104   4.922 -0.3795 -0.7421  0.1211
   18MOL   C68116015   8.344   2.228   4.998  1.1492  0.4184  0.1352
   18MOL   C68216016   8.247   2.255   5.101  0.5918 -0.1165 -0.0013
   18MOL   S68316017   0.069   2.076   4.782 -0.1924  0.4652 -0.0395
   18MOL   O68416018   0.070   1.934   4.737  0.5995 -0.2621 -0.2459
   18MOL   O68516019   0.204   2.130   4.807  0.2704  0.7935 -0.4117
   18MOL   C68616020   8.366   2.176   4.642 -0.1313 -0.0651 -0.3754
   18MOL   C68716021   0.008   2.317   4.655  0.4698 -0.0588 -1.4034
   18MOL   C68816022   8.349   2.401   4.538 -0.7368  0.8258  0.0684
   18MOL   C68916023   8.300   2.342   4.427 -0.0058 -0.1549 -0.0997
   18MOL   C69016024   8.288   2.201   4.417 -0.5951 -0.2556  0.3658
   18MOL   C69116025   8.330   2.117   4.520  0.1278  0.1420 -1.1226
   18MOL   O69216026   8.272   2.417   4.319 -0.6902  0.2879  0.1014
   18MOL   C69316027   8.142   2.420   4.283  0.2728 -0.6089  0.5551
   18MOL   C69416028   8.080   2.316   4.207  0.1091  0.0960  0.4734
   18MOL   C69516029   7.941   2.325   4.173 -0.0221 -0.3081 -0.3477
   18MOL   C69616030   7.868   2.441   4.193  0.2433 -0.0420 -0.1365
   18MOL   C69716031   7.925   2.543   4.271  0.9503 -0.1462 -0.3139
   18MOL   C69816032   8.060   2.531   4.311  0.2522 -0.1546 -0.2968
   18MOL   C69916033   7.734   2.447   4.141 -0.3479 -0.3330 -0.8118
   18MOL   C70016034   7.711   2.422   4.005  0.0898 -0.4780 -0.3455
   18MOL   C70116035   7.581   2.439   3.954  0.7194 -0.5898 -0.4556
   18MOL   C70216036   7.474   2.477   4.035  0.0580  0.4258  0.3726
   18MOL   C70316037   7.501   2.489   4.173  0.5189 -0.0112 -0.5814
   18MOL   C70416038   7.627   2.475   4.223  0.7183  0.3356  0.5681
   18MOL   O70516039   7.344   2.497   3.991 -0.0274  0.0104 -0.1528
   18MOL   H70616040   8.054   1.967   5.068 -0.6531  0.3499  0.4935
   18MOL   H70716041   8.217   1.927   4.889  1.3778  0.7238 -0.8360
   18MOL   H70816042   0.053   2.301   4.976  0.4338  1.7750  2.0474
   18MOL   H70916043   8.245   2.342   5.165 -0.8989  0.0122 -0.2190
   18MOL   H71016044   0.047   2.357   4.748  0.4011 -3.6521  0.2282
   18MOL   H71116045   0.000   2.507   4.553 -0.5070  0.8694 -0.4873
   18MOL   H71216046   8.249   2.166   4.322 -2.6311  1.4207  0.5302
   18MOL   H71316047   8.318   2.010   4.516 -1.2469  0.2837 -1.2384
   18MOL   H71416048   8.139   2.232   4.172 -0.3045 -0.0544  0.1392
   18MOL   H71516049   7.897   2.245   4.115  0.3096  0.1510 -1.2406
   18MOL   H71616050   7.868   2.633   4.293 -1.3660 -1.5139 -0.5697
   18MOL   H71716051   8.107   2.608   4.370  1.5462 -0.6769 -0.6133
   18MOL   H71816052   7.797   2.407   3.941 -0.4967  0.2396 -1.3048
   18MOL   H71916053   7.566   2.427   3.848  1.2112 -0.6410 -0.5223
   18MOL   H72016054   7.422   2.521   4.240  2.5713  0.0187  1.8836
   18MOL   H72116055   7.627   2.494   4.330  0.4543  1.4618  0.3795
   18MOL   C72216056   7.282   2.389   3.936 -0.3205  0.1404 -0.4171
   18MOL   C72316057   7.313   2.344   3.810  0.3142  0.7056 -0.8337
   18MOL   C72416058   7.246   2.240   3.747  0.4058 -0.3188  0.7811
   18MOL   C72516059   7.153   2.166   3.825  0.0629 -1.0221 -0.5524
   18MOL   C72616060   7.127   2.208   3.962 -0.1068  0.2675  0.4092
   18MOL   C72716061   7.185   2.321   4.014  0.0862 -0.3135  0.7569
   18MOL   S72816062   7.086   2.025   3.749 -0.5218 -0.1443 -0.3410
   18MOL   O72916063   7.100   1.921   3.856 -0.3007  0.4113  0.3279
   18MOL   O73016064   7.159   2.007   3.626 -0.0983 -0.5853  0.2079
   18MOL   C73116065   6.911   2.055   3.737 -0.4499 -0.0336  0.1551
   18MOL   C73216066   6.832   2.076   3.853 -0.3742  0.1953  0.8926
   18MOL   C73316067   6.701   2.117   3.845  0.2080 -0.4746 -0.2381
   18MOL   C73416068   6.640   2.133   3.717 -0.5839 -0.1116 -0.3252
   18MOL   C73516069   6.717   2.109   3.600  0.1572 -0.2310 -1.1641
   18MOL   C73616070   6.852   2.062   3.608 -0.1228  0.3276 -0.7585
   18MOL   O73716071   6.506   2.162   3.711  0.1732 -0.0887 -0.0890
   18MOL   C73816072   6.458   2.239   3.615 -0.0235  0.0013 -0.0562
   18MOL   C73916073   6.374   2.186   3.510  0.2109  0.3594  0.6947
   18MOL   C74016074   6.340   2.276   3.405  0.2665 -0.2298 -0.2443
   18MOL   C74116075   6.368   2.416   3.406  0.3369 -0.5839 -0.5613
   18MOL   C74216076   6.439   2.469   3.515  0.0934  0.1116 -0.1575
   18MOL   C74316077   6.495   2.376   3.612 -0.4549  0.0803  0.2794
   18MOL   C74416078   6.327   2.500   3.295 -0.0583  0.8718  0.1741
   18MOL   C74516079   6.361   2.449   3.166  0.2371  0.6313 -0.0662
   18MOL   C74616080   6.316   2.516   3.051  1.2056 -0.3288 -0.4792
   18MOL   C74716081   6.240   2.637   3.062  0.5109 -0.4624  0.0720
   18MOL   C74816082   6.218   2.693   3.188  0.9710  0.2161  0.2102
   18MOL   C74916083   6.262   2.624   3.304 -1.0207 -0.1156  0.1799
   18MOL   O75016084   6.205   2.703   2.945 -0.1106 -0.7598 -0.0308
   18MOL   H75116085   7.391   2.393   3.753 -2.9823  2.2093 -4.2932
   18MOL   H75216086   7.264   2.211   3.644 -3.0865 -2.4652  0.6747
   18MOL   H75316087   7.068   2.138   4.020 -0.4054  0.0765 -0.1184
   18MOL   H75416088   7.145   2.349   4.111 -1.2510 -0.5061  0.2644
   18MOL   H75516089   6.875   2.057   3.951  1.1092 -3.8088 -0.4464
   18MOL   H75616090   6.646   2.123   3.937 -0.2972  2.1788 -0.6951
   18MOL   H75716091   6.676   2.117   3.500  0.7122 -0.0487 -1.3800
   18MOL   H75816092   6.902   2.039   3.515  2.1646  0.7512  0.3499
   18MOL   H75916093   6.336   2.086   3.516  0.7475 -0.0156 -1.6498
   18MOL   H76016094   6.281   2.242   3.322 -0.0284  1.7787 -0.8715
   18MOL   H76116095   6.470   2.572   3.522  2.6785 -0.7100  1.3263
   18MOL   H76216096   6.566   2.410   3.686  0.7127 -0.0640 -0.7658
   18MOL   H76316097   6.421   2.359   3.167  0.1227  0.5632  0.4714
   18MOL   H76416098   6.337   2.486   2.949 -1.4003  1.8635 -1.7191
   18MOL   H76516099   6.155   2.781   3.195 -0.0878 -0.5547  0.6476
   18MOL   H76616100   6.252   2.668   3.402  0.9542 -2.8208  1.6872
   18MOL   C76716101   6.073   2.700   2.900 -0.0910  0.1685 -0.7019
   18MOL   C76816102   6.001   2.818   2.915  0.9984 -0.1495 -0.6033
   18MOL   C76916103   5.871   2.833   2.854 -0.6988  0.0148 -0.8617
   18MOL   C77016104   5.821   2.722   2.773 -0.1055 -0.5329 -0.9121
   18MOL   C77116105   5.890   2.596   2.769 -1.3296  0.0976 -0.2667
   18MOL   C77216106   6.008   2.589   2.839 -0.3844  0.2845  0.1264
   18MOL   S77316107   5.658   2.734   2.702  0.1699 -0.3923  0.1325
   18MOL   O77416108   5.569   2.665   2.800  0.4976  0.5493 -0.0853
   18MOL   O77516109   5.667   2.683   2.563 -0.1632 -0.2331 -0.7395
   18MOL   C77616110   5.597   2.904   2.689 -0.1812  0.8713 -0.0608
   18MOL   C77716111   5.549   2.973   2.805 -0.0538 -0.0850  0.1579
   18MOL   C77816112   5.511   3.109   2.802 -0.3669  0.3270  0.1924
   18MOL   C77916113   5.520   3.172   2.679 -0.3087  0.5594  0.1514
   18MOL   C78016114   5.563   3.113   2.566  0.9889  0.0203  0.0949
   18MOL   C78116115   5.595   2.974   2.569 -0.5648  0.3200 -0.0174
   18MOL   O78216116   5.471   3.300   2.677  0.3244 -0.1921  0.0325
   18MOL   C78316117   5.334   3.312   2.702 -0.2051 -0.4181 -0.4236
   18MOL   C78416118   5.288   3.396   2.806  0.4867  0.5559  0.6531
   18MOL   C78516119   5.145   3.401   2.839  0.2271  0.1668 -0.3182
   18MOL   C78616120   5.050   3.320   2.768 -0.4697  0.1221 -0.3849
   18MOL   C78716121   5.099   3.249   2.659 -0.8530  0.8533  0.0947
   18MOL   C78816122   5.240   3.238   2.629  0.0377  0.3840 -0.8904
   18MOL   C78916123   4.912   3.288   2.832 -0.0174 -0.4248  0.8182
   18MOL   C79016124   4.892   3.180   2.916 -0.4071  0.4241 -0.0139
   18MOL   C79116125   4.763   3.139   2.959  0.1715  0.3749  0.7894
   18MOL   C79216126   4.656   3.227   2.932 -0.6205  1.1676  0.8558
   18MOL   C79316127   4.674   3.336   2.844 -0.1369 -0.2371 -0.0894
   18MOL   C79416128   4.798   3.363   2.789 -0.7465  0.4591  0.5907
   18MOL   O79516129   4.533   3.211   2.988  1.5893  0.3508 -0.4420
   18MOL   H79616130   6.039   2.902   2.971 -0.1116 -0.1831  0.2146
   18MOL   H79716131   5.816   2.926   2.858  0.8793  0.9843 -1.0471
   18MOL   H79816132   5.859   2.508   2.715 -0.2491 -0.5559  0.1648
   18MOL   H79916133   6.058   2.494   2.826 -0.8219  0.1396 -0.5345
   18MOL   H80016134   5.559   2.920   2.899  1.5018  1.6056  0.9841
   18MOL   H80116135   5.467   3.153   2.890  0.4039 -2.7762  2.1970
   18MOL   H80216136   5.577   3.161   2.470  1.7806  1.3964  0.8898
   18MOL   H80316137   5.624   2.914   2.485 -1.9712 -1.2075  0.5606
   18MOL   H80416138   5.359   3.457   2.861  0.4144  1.0965  0.1607
   18MOL   H80516139   5.121   3.469   2.919  1.0885  2.2409 -1.7828
   18MOL   H80616140   5.038   3.180   2.604  0.1491  1.7641 -2.2166
   18MOL   H80716141   5.274   3.184   2.543  1.5011  1.9441 -1.3260
   18MOL   H80816142   4.966   3.105   2.939  0.4546  1.2477 -0.0662
   18MOL   H80916143   4.745   3.050   3.018  3.2035  0.2858  1.6614
   18MOL   H81016144   4.590   3.397   2.814  0.8087  2.1945  1.9719
   18MOL   H81116145   4.809   3.441   2.716 -0.0662 -0.8582 -0.7554
   18MOL   C81216146   4.455   3.107   2.963  0.3314  0.4819 -0.3703
   18MOL   C81316147   4.382   3.053   3.074  0.4176 -0.0237  0.3760
   18MOL   C81416148   4.272   2.967   3.044  0.1330  0.3344 -0.4606
   18MOL   C81516149   4.253   2.921   2.914  0.4582  0.1093  0.0437
   18MOL   C81616150   4.327   2.966   2.801 -0.6621  0.0435  0.0577
   18MOL   C81716151   4.430   3.060   2.831 -0.6678 -0.6282  0.5390
   18MOL   S81816152   4.118   2.804   2.877  0.0466 -0.0470  0.4373
   18MOL   O81916153   4.022   2.820   2.990  0.4879  0.4478 -0.4594
   18MOL   O82016154   4.167   2.665   2.847  0.2876 -0.1631  0.2709
   18MOL   C82116155   4.045   2.866   2.722 -0.4287  0.6853 -0.6889
   18MOL   C82216156   4.069   2.794   2.601 -0.1348  0.0562 -0.0982
   18MOL   C82316157   4.005   2.843   2.483 -0.4980 -0.3371 -0.4298
   18MOL   C82416158   3.933   2.966   2.486  0.3564 -0.0196 -0.2535
   18MOL   C82516159   3.911   3.025   2.609  0.1271 -0.7273  0.0814
   18MOL   C82616160   3.968   2.981   2.727  0.3805  0.1522  0.3321
   18MOL   O82716161   3.888   3.020   2.368  0.2413 -0.3592 -0.1602
   18MOL   C82816162   3.757   3.006   2.345  0.0580 -0.2651 -0.0236
   18MOL   C82916163   3.735   2.917   2.240  0.7207 -0.5387  0.0594
   18MOL   C83016164   3.607   2.874   2.216  0.4685  0.1632  0.3736
   18MOL   C83116165   3.495   2.917   2.295 -0.6560  1.0198  0.4445
   18MOL   C83216166   3.524   3.003   2.406  0.2131  0.4353  0.0485
   18MOL   C83316167   3.651   3.054   2.430  0.6261  0.3538  0.4589
   18MOL   C83416168   3.354   2.873   2.282 -0.0086 -0.2101  0.1487
   18MOL   C83516169   3.242   2.967   2.271 -0.2274  0.1718  0.2848
   18MOL   C83616170   3.123   2.916   2.226 -0.6041 -1.1314 -0.4440
   18MOL   C83716171   3.107   2.778   2.199  0.1294 -0.0263  0.3764
   18MOL   C83816172   3.216   2.688   2.214 -0.5571 -0.0934  0.3545
   18MOL   C83916173   3.339   2.740   2.246  0.2639 -0.5274  0.1964
   18MOL   O84016174   2.989   2.731   2.147 -0.4467 -0.4047 -0.5923
   18MOL   H84116175   4.404   3.093   3.172 -0.0256  2.2257 -0.4209
   18MOL   H84216176   4.199   2.945   3.120  1.8737 -0.1421  1.1134
   18MOL   H84316177   4.316   2.932   2.700 -1.9536  0.0296  0.1906
   18MOL   H84416178   4.483   3.108   2.749  1.8457 -2.3863  1.0923
   18MOL   H84516179   4.139   2.712   2.601  0.3763  0.4698 -2.0724
   18MOL   H84616180   4.022   2.782   2.395  0.2686 -1.1588  0.2903
   18MOL   H84716181   3.859   3.119   2.620  0.6300 -0.3011 -1.0552
   18MOL   H84816182   3.966   3.036   2.819  3.1082 -1.7576  1.5948
   18MOL   H84916183   3.817   2.876   2.183 -0.4041  0.0180 -2.0204
   18MOL   H85016184   3.599   2.801   2.137 -1.9175  0.8198 -0.0061
   18MOL   H85116185   3.444   3.020   2.476  0.8283  1.9910  0.3784
   18MOL   H85216186   3.669   3.123   2.511  0.4566 -1.4809  2.1023
   18MOL   H85316187   3.271   3.068   2.297  1.4709  0.0559 -1.1096
   18MOL   H85416188   3.046   2.988   2.202 -0.5106 -1.3429 -1.3823
   18MOL   H85516189   3.210   2.587   2.177  0.4034  0.3301 -0.9773
   18MOL   H85616190   3.430   2.683   2.241  0.5825  0.1036 -1.6441
   18MOL   C85716191   2.884   2.718   2.237 -0.4295  0.2059  0.1401
   18MOL   C85816192   2.905   2.668   2.369  0.3409  0.4411 -0.3518
   18MOL   C85916193   2.793   2.654   2.450  0.9208  0.1710 -0.0746
   18MOL   C86016194   2.662   2.660   2.399 -0.5133 -0.2887 -0.5155
   18MOL   C86116195   2.639   2.711   2.269  0.8240  0.6801  0.0837
   18MOL   C86216196   2.753   2.740   2.185  0.2503 -0.2966 -0.1191
   18MOL   S86316197   2.515   2.614   2.500  0.0168 -0.3429 -0.0847
   18MOL   O86416198   2.421   2.728   2.483  0.5390 -0.0669  0.0584
   18MOL   O86516199   2.572   2.584   2.630  0.1796 -0.0261 -0.3404
   18MOL   C86616200   2.441   2.468   2.432  0.2845 -0.3628 -0.2795
   18MOL   C86716201   2.442   2.350   2.514 -0.7157  0.6367 -0.1066
   18MOL   C86816202   2.376   2.231   2.477  0.0778 -0.2379  0.0563
   18MOL   C86916203   2.307   2.230   2.358 -0.2043 -0.7047 -0.0108
   18MOL   C87016204   2.286   2.352   2.283  0.2187  0.0145 -0.1005
   18MOL   C87116205   2.359   2.472   2.316 -0.4202 -1.3237  0.2397
   18MOL   O87216206   2.225   2.123   2.333  0.5787 -0.8375  0.4721
   18MOL   C87316207   2.267   2.037   2.239  0.1961  0.4884 -0.4313
   18MOL   C87416208   2.217   2.047   2.103 -0.1602  0.7105  0.9277
   18MOL   C87516209   2.259   1.956   2.007  0.1177 -0.4539  0.1761
   18MOL   C87616210   2.345   1.853   2.032  0.1288 -0.2277 -1.0999
   18MOL   C87716211   2.402   1.848   2.162 -0.6146  0.4041 -0.0281
   18MOL   C87816212   2.357   1.930   2.267  0.4132 -0.1747 -0.0756
   18MOL   C87916213   2.377   1.757   1.927  0.4698  0.2445 -0.9138
   18MOL   C88016214   2.508   1.719   1.923 -0.1774  0.4994  1.0663
   18MOL   C88116215   2.546   1.638   1.814 -0.0369  0.7493 -0.7375
   18MOL   C88216216   2.453   1.581   1.728 -0.4514 -0.5914  0.2145
   18MOL   C88316217   2.314   1.607   1.745 -0.1334  0.2486  0.4183
   18MOL   C88416218   2.280   1.703   1.839  0.0938 -0.2234 -0.4537
   18MOL   O88516219   2.496   1.505   1.622 -0.8651 -0.4001  0.1082
   18MOL   H88616220   3.008   2.656   2.400  0.9024  0.8279 -2.0068
   18MOL   H88716221   2.798   2.618   2.552 -5.6774 -2.0702 -0.3020
   18MOL   H88816222   2.536   2.717   2.235  0.0267 -1.0670  2.0543
   18MOL   H88916223   2.739   2.783   2.087  1.1992  0.7141  0.1807
   18MOL   H89016224   2.504   2.348   2.602 -2.2490  1.1016  0.9902
   18MOL   H89116225   2.394   2.143   2.537  2.3728  1.6657  2.2350
   18MOL   H89216226   2.206   2.348   2.210 -0.1898 -0.7182  0.3766
   18MOL   H89316227   2.349   2.561   2.257  0.1067 -0.6228  1.1956
   18MOL   H89416228   2.138   2.119   2.085  0.3392  0.3522 -3.2901
   18MOL   H89516229   2.224   1.968   1.905 -2.0095 -0.4373  0.8749
   18MOL   H89616230   2.477   1.776   2.192 -0.8250  1.3739  2.9502
   18MOL   H89716231   2.400   1.938   2.366  1.7120 -0.9335 -0.5757
   18MOL   H89816232   2.586   1.754   1.990  0.4909  1.2960 -0.0915
   18MOL   H89916233   2.650   1.619   1.792 -0.0905  2.3224 -2.4727
   18MOL   H90016234   2.232   1.570   1.684 -0.9239  1.0796  0.9587
   18MOL   H90116235   2.179   1.740   1.855  1.4285  2.4169  2.4938
   18MOL   H90216236   2.427   1.470   1.568 -1.2637 -1.4767  1.2921
   19MOL     C116237   0.767   3.740   6.324 -0.1859 -0.3477  0.1111
   19MOL     C216238   0.854   3.745   6.437  0.0684 -0.9612 -0.3624
   19MOL     C316239   0.939   3.860   6.442  0.0929  0.3319  0.0902
   19MOL     C416240   0.919   3.971   6.353  0.3272 -0.7108  0.8262
   19MOL     C516241   0.836   3.962   6.245  0.2018 -0.3915  0.2232
   19MOL     C616242   0.760   3.846   6.232  0.4824  0.2968 -0.1508
   19MOL     S716243   1.015   4.117   6.365  0.5838  0.3019 -0.3751
   19MOL     O816244   0.937   4.223   6.298 -0.3361 -0.2591  0.1919
   19MOL     O916245   1.148   4.089   6.318 -0.0323 -0.3502 -0.1803
   19MOL    C1016246   1.023   4.148   6.539 -0.2441 -1.0545  0.3442
   19MOL    C1116247   1.146   4.143   6.610  0.5431  0.8583  0.8143
   19MOL    C1216248   1.147   4.167   6.748  0.2172  0.4492  0.0400
   19MOL    C1316249   1.025   4.197   6.813  0.0394 -0.7598  0.4857
   19MOL    C1416250   0.903   4.201   6.738  0.3244 -0.6116  0.0265
   19MOL    C1516251   0.902   4.175   6.602  0.1399  0.6858 -0.7214
   19MOL    O1616252   1.025   4.222   6.951 -0.5859 -0.0058  0.2683
   19MOL    C1716253   1.032   4.349   6.999  0.0905  0.2499 -0.4223
   19MOL    C1816254   1.092   4.458   6.927 -0.2978  0.5496 -0.5543
   19MOL    C1916255   1.124   4.585   6.991  0.2046  0.0038  0.1636
   19MOL    C2016256   1.090   4.607   7.128 -0.5406  0.0192 -0.6197
   19MOL    C2116257   1.035   4.495   7.204  0.1524 -0.8562 -0.2887
   19MOL    C2216258   1.005   4.373   7.139 -0.1653 -0.6985  0.4725
   19MOL    C2316259   1.107   4.746   7.185  0.2308 -0.0392  0.3061
   19MOL    C2416260   1.014   4.802   7.277  0.2338  0.7341  0.2972
   19MOL    C2516261   1.030   4.924   7.342  0.0478 -0.1825  0.0635
   19MOL    C2616262   1.144   5.001   7.309 -0.7604 -0.0587  0.7175
   19MOL    C2716263   1.229   4.956   7.206  0.8581  0.3432 -1.1809
   19MOL    C2816264   1.212   4.833   7.146  0.1514  0.2330  0.4040
   19MOL    O2916265   1.171   5.121   7.373 -0.2437 -0.1055 -0.5169
   19MOL    H3016266   0.865   3.664   6.507 -0.0233  0.2455  1.0883
   19MOL    H3116267   1.014   3.877   6.519 -1.9352  0.5313  2.0696
   19MOL    H3216268   0.829   4.043   6.173 -0.5164  0.6397  1.4311
   19MOL    H3316269   0.697   3.839   6.145 -1.8404 -0.3967  1.5334
   19MOL    H3416270   1.237   4.129   6.553 -0.5238 -0.3864 -0.6347
   19MOL    H3516271   1.240   4.171   6.802  0.1338  2.9841  0.0516
   19MOL    H3616272   0.809   4.225   6.786  0.9176 -0.0429  0.9390
   19MOL    H3716273   0.808   4.188   6.550 -0.3734 -0.0281  0.0323
   19MOL    H3816274   1.108   4.440   6.822  2.0352 -2.8757  0.2973
   19MOL    H3916275   1.163   4.666   6.931 -0.0977 -0.3397 -0.4997
   19MOL    H4016276   1.016   4.494   7.310 -2.2292 -0.1251 -0.6868
   19MOL    H4116277   0.945   4.297   7.187  1.0917 -2.4077 -0.6082
   19MOL    H4216278   0.926   4.741   7.291  0.9005 -0.7337 -1.5991
   19MOL    H4316279   0.962   4.967   7.414  1.1903  2.2951 -0.2927
   19MOL    H4416280   1.316   5.012   7.172  2.0523 -0.6053  0.2857
   19MOL    H4516281   1.281   4.804   7.068  0.6542 -1.5523  1.4951
   19MOL    H4616282   0.705   3.654   6.307  1.0659 -1.3095  0.2820
   19MOL    C4716283   1.294   5.141   7.435 -0.4302  0.5729  0.1649
   19MOL    C4816284   1.315   5.144   7.578 -0.2791 -0.7040 -0.4303
   19MOL    C4916285   1.442   5.171   7.627 -0.3772  0.3981  0.8595
   19MOL    C5016286   1.547   5.207   7.540  0.1673 -0.0961 -0.0870
   19MOL    C5116287   1.527   5.207   7.397 -0.6602 -0.4327  0.0608
   19MOL    C5216288   1.400   5.181   7.347  0.0742 -0.0739 -0.1463
   19MOL    S5316289   1.714   5.213   7.604  0.2059 -0.1606 -0.3105
   19MOL    O5416290   1.806   5.228   7.489  0.1770  0.8216 -0.1375
   19MOL    O5516291   1.725   5.105   7.699  0.2714  0.3642  0.0383
   19MOL    C5616292   1.716   5.373   7.689  0.2633  0.6308 -0.5669
   19MOL    C5716293   1.749   5.387   7.819  0.3698  0.0567 -0.0845
   19MOL    C5816294   1.743   5.514   7.879  0.1628 -0.0462 -0.4433
   19MOL    C5916295   1.686   5.624   7.810  0.1032 -1.1176  1.0072
   19MOL    C6016296   1.657   5.614   7.673 -0.1102  0.2161  0.3694
   19MOL    C6116297   1.676   5.483   7.615  0.0728 -0.9151  0.2923
   19MOL    O6216298   1.687   5.743   7.873  0.0406  0.1268 -0.5775
   19MOL    C6316299   1.570   5.788   7.930  0.7339  0.4522 -0.8274
   19MOL    C6416300   1.539   5.756   8.063 -0.2120 -0.6362  0.2445
   19MOL    C6516301   1.417   5.792   8.118 -0.0460  0.4537  0.3636
   19MOL    C6616302   1.312   5.852   8.038  0.1095  0.3880 -0.6164
   19MOL    C6716303   1.347   5.894   7.906 -0.5348  0.3091  0.5294
   19MOL    C6816304   1.472   5.855   7.851 -0.1126  0.1232  0.4103
   19MOL    C6916305   1.172   5.875   8.081 -0.9924 -0.5825 -1.1173
   19MOL    C7016306   1.109   5.786   8.169  0.7585  0.4611 -0.3272
   19MOL    C7116307   0.970   5.799   8.189  0.6420  0.2440 -0.1201
   19MOL    C7216308   0.895   5.903   8.126  0.3937  0.2961 -1.1109
   19MOL    C7316309   0.962   6.001   8.051  0.3580  0.0481 -0.2433
   19MOL    C7416310   1.105   5.991   8.034  0.8797 -0.2699 -0.5971
   19MOL    O7516311   0.755   5.910   8.137  0.6812  0.4977 -0.4709
   19MOL    H7616312   1.239   5.126   7.652  0.7621 -1.8871  0.3651
   19MOL    H7716313   1.461   5.164   7.733 -0.5307 -1.6107  0.7788
   19MOL    H7816314   1.606   5.235   7.329 -1.7888  0.5497 -0.8764
   19MOL    H7916315   1.389   5.185   7.240 -2.4594  2.3543  0.1259
   19MOL    H8016316   1.789   5.301   7.871 -2.2726 -2.3874 -1.9553
   19MOL    H8116317   1.769   5.520   7.984  0.0531  1.1539 -0.4738
   19MOL    H8216318   1.629   5.703   7.619  2.7788 -0.1882 -1.9237
   19MOL    H8316319   1.657   5.472   7.510 -0.6926 -0.1729  0.3409
   19MOL    H8416320   1.616   5.705   8.118 -0.7437 -1.1042  0.5576
   19MOL    H8516321   1.392   5.767   8.220  1.9526 -0.1833  0.7244
   19MOL    H8616322   1.278   5.941   7.839 -2.5214 -0.4805  1.9857
   19MOL    H8716323   1.489   5.876   7.746  0.9686 -1.3163  0.2910
   19MOL    H8816324   1.157   5.696   8.204 -1.6541 -0.5697  0.4683
   19MOL    H8916325   0.920   5.720   8.241  2.3501 -0.5057  0.4038
   19MOL    H9016326   0.914   6.080   7.994  1.3368 -0.0707 -1.2604
   19MOL    H9116327   1.156   6.056   7.964 -0.7929  1.1914 -0.4857
   19MOL    C9216328   0.690   5.910   8.016 -0.6829 -0.0580  0.1379
   19MOL    C9316329   0.611   6.023   7.974  0.3566 -0.0574  0.2149
   19MOL    C9416330   0.563   6.026   7.843 -0.3331  0.1344  0.9621
   19MOL    C9516331   0.553   5.912   7.765 -0.4986 -0.9578 -0.2864
   19MOL    C9616332   0.623   5.801   7.803  0.2656 -0.2344 -0.8821
   19MOL    C9716333   0.694   5.802   7.925  0.1660 -0.3602  0.5907
   19MOL    S9816334   0.479   5.923   7.605  0.1263 -0.2118  0.1444
   19MOL    O9916335   0.369   6.019   7.617  0.3467  0.4252  0.7809
   19MOL   O10016336   0.450   5.787   7.554 -0.3014  0.0943 -0.0960
   19MOL   C10116337   0.602   5.998   7.500 -0.6151 -1.0846  0.1355
   19MOL   C10216338   0.689   5.911   7.428 -0.6085 -0.1536 -0.4971
   19MOL   C10316339   0.778   5.970   7.341  0.4173 -0.3802  0.1904
   19MOL   C10416340   0.795   6.109   7.333  0.5002 -0.2084 -0.6096
   19MOL   C10516341   0.711   6.191   7.406 -0.4176 -0.8388  0.5513
   19MOL   C10616342   0.609   6.141   7.482 -0.4488  0.6704  1.0183
   19MOL   O10716343   0.888   6.164   7.255  0.2973 -0.2957 -0.0128
   19MOL   C10816344   0.905   6.122   7.128 -0.5993  0.4396 -0.0088
   19MOL   C10916345   1.025   6.049   7.100  0.1917 -0.4852 -0.2196
   19MOL   C11016346   1.051   6.005   6.970 -0.5647  0.7304 -0.5800
   19MOL   C11116347   0.955   6.016   6.864  0.2491  0.2545 -0.0312
   19MOL   C11216348   0.831   6.071   6.902 -0.3956  0.7032  0.0385
   19MOL   C11316349   0.810   6.133   7.026 -0.7000  0.1409  0.1735
   19MOL   C11416350   0.989   5.973   6.728  0.3405 -0.2418  0.1415
   19MOL   C11516351   0.952   6.058   6.619  0.3160 -0.8178 -0.1026
   19MOL   C11616352   0.973   6.013   6.489 -0.8155 -0.2442 -0.6377
   19MOL   C11716353   1.056   5.901   6.468  0.0321  0.2758  0.9652
   19MOL   C11816354   1.110   5.823   6.573  0.0441  0.0756 -0.5024
   19MOL   C11916355   1.071   5.856   6.702 -0.7045  0.4116  0.1108
   19MOL   O12016356   1.097   5.864   6.342  0.4012 -0.4883 -0.1919
   19MOL   H12116357   0.600   6.112   8.033 -2.1841 -1.3137  1.7158
   19MOL   H12216358   0.516   6.117   7.810  4.0515  2.4046  0.6103
   19MOL   H12316359   0.625   5.712   7.743  4.6945 -0.2867 -0.8127
   19MOL   H12416360   0.762   5.720   7.943  3.8742  2.7236  1.3126
   19MOL   H12516361   0.680   5.803   7.434  0.7666 -0.4118 -2.6346
   19MOL   H12616362   0.841   5.906   7.280  0.7647 -1.3859  1.5824
   19MOL   H12716363   0.714   6.298   7.387 -2.2944 -1.2594 -2.5444
   19MOL   H12816364   0.539   6.211   7.524 -3.1122  0.2442 -2.4129
   19MOL   H12916365   1.102   6.033   7.174 -0.8648  0.9227  1.2147
   19MOL   H13016366   1.143   5.950   6.966  0.1626  1.7106  1.6955
   19MOL   H13116367   0.750   6.065   6.832 -1.7395 -2.9161  1.7543
   19MOL   H13216368   0.713   6.179   7.041  0.0649  2.4758 -1.6725
   19MOL   H13316369   0.925   6.162   6.636  0.5035 -0.8482  0.3935
   19MOL   H13416370   0.946   6.084   6.411 -1.1695 -0.7494 -0.9736
   19MOL   H13516371   1.168   5.733   6.560 -0.8278 -0.3847 -1.2296
   19MOL   H13616372   1.102   5.802   6.790  2.6392  0.1807 -1.1437
   19MOL   C13716373   1.209   5.922   6.293 -1.0492 -0.6127  0.1693
   19MOL   C13816374   1.205   6.057   6.252  0.0461 -0.2543  0.0400
   19MOL   C13916375   1.320   6.116   6.194 -0.1909  0.9505 -0.1905
   19MOL   C14016376   1.430   6.034   6.167  0.1608  0.1191 -0.0763
   19MOL   C14116377   1.433   5.898   6.211 -0.1840 -0.3984  0.1908
   19MOL   C14216378   1.321   5.846   6.274  0.1291 -0.0599 -0.3587
   19MOL   S14316379   1.573   6.095   6.072 -0.1817  0.1000  0.1755
   19MOL   O14416380   1.630   5.998   5.976 -0.2464  0.2015  0.3692
   19MOL   O14516381   1.657   6.152   6.173  0.6212  0.2572  1.1436
   19MOL   C14616382   1.502   6.237   5.975  0.1609  0.0897  0.2190
   19MOL   C14716383   1.511   6.367   6.025  0.4879 -0.4887 -0.1314
   19MOL   C14816384   1.439   6.465   5.953  1.0004  0.2833 -0.4020
   19MOL   C14916385   1.377   6.433   5.824  0.3678 -0.2314  0.3110
   19MOL   C15016386   1.388   6.304   5.775  0.6518  0.9281  0.1039
   19MOL   C15116387   1.448   6.211   5.853 -0.0418 -0.3042 -0.1915
   19MOL   O15216388   1.308   6.521   5.750 -0.4106  0.0503 -0.2274
   19MOL   C15316389   1.266   6.636   5.804  0.1982  0.3640  0.3239
   19MOL   C15416390   1.299   6.753   5.740  0.2486 -0.3904 -0.2276
   19MOL   C15516391   1.251   6.877   5.788 -0.2061 -0.4426  0.1158
   19MOL   C15616392   1.167   6.883   5.896  0.2102  0.1663  0.4740
   19MOL   C15716393   1.127   6.763   5.960 -0.2898 -0.3214 -0.6489
   19MOL   C15816394   1.179   6.640   5.914  0.8347  0.2097 -0.4377
   19MOL   C15916395   1.107   7.017   5.931  0.5300 -0.7722 -0.1666
   19MOL   C16016396   1.128   7.062   6.060 -0.1633  0.0837 -0.2169
   19MOL   C16116397   1.086   7.189   6.108  0.2992 -0.1507 -0.7852
   19MOL   C16216398   1.009   7.272   6.024 -0.0017 -0.4498  0.7124
   19MOL   C16316399   0.991   7.229   5.894  0.4173  0.1073 -0.0412
   19MOL   C16416400   1.018   7.101   5.852 -0.6901 -0.3728  0.3050
   19MOL   O16516401   0.950   7.394   6.064  0.3872  0.9095 -0.1715
   19MOL   H16616402   1.124   6.124   6.275  2.1902  2.2077  0.7333
   19MOL   H16716403   1.325   6.220   6.164  1.6429  0.7805 -0.5298
   19MOL   H16816404   1.515   5.837   6.175 -0.5037  0.3320 -1.8463
   19MOL   H16916405   1.323   5.742   6.305  0.4296  0.1694  0.4263
   19MOL   H17016406   1.553   6.388   6.122  1.3137 -1.3244 -0.2905
   19MOL   H17116407   1.422   6.563   5.994  1.0347 -0.4580  1.4331
   19MOL   H17216408   1.358   6.274   5.676  1.1097 -2.8554  1.0344
   19MOL   H17316409   1.449   6.115   5.803  1.2954  1.2197 -3.2246
   19MOL   H17416410   1.369   6.765   5.658  0.0069  0.2419 -0.3428
   19MOL   H17516411   1.279   6.967   5.735 -0.2087 -0.0800  0.7230
   19MOL   H17616412   1.048   6.771   6.033  0.4209  2.0011 -0.1116
   19MOL   H17716413   1.149   6.550   5.966  3.1990  0.2128  1.0201
   19MOL   H17816414   1.196   7.012   6.128 -2.0790 -1.7108  0.4302
   19MOL   H17916415   1.109   7.212   6.212  0.1187 -0.5566 -0.6564
   19MOL   H18016416   0.933   7.300   5.837 -1.3691 -1.5794 -0.4245
   19MOL   H18116417   1.004   7.067   5.751 -0.0904 -3.9092  1.3372
   19MOL   C18216418   1.011   7.510   6.021  0.6535  0.3282  0.0990
   19MOL   C18316419   1.157   7.521   6.018 -0.3967  0.5240  0.8849
   19MOL   C18416420   1.218   7.638   5.980 -0.0027  0.0930 -0.1224
   19MOL   C18516421   1.138   7.752   5.957 -0.5170  0.7597  0.4407
   19MOL   C18616422   1.000   7.747   5.965 -0.2339  0.0350 -0.4171
   19MOL   C18716423   0.935   7.624   6.002  0.2674  0.2402  1.2727
   19MOL   S18816424   1.219   7.907   5.911  0.3364  0.4832 -0.2294
   19MOL   O18916425   1.172   7.934   5.773 -0.0830 -0.5391  0.0204
   19MOL   O19016426   1.367   7.909   5.938 -0.1412  0.1519  0.7146
   19MOL   C19116427   1.139   8.030   6.013 -0.1646 -0.8782 -0.2435
   19MOL   C19216428   1.088   8.006   6.143 -0.8765  0.0822 -0.4998
   19MOL   C19316429   1.040   8.111   6.222 -0.8362  0.1008 -0.6551
   19MOL   C19416430   1.040   8.245   6.177  0.5188  1.4477  0.3863
   19MOL   C19516431   1.080   8.268   6.047 -0.0081  0.5046  0.2267
   19MOL   C19616432   1.141   8.165   5.972  0.0953  0.4927  0.4706
   19MOL   O19716433   0.992   8.352   6.246 -0.1212 -0.3047  0.1909
   19MOL   C19816434   0.943   8.333   6.372 -0.3898  0.2731 -0.1905
   19MOL   C19916435   0.805   8.337   6.402  0.6281 -0.2724 -0.9587
   19MOL   C20016436   0.760   8.333   6.537 -0.3426  0.0726 -0.4989
   19MOL   C20116437   0.852   8.316   6.646  0.4145  0.3684  0.4441
   19MOL   C20216438   0.988   8.303   6.610 -0.3335  0.5548  0.3549
   19MOL   C20316439   1.035   8.311   6.476  0.4355 -0.5104 -0.9298
   19MOL   C20416440   0.811   8.324   6.790  0.2436 -0.1998 -0.0842
   19MOL   C20516441   0.870   8.238   6.883  0.3282 -0.0833 -0.3240
   19MOL   C20616442   0.832   8.245   7.023 -0.0248  0.2555  0.2399
   19MOL   C20716443   0.755   8.354   7.067  0.3275 -0.2371  0.2694
   19MOL   C20816444   0.701   0.076   6.966  0.0054 -0.2834 -0.6686
   19MOL   C20916445   0.727   0.060   6.838 -0.1855 -0.4017 -0.1418
   19MOL   O21016446   0.719   0.005   7.197  0.0115  0.0825  0.0027
   19MOL   H21116447   1.215   7.432   6.039  2.2030  2.2481  1.2747
   19MOL   H21216448   1.326   7.642   5.977  0.0491 -1.2669 -0.3018
   19MOL   H21316449   0.942   7.834   5.938 -0.3048  0.3099  0.6158
   19MOL   H21416450   0.828   7.614   6.013  0.1611 -0.8161 -0.5629
   19MOL   H21516451   1.088   7.904   6.177 -0.9007 -0.0767 -0.9763
   19MOL   H21616452   0.985   8.086   6.311 -0.7874 -1.5037 -1.0601
   19MOL   H21716453   1.067   0.003   6.011  0.9949  0.5939  0.1071
   19MOL   H21816454   1.175   8.202   5.876 -0.9841  3.5829  1.1967
   19MOL   H21916455   0.736   8.356   6.321  0.3582  0.9313 -0.4614
   19MOL   H22016456   0.654   8.339   6.556 -0.7249 -0.7618 -2.2651
   19MOL   H22116457   1.058   8.313   6.691 -0.6091  3.7083  0.2853
   19MOL   H22216458   1.140   8.308   6.451  0.5962  1.8495 -0.5930
   19MOL   H22316459   0.946   8.163   6.868  0.6626  0.2936 -0.5400
   19MOL   H22416460   0.862   8.171   7.096  1.9517  1.3362  0.5671
   19MOL   H22516461   0.637   0.157   6.999  0.8929 -0.9022  2.7538
   19MOL   H22616462   0.689   0.125   6.762 -1.1569  3.4707  3.4673
   19MOL   C22716463   0.808   8.342   7.292  0.4190  0.4228 -0.2990
   19MOL   C22816464   0.925   0.055   7.285  0.2317 -0.2746  0.1532
   19MOL   C22916465   1.029   0.024   7.378  0.4633 -0.4259  0.1734
   19MOL   C23016466   1.012   8.287   7.482  0.2479 -0.0639  0.0564
   19MOL   C23116467   0.888   8.219   7.487  0.5159  0.3207  0.7794
   19MOL   C23216468   0.781   8.252   7.400 -0.2998 -0.0428  0.8155
   19MOL   S23316469   1.151   8.223   7.568  0.0077  0.3058 -0.0921
   19MOL   O23416470   1.239   8.148   7.469 -0.0143  0.0152 -0.3962
   19MOL   O23516471   1.106   8.148   7.688 -0.1484 -0.3619 -0.1687
   19MOL   C23616472   1.227   0.008   7.619 -0.4418 -0.4791  0.3379
   19MOL   C23716473   1.340   0.058   7.551 -0.0204 -0.6181  0.2288
   19MOL   C23816474   1.388   0.192   7.582  0.2148 -0.1878  0.1332
   19MOL   C23916475   1.339   0.259   7.701  0.6599  0.0939 -0.4616
   19MOL   C24016476   1.227   0.200   7.767  0.1118 -0.0126  0.0194
   19MOL   C24116477   1.166   0.080   7.722  0.2617 -0.6753  0.1758
   19MOL   O24216478   1.374   0.384   7.729 -0.0612  0.1096  0.1884
   19MOL   C24316479   1.509   0.418   7.714 -0.6556  0.3010 -0.3813
   19MOL   C24416480   1.544   0.544   7.663  0.3740  1.0113 -0.9548
   19MOL   C24516481   1.682   0.583   7.667  0.5495 -0.6189 -0.4121
   19MOL   C24616482   1.779   0.494   7.709 -0.0238  0.1492  0.0868
   19MOL   C24716483   1.740   0.372   7.762  0.0110  0.4371  0.5653
   19MOL   C24816484   1.605   0.337   7.777 -0.0016 -0.1508  0.3238
   19MOL   C24916485   1.921   0.539   7.701 -0.0840  0.3502 -0.6989
   19MOL   C25016486   1.973   0.587   7.581 -0.1745  0.7509  0.6599
   19MOL   C25116487   2.106   0.638   7.568  0.7874  0.1600 -0.6872
   19MOL   C25216488   2.196   0.617   7.673 -0.4099  0.4320 -0.5278
   19MOL   C25316489   2.149   0.552   7.787 -0.1723 -0.0321 -0.0663
   19MOL   C25416490   2.012   0.508   7.796 -0.0870  0.1843 -0.0498
   19MOL   O25516491   2.306   0.695   7.687 -0.5490  0.0026  0.3437
   19MOL   H25616492   0.943   0.124   7.204 -1.0529  0.3369  0.3689
   19MOL   H25716493   1.126   0.072   7.374  0.0209  0.5118  0.6411
   19MOL   H25816494   0.882   8.140   7.560  1.1433  0.8959  1.4571
   19MOL   H25916495   0.684   8.203   7.402  0.1892 -1.0502  0.3203
   19MOL   H26016496   1.386   0.006   7.469 -1.4638  0.7320 -1.4928
   19MOL   H26116497   1.465   0.233   7.519  0.7453 -2.3863 -0.6932
   19MOL   H26216498   1.175   0.251   7.847  0.7860  0.6962  0.0060
   19MOL   H26316499   1.085   0.027   7.770  0.7540  1.7410  3.9150
   19MOL   H26416500   1.471   0.616   7.629 -1.1672 -0.8969 -1.7573
   19MOL   H26516501   1.706   0.678   7.621 -2.7840  1.1948  1.4301
   19MOL   H26616502   1.812   0.298   7.793 -0.6570 -1.1579 -1.5167
   19MOL   H26716503   1.593   0.239   7.821  2.6954 -0.0968  1.2875
   19MOL   H26816504   1.901   0.620   7.507  1.4224  0.0220 -1.2480
   19MOL   H26916505   2.124   0.708   7.487 -1.9726  0.3610 -1.1782
   19MOL   H27016506   2.218   0.543   7.869  1.4811 -0.8688 -1.5254
   19MOL   H27116507   1.987   0.468   7.893  0.3095 -0.5513 -0.2478
   19MOL   C27216508   2.419   0.669   7.604  0.3202 -0.6023  0.0742
   19MOL   C27316509   2.404   0.610   7.474 -0.0194  0.8652  0.6520
   19MOL   C27416510   2.508   0.610   7.374 -0.1808  0.3570 -0.4422
   19MOL   C27516511   2.633   0.661   7.413  0.1904  0.0327 -0.3345
   19MOL   C27616512   2.648   0.714   7.548  0.2403  0.2373  0.6580
   19MOL   C27716513   2.545   0.723   7.641  0.1627  0.4680 -0.3260
   19MOL   S27816514   2.781   0.650   7.314  0.2028  0.4275 -0.5584
   19MOL   O27916515   2.894   0.649   7.408  0.0651 -0.0355 -0.2737
   19MOL   O28016516   2.774   0.759   7.213 -0.1881 -0.0309 -0.6360
   19MOL   C28116517   2.760   0.494   7.244  0.4226 -0.3756  0.3010
   19MOL   C28216518   2.687   0.478   7.125  0.0246  0.1771  0.6765
   19MOL   C28316519   2.696   0.352   7.058 -0.6020  0.0065 -0.5025
   19MOL   C28416520   2.757   0.243   7.122  0.3875  0.6619 -0.3878
   19MOL   C28516521   2.810   0.259   7.248 -0.8019 -0.6050 -0.3898
   19MOL   C28616522   2.828   0.383   7.303  0.3613 -0.0814 -0.2889
   19MOL   O28716523   2.761   0.113   7.072 -0.1581 -0.5410 -0.0781
   19MOL   C28816524   2.660   0.031   7.108  0.3667  0.5453  0.8660
   19MOL   C28916525   2.678   8.286   7.189 -0.2858  0.3136 -0.3440
   19MOL   C29016526   2.570   8.205   7.222 -0.0038 -0.8224 -0.3699
   19MOL   C29116527   2.438   8.236   7.178  0.7675 -0.0455  0.4284
   19MOL   C29216528   2.423   8.342   7.085 -0.6421 -0.3817 -0.2458
   19MOL   C29316529   2.532   0.055   7.050  0.2286  0.3669  0.1269
   19MOL   C29416530   2.319   8.154   7.217  0.2507 -0.0220 -0.5214
   19MOL   C29516531   2.310   8.092   7.344 -0.2348  0.6133  0.0573
   19MOL   C29616532   2.196   8.019   7.382 -0.2174  0.0052 -0.0785
   19MOL   C29716533   2.082   8.020   7.302 -0.2360 -0.6066  1.0934
   19MOL   C29816534   2.094   8.075   7.170 -0.5373  1.0927  0.3637
   19MOL   C29916535   2.209   8.140   7.128  0.1823  0.1026 -0.4052
   19MOL   O30016536   1.961   7.984   7.350 -0.2516  0.3079 -0.1554
   19MOL   H30116537   2.309   0.564   7.452 -0.1693  0.7488  1.5147
   19MOL   H30216538   2.486   0.581   7.272 -0.4320  0.7891 -0.5132
   19MOL   H30316539   2.745   0.755   7.573  0.0433  0.8397  0.4280
   19MOL   H30416540   2.559   0.769   7.738 -0.5021 -0.9725  0.4734
   19MOL   H30516541   2.652   0.568   7.077  0.1727  0.0517  0.3275
   19MOL   H30616542   2.658   0.346   6.957  1.7658  1.3798 -1.5172
   19MOL   H30716543   2.848   0.171   7.298 -0.0691 -0.9461 -1.5323
   19MOL   H30816544   2.878   0.389   7.398  0.8418  0.2116 -0.5629
   19MOL   H30916545   2.783   8.279   7.213  0.1109  0.8214 -1.8195
   19MOL   H31016546   2.577   8.125   7.294 -0.8113  0.4618  1.1660
   19MOL   H31116547   2.329   0.006   7.041  0.2441  2.1766 -0.4654
   19MOL   H31216548   2.510   0.134   6.980  0.7828 -0.0863 -0.5719
   19MOL   H31316549   2.398   8.097   7.405 -0.0953 -2.8278  0.2225
   19MOL   H31416550   2.198   7.967   7.477  0.8878  0.2247  0.0268
   19MOL   H31516551   2.010   8.083   7.103  0.7074  2.3740 -1.0858
   19MOL   H31616552   2.205   8.197   7.036 -0.5758 -1.9958 -1.7140
   19MOL   C31716553   1.950   7.859   7.410  0.1436 -0.0679  0.2197
   19MOL   C31816554   1.941   7.846   7.552  0.4154 -0.3038  0.5977
   19MOL   C31916555   1.947   7.716   7.609  0.3288  0.4309  0.5882
   19MOL   C32016556   1.950   7.602   7.525  0.1838  0.1408  0.5283
   19MOL   C32116557   1.964   7.615   7.384 -0.4263  0.6167 -0.2614
   19MOL   C32216558   1.958   7.745   7.335  0.1960 -0.1875  0.0224
   19MOL   S32316559   1.948   7.441   7.610 -0.1076  0.0123 -0.1358
   19MOL   O32416560   2.050   7.453   7.716  0.0687  0.1902  0.2894
   19MOL   O32516561   1.954   7.329   7.510  0.0821  0.2344  0.6174
   19MOL   C32616562   1.783   7.426   7.686 -0.7413  0.0512  0.3292
   19MOL   C32716563   1.668   7.439   7.613 -0.6494  0.2279 -0.1111
   19MOL   C32816564   1.542   7.438   7.673  0.0405  0.8065  0.5062
   19MOL   C32916565   1.532   7.437   7.816 -0.4689 -0.0356  0.6789
   19MOL   C33016566   1.646   7.418   7.890  0.0646 -0.1982 -0.4825
   19MOL   C33116567   1.773   7.406   7.823 -0.1024 -0.0451 -1.1854
   19MOL   O33216568   1.410   7.457   7.868 -0.1429  0.1544  0.1023
   19MOL   C33316569   1.385   7.589   7.894  0.5061  0.1605  0.4426
   19MOL   C33416570   1.418   7.633   8.019  0.5039 -0.2538 -0.9516
   19MOL   C33516571   1.410   7.771   8.045  0.2152 -0.0450  0.1724
   19MOL   C33616572   1.358   7.862   7.952  0.3231 -0.1845  0.0338
   19MOL   C33716573   1.314   7.814   7.830  0.3190  0.2112 -0.6217
   19MOL   C33816574   1.327   7.676   7.802 -0.4949 -0.8835  0.4579
   19MOL   C33916575   1.341   8.005   7.980  0.1059  0.6523 -0.7192
   19MOL   C34016576   1.372   8.109   7.889  0.1338 -0.0094 -0.4783
   19MOL   C34116577   1.360   8.243   7.924  0.6215  0.2666 -0.0857
   19MOL   C34216578   1.322   8.287   8.054 -0.2582  0.5342  0.1730
   19MOL   C34316579   1.281   8.183   8.148 -0.3103  0.1317  0.3708
   19MOL   C34416580   1.293   8.045   8.111 -0.3202 -0.0794  0.2855
   19MOL   O34516581   1.322   0.055   8.092 -0.1095  0.2232 -0.3116
   19MOL   H34616582   1.934   7.937   7.611 -1.4251  0.0191 -0.0789
   19MOL   H34716583   1.959   7.697   7.715  1.0191 -2.8334 -0.0117
   19MOL   H34816584   1.973   7.527   7.322  0.2533  0.5410 -0.0562
   19MOL   H34916585   1.968   7.756   7.228  0.7505  0.9191  0.1790
   19MOL   H35016586   1.678   7.451   7.506 -1.3735 -2.7453 -0.5401
   19MOL   H35116587   1.451   7.442   7.615  0.3788 -0.6686 -0.1540
   19MOL   H35216588   1.632   7.422   7.997  0.3331 -0.4534 -0.4385
   19MOL   H35316589   1.863   7.396   7.882 -2.3803 -0.0486  2.4380
   19MOL   H35416590   1.469   7.565   8.085 -1.1023 -0.8227 -0.2847
   19MOL   H35516591   1.450   7.810   8.136  1.3444 -0.1400 -0.2795
   19MOL   H35616592   1.271   7.874   7.751 -0.5422 -0.6072 -0.7832
   19MOL   H35716593   1.299   7.646   7.702 -1.1524  1.4363 -0.0743
   19MOL   H35816594   1.411   8.084   7.791  0.2983 -0.0616 -0.4001
   19MOL   H35916595   1.395   8.316   7.853  1.3126  0.4131  0.3883
   19MOL   H36016596   1.235   8.211   8.242  0.6624  1.3629  0.4976
   19MOL   H36116597   1.272   7.963   8.178 -0.0065 -0.1661  0.2793
   19MOL   C36216598   1.225   0.088   8.180  0.1745 -0.5417  0.0752
   19MOL   C36316599   1.253   0.096   8.319 -0.1580  0.4850  0.6599
   19MOL   C36416600   1.151   0.142   0.036  0.4106  0.5147 -0.1896
   19MOL   C36516601   1.016   0.172   8.359 -0.5747  0.2473 -0.3276
   19MOL   C36616602   0.990   0.160   8.224  0.5438  0.5219 -0.2539
   19MOL   C36716603   1.092   0.118   8.134 -0.1511 -0.1557  0.2725
   19MOL   S36816604   0.893   0.231   0.108 -0.1687  0.8000 -0.1921
   19MOL   O36916605   0.947   0.225   0.245 -0.2652  0.5912 -0.2347
   19MOL   O37016606   0.770   0.151   0.079  0.3071  0.1293 -0.1388
   19MOL   C37116607   0.860   0.397   0.067  0.0764 -0.5872  0.6090
   19MOL   C37216608   0.727   0.443   0.094 -0.5589  0.1267  0.2867
   19MOL   C37316609   0.690   0.572   0.052  0.0072 -0.5355 -0.1673
   19MOL   C37416610   0.781   0.658   8.359  0.2381  0.5389  0.6053
   19MOL   C37516611   0.913   0.613   8.339  0.4013 -0.1969  0.4427
   19MOL   C37616612   0.953   0.486   0.003 -0.2205 -0.5000 -0.3890
   19MOL   O37716613   0.743   0.779   8.313  0.0182  0.0176 -0.3861
   19MOL   C37816614   0.728   0.883   0.036 -0.0549  0.3459 -0.4740
   19MOL   C37916615   0.622   0.978   0.009  0.1532 -0.0743  0.5272
   19MOL   C38016616   0.597   1.083   0.098 -1.1897 -0.0286 -0.3858
   19MOL   C38116617   0.671   1.094   0.220  0.6878  0.0309 -0.5561
   19MOL   C38216618   0.758   0.989   0.251 -0.7216 -0.0269  0.5075
   19MOL   C38316619   0.799   0.894   0.155  0.5910  0.3055  0.1791
   19MOL   C38416620   0.649   1.205   0.319  0.7491  0.4332  0.1827
   19MOL   C38516621   0.757   1.278   0.353  0.6259  0.0520 -0.1486
   19MOL   C38616622   0.738   1.405   0.423 -0.2825  0.3244 -0.1127
   19MOL   C38716623   0.611   1.440   0.477 -0.7460  0.3024 -0.0111
   19MOL   C38816624   0.500   1.352   0.448 -1.2171 -0.3226  0.2965
   19MOL   C38916625   0.518   1.239   0.370 -0.1610  1.0843  0.2584
   19MOL   O39016626   0.595   1.549   0.556  0.5829 -0.4536  0.0759
   19MOL   H39116627   1.353   0.081   8.356  0.2299  1.8475  0.1651
   19MOL   H39216628   1.168   0.140   0.143 -1.4785  1.0184  0.1404
   19MOL   H39316629   0.890   0.175   8.186  0.7678  0.5451 -0.8426
   19MOL   H39416630   1.085   0.108   8.027 -0.5492  0.8535  0.2063
   19MOL   H39516631   0.654   0.387   0.150 -0.6129 -1.8456 -1.7094
   19MOL   H39616632   0.587   0.601   0.062 -0.7080 -2.7736 -0.6682
   19MOL   H39716633   0.982   0.681   8.290 -1.4529  0.1817 -1.7523
   19MOL   H39816634   1.058   0.463   8.354 -0.6685 -2.4371 -0.6827
   19MOL   H39916635   0.565   0.977   8.283  2.5184  2.3185 -1.0286
   19MOL   H40016636   0.509   1.145   0.084 -2.6093 -1.9349 -0.1495
   19MOL   H40116637   0.803   0.989   0.349 -0.0212  1.4690  0.1978
   19MOL   H40216638   0.872   0.818   0.179 -0.5082 -2.2249 -4.0549
   19MOL   H40316639   0.849   1.263   0.297  1.8052  0.1266  1.7264
   19MOL   H40416640   0.806   1.487   0.438 -1.7645  1.1485  2.5215
   19MOL   H40516641   0.405   1.384   0.487 -0.0829 -0.5512  3.4246
   19MOL   H40616642   0.431   1.179   0.344  0.1400  0.5989  0.3739
   19MOL   C40716643   0.580   1.675   0.505 -0.4537  0.0040  0.1571
   19MOL   C40816644   0.461   1.723   0.447 -0.1476 -0.2841 -0.2159
   19MOL   C40916645   0.449   1.852   0.397  0.4407 -0.1390  0.5517
   19MOL   C41016646   0.554   1.943   0.420  0.0771 -0.2890 -0.4749
   19MOL   C41116647   0.675   1.898   0.465 -0.2030  0.1051  0.3171
   19MOL   C41216648   0.693   1.763   0.501  0.2336 -0.0287  0.4694
   19MOL   S41316649   0.537   2.119   0.369  0.1859 -0.0459  0.0766
   19MOL   O41416650   0.640   2.196   0.440  0.3311  0.1588  0.2960
   19MOL   O41516651   0.397   2.158   0.399 -0.2189  0.2526  0.8772
   19MOL   C41616652   0.579   2.135   0.191  0.5423  0.1283  0.4388
   19MOL   C41716653   0.464   2.162   0.107 -0.2200  0.0061  0.0169
   19MOL   C41816654   0.496   2.200   8.339 -0.1354  0.1183 -0.1623
   19MOL   C41916655   0.628   2.210   8.295  0.0138 -0.4522  0.1121
   19MOL   C42016656   0.737   2.175   0.009  1.0387 -0.1001  0.6007
   19MOL   C42116657   0.708   2.147   0.144 -0.1111 -1.1204  0.9164
   19MOL   O42216658   0.659   2.264   8.173 -0.1368 -0.1434  0.2402
   19MOL   C42316659   0.631   2.400   8.164 -0.5488  0.2475 -0.5977
   19MOL   C42416660   0.733   2.490   8.212 -0.4615 -0.0299  0.0406
   19MOL   C42516661   0.721   2.626   8.201  0.7205  0.2656 -0.0358
   19MOL   C42616662   0.601   2.679   8.142 -0.1481 -0.3751  0.0082
   19MOL   C42716663   0.507   2.588   8.094 -1.0589  0.3978  0.5117
   19MOL   C42816664   0.521   2.452   8.102  0.6308 -0.6290 -0.2312
   19MOL   C42916665   0.583   2.825   8.141 -0.8841  0.4761 -0.9567
   19MOL   C43016666   0.525   2.894   8.027 -0.2933  0.2397 -0.2166
   19MOL   C43116667   0.510   3.039   8.026  0.3104  0.0583  0.1368
   19MOL   C43216668   0.553   3.114   8.135  0.2063  0.4307  0.2368
   19MOL   C43316669   0.623   3.054   8.241  0.0582  0.3268 -0.3572
   19MOL   C43416670   0.637   2.916   8.236 -0.5325  0.0770 -0.6916
   19MOL   O43516671   0.548   3.252   8.137  0.5242  0.1559  0.2188
   19MOL   H43616672   0.381   1.652   0.435 -0.0583 -0.4117 -0.0723
   19MOL   H43716673   0.355   1.887   0.357 -0.3623 -1.3573  1.3405
   19MOL   H43816674   0.756   1.969   0.463 -0.0312 -0.1020 -0.3847
   19MOL   H43916675   0.791   1.725   0.527  0.1216  0.1104  1.1009
   19MOL   H44016676   0.367   2.156   0.156 -0.4964  1.4653 -0.3269
   19MOL   H44116677   0.414   2.219   8.271 -0.8265  0.4735  0.7597
   19MOL   H44216678   0.836   2.181   8.333  0.3331  1.5260 -0.8961
   19MOL   H44316679   0.797   2.146   0.206  1.4376 -0.5258 -1.2332
   19MOL   H44416680   0.825   2.454   8.254 -0.0214  1.0279 -0.0188
   19MOL   H44516681   0.799   2.692   8.237 -0.6679  1.7253  0.3431
   19MOL   H44616682   0.409   2.616   8.057 -0.2148  2.4451 -0.2708
   19MOL   H44716683   0.438   2.396   8.060 -0.5410  1.2180 -0.4147
   19MOL   H44816684   0.494   2.833   7.943  0.1647 -1.3954  0.7945
   19MOL   H44916685   0.459   3.080   7.940  1.1128 -1.7668 -1.2482
   19MOL   H45016686   0.644   3.113   8.329 -0.2267  0.1261 -0.1541
   19MOL   H45116687   0.677   2.868   8.325 -2.4354 -2.2903 -1.0490
   19MOL   C45216688   0.446   3.309   8.205  0.1870 -0.6220  0.1821
   19MOL   C45316689   0.475   3.377   8.323 -0.0679 -0.3379 -0.6989
   19MOL   C45416690   0.380   3.466   0.015 -0.0781 -0.3922  0.2071
   19MOL   C45516691   0.250   3.473   8.330  0.1492  0.3063 -0.2462
   19MOL   C45616692   0.221   3.407   8.212  0.0362  0.6300  0.1750
   19MOL   C45716693   0.318   3.327   8.149  0.1993 -0.4322 -0.3437
   19MOL   S45816694   0.132   3.575   0.049 -0.2135 -0.1176 -0.0771
   19MOL   O45916695   0.185   3.580   0.185  0.3525 -0.1374 -0.4129
   19MOL   O46016696   8.361   3.519   0.021 -0.0539 -0.1290  0.0416
   19MOL   C46116697   0.143   3.734   8.349 -0.2249 -0.6420 -1.1088
   19MOL   C46216698   0.129   3.743   8.210  0.3380 -0.3789  0.6580
   19MOL   C46316699   0.122   3.864   8.144 -0.7184  0.1483 -0.2363
   19MOL   C46416700   0.149   3.980   8.218  0.4615 -0.0137 -0.2975
   19MOL   C46516701   0.155   3.979   8.360  0.1964  0.6458  0.0242
   19MOL   C46616702   0.153   3.850   0.059 -0.4004 -0.0162 -0.6766
   19MOL   O46716703   0.163   4.099   8.151  0.1687 -0.8148  0.4653
   19MOL   C46816704   0.292   4.153   8.145  0.2572 -0.4333  0.5660
   19MOL   C46916705   0.332   4.262   8.221  0.6332  0.3079 -0.3179
   19MOL   C47016706   0.464   4.316   8.215  0.1335  0.5630  0.3407
   19MOL   C47116707   0.548   4.281   8.109 -0.2899 -0.5838 -0.2135
   19MOL   C47216708   0.511   4.170   8.030 -0.7899 -0.2257  0.0652
   19MOL   C47316709   0.379   4.116   8.043 -0.7093  0.4331  0.0810
   19MOL   C47416710   0.673   4.353   8.083 -0.3590 -1.0483  0.3796
   19MOL   C47516711   0.790   4.307   8.139  0.1731  0.1791  0.1199
   19MOL   C47616712   0.914   4.372   8.126  0.4497 -0.9986 -0.3595
   19MOL   C47716713   0.922   4.475   8.037  0.3712  0.2353  0.0780
   19MOL   C47816714   0.802   4.527   7.978  0.6540 -0.4378 -0.8096
   19MOL   C47916715   0.675   4.467   8.005 -0.4316  0.2411  0.1180
   19MOL   O48016716   1.032   4.561   8.018 -0.0286 -0.2688 -0.3684
   19MOL   H48116717   0.568   3.368   0.013 -0.8425 -1.3763  0.4641
   19MOL   H48216718   0.409   3.531   0.096 -0.8734  1.3972 -0.9060
   19MOL   H48316719   0.117   3.407   8.182  0.0073  1.6761  0.2673
   19MOL   H48416720   0.284   3.266   8.067 -1.5878 -1.7133  1.2907
   19MOL   H48516721   0.109   3.656   8.149  0.2444  0.4645 -0.5223
   19MOL   H48616722   0.099   3.866   8.038 -3.1508 -0.5073  0.2459
   19MOL   H48716723   0.174   4.068   0.052  1.0030 -0.1391  0.9809
   19MOL   H48816724   0.160   3.847   0.167 -0.6928 -1.1469 -0.6858
   19MOL   H48916725   0.258   4.300   8.290  2.0286  1.0965  0.7512
   19MOL   H49016726   0.482   4.402   8.278  1.0301  2.5068 -2.4472
   19MOL   H49116727   0.574   4.120   7.958 -1.2583  0.0502 -0.5409
   19MOL   H49216728   0.345   4.046   7.968  3.2391  0.1775 -1.5951
   19MOL   H49316729   0.789   4.233   8.218 -1.2033 -0.2655 -0.2884
   19MOL   H49416730   0.996   4.333   8.184  2.0290  0.5070 -1.5658
   19MOL   H49516731   0.810   4.612   7.913  0.3401 -0.8020 -1.3251
   19MOL   H49616732   0.588   4.503   7.951 -0.9947  0.1319  0.9522
   19MOL   C49716733   1.157   4.507   8.027  0.5608 -0.4525  0.5005
   19MOL   C49816734   1.234   4.514   8.141 -0.0763 -0.2184 -0.0717
   19MOL   C49916735   1.364   4.454   8.150  0.2359 -0.7368  0.4188
   19MOL   C50016736   1.411   4.381   8.045  0.5627 -0.3550  0.1267
   19MOL   C50116737   1.331   4.360   7.928 -0.3502 -0.1675 -0.4291
   19MOL   C50216738   1.205   4.427   7.925 -0.3034  0.1307  0.0516
   19MOL   S50316739   1.574   4.313   8.062 -0.3204 -0.3195  0.3196
   19MOL   O50416740   1.653   4.395   8.155  0.8008 -0.2936 -0.0018
   19MOL   O50516741   1.609   4.288   7.924  0.4455  0.2028  0.1311
   19MOL   C50616742   1.550   4.152   8.126  0.4277 -0.4663  0.1633
   19MOL   C50716743   1.449   4.071   8.075  0.1178 -0.5204  0.5052
   19MOL   C50816744   1.422   3.944   8.136 -0.1473 -0.4758 -0.4786
   19MOL   C50916745   1.500   3.907   8.251 -0.7918 -0.2903 -0.2758
   19MOL   C51016746   1.604   3.995   8.302 -0.3822 -0.4278  0.4606
   19MOL   C51116747   1.629   4.113   8.232  0.7505  0.7989  0.1565
   19MOL   O51216748   1.476   3.789   8.319 -0.0398 -0.0674 -0.3532
   19MOL   C51316749   1.425   3.793   0.084  0.6776 -0.5715 -0.0318
   19MOL   C51416750   1.446   3.680   0.167 -0.1843 -0.5336  0.0808
   19MOL   C51516751   1.394   3.676   0.302 -0.0775  0.4560 -0.1733
   19MOL   C51616752   1.341   3.790   0.362 -0.0338 -0.0787 -0.4561
   19MOL   C51716753   1.324   3.901   0.280  0.2631  0.5551  0.0845
   19MOL   C51816754   1.356   3.904   0.141 -0.4016  0.4796 -0.8049
   19MOL   C51916755   1.307   3.800   0.506  0.7505  0.0215 -0.4728
   19MOL   C52016756   1.269   3.929   0.567 -0.1846 -0.5731  0.0743
   19MOL   C52116757   1.239   3.940   0.703 -0.1828  1.0427 -0.4147
   19MOL   C52216758   1.235   3.829   0.791  0.5457  0.6883  0.3822
   19MOL   C52316759   1.274   3.702   0.733  0.4495 -0.5462 -0.3588
   19MOL   C52416760   1.299   3.690   0.596 -0.0957 -0.0032  0.0540
   19MOL   O52516761   1.204   3.834   0.923  0.3320  0.2448 -0.3276
   19MOL   H52616762   1.191   4.568   8.224  2.2437 -1.2588  1.8761
   19MOL   H52716763   1.423   4.471   8.239  0.0920  0.7508  0.2371
   19MOL   H52816764   1.365   4.303   7.844  0.3690  1.1348 -1.0358
   19MOL   H52916765   1.135   4.416   7.843  1.0362  1.8287 -1.3712
   19MOL   H53016766   1.393   4.098   7.987 -0.1426  0.5327  0.9818
   19MOL   H53116767   1.336   3.887   8.105 -1.0545  0.8746 -0.4708
   19MOL   H53216768   1.658   3.975   0.027  2.4297  0.7153 -0.8941
   19MOL   H53316769   1.705   4.180   8.269 -0.1316  1.5169  0.6941
   19MOL   H53416770   1.504   3.596   0.132  1.2636  0.9502 -1.1577
   19MOL   H53516771   1.415   3.592   0.366  1.3756 -0.1805 -1.4610
   19MOL   H53616772   1.284   3.993   0.321 -0.2963 -0.3267  1.5126
   19MOL   H53716773   1.327   3.994   0.088 -1.3532  0.2852 -0.6133
   19MOL   H53816774   1.279   4.021   0.512  0.2785 -1.0017 -0.5603
   19MOL   H53916775   1.220   4.033   0.755  0.2412  0.2543  1.1742
   19MOL   H54016776   1.282   3.613   0.794 -1.0767  0.8587  1.9995
   19MOL   H54116777   1.316   3.592   0.553 -1.1125  0.1231 -0.6557
   19MOL   C54216778   1.292   3.794   1.019 -0.0715  0.1851 -0.6982
   19MOL   C54316779   1.426   3.836   1.021  0.2749  0.1915  0.0367
   19MOL   C54416780   1.512   3.795   1.129  0.2393  0.3615  1.1506
   19MOL   C54516781   1.465   3.709   1.228  0.3450  0.1346 -0.3543
   19MOL   C54616782   1.326   3.681   1.231 -0.3238  0.5119 -0.0298
   19MOL   C54716783   1.245   3.726   1.130  0.1375  0.8213  0.0581
   19MOL   S54816784   1.575   3.643   1.352  0.5727  0.3421  0.2548
   19MOL   O54916785   1.497   3.614   1.476  0.2184 -0.6417  0.0942
   19MOL   O55016786   1.676   3.744   1.368 -0.1315  0.0697 -0.2587
   19MOL   C55116787   1.658   3.486   1.297  1.0146 -0.1920 -0.1236
   19MOL   C55216788   1.693   3.388   1.387  0.1381  0.9804 -0.8059
   19MOL   C55316789   1.768   3.273   1.348  0.0329  0.0412 -0.2494
   19MOL   C55416790   1.805   3.253   1.214  0.0584  0.6693  0.2248
   19MOL   C55516791   1.756   3.351   1.119  0.3736 -0.0420 -0.3332
   19MOL   C55616792   1.686   3.466   1.161 -0.1018 -0.5996  0.5516
   19MOL   O55716793   1.885   3.147   1.167  0.2287 -0.0843 -0.3708
   19MOL   C55816794   1.831   3.021   1.132  0.0409 -0.9959 -0.6927
   19MOL   C55916795   1.798   3.005   0.998  0.2653  0.7804 -0.1581
   19MOL   C56016796   1.739   2.878   0.961  0.9540 -0.7663 -0.4197
   19MOL   C56116797   1.709   2.773   1.051  0.0290 -0.6753 -1.0185
   19MOL   C56216798   1.748   2.784   1.186 -0.2769 -0.8341 -0.0250
   19MOL   C56316799   1.811   2.909   1.224  0.2379  0.7623 -0.6605
   19MOL   C56416800   1.646   2.648   1.007  0.1454  0.8900 -0.8409
   19MOL   C56516801   1.694   2.587   0.891 -0.0761 -0.0128  0.6847
   19MOL   C56616802   1.642   2.469   0.845  0.3621  0.1231 -0.2789
   19MOL   C56716803   1.533   2.405   0.904  0.5567  0.4569 -0.0012
   19MOL   C56816804   1.483   2.463   1.021  0.1172 -0.4242 -0.0102
   19MOL   C56916805   1.542   2.580   1.078  0.2744  1.0150 -0.3853
   19MOL   O57016806   1.467   2.299   0.851  0.3030  0.1134  0.1332
   19MOL   H57116807   1.471   3.890   0.939 -1.4463 -3.7587 -3.6952
   19MOL   H57216808   1.616   3.826   1.130  0.5135 -0.5282  3.7143
   19MOL   H57316809   1.294   3.610   1.306  2.4841 -0.7566  0.0130
   19MOL   H57416810   1.141   3.697   1.123  0.4714 -0.0162 -1.6403
   19MOL   H57516811   1.659   3.409   1.487  0.6819 -1.0435 -0.1611
   19MOL   H57616812   1.795   3.218   1.437  0.1170  0.4108 -0.0456
   19MOL   H57716813   1.772   3.341   1.013 -0.5134  1.0105 -0.5684
   19MOL   H57816814   1.667   3.542   1.086  2.3378  0.6818  1.1710
   19MOL   H57916815   1.816   3.086   0.928  1.9442  1.1658  0.6953
   19MOL   H58016816   1.702   2.874   0.860 -0.2170  0.4358 -0.0587
   19MOL   H58116817   1.725   2.709   1.260 -2.6291 -0.5232 -0.4203
   19MOL   H58216818   1.841   2.923   1.326 -3.2152  0.6369  0.4041
   19MOL   H58316819   1.782   2.632   0.847 -0.6693  0.1799 -0.3326
   19MOL   H58416820   1.683   2.433   0.751  1.0648 -0.8880  0.4025
   19MOL   H58516821   1.404   2.411   1.073 -1.2440  0.3952 -1.2227
   19MOL   H58616822   1.496   2.630   1.162 -0.6955 -1.1480  0.4136
   19MOL   C58716823   1.548   2.196   0.840 -0.3316  0.2261  0.1110
   19MOL   C58816824   1.622   2.172   0.722 -0.4351  0.4714 -0.0891
   19MOL   C58916825   1.706   2.060   0.708  0.1025 -0.2590  0.3448
   19MOL   C59016826   1.713   1.967   0.817 -0.2707 -0.4619 -0.0022
   19MOL   C59116827   1.643   1.993   0.940 -0.1130 -0.2271  0.8739
   19MOL   C59216828   1.559   2.107   0.950  0.3268  0.8179 -0.3820
   19MOL   S59316829   1.836   1.837   0.812 -0.0308 -0.6032  0.3935
   19MOL   O59416830   1.837   1.775   0.678 -0.2504  0.1456 -0.0986
   19MOL   O59516831   1.828   1.760   0.934 -0.3505 -0.0184  0.2232
   19MOL   C59616832   1.982   1.946   0.818 -0.1406  0.0851  0.6768
   19MOL   C59716833   2.023   1.999   0.939  1.1002 -0.8746  0.2516
   19MOL   C59816834   2.133   2.091   0.946 -0.0866 -0.0140  0.0125
   19MOL   C59916835   2.204   2.126   0.830 -0.7792  0.6119  0.1616
   19MOL   C60016836   2.163   2.068   0.711  0.6262 -0.4391 -0.3962
   19MOL   C60116837   2.052   1.984   0.704  0.0237  0.1387 -0.0840
   19MOL   O60216838   2.312   2.212   0.829  0.2351  0.4673  0.1269
   19MOL   C60316839   2.288   2.346   0.832 -0.0924 -0.4726  0.3608
   19MOL   C60416840   2.326   2.429   0.937  0.7122  0.8260  0.1003
   19MOL   C60516841   2.325   2.569   0.927 -0.0350  0.2443 -0.8589
   19MOL   C60616842   2.273   2.632   0.812 -0.2888 -0.6158 -0.2352
   19MOL   C60716843   2.226   2.551   0.708 -0.3435  0.4158  0.4212
   19MOL   C60816844   2.233   2.411   0.716 -0.3058  0.8000 -0.4739
   19MOL   C60916845   2.265   2.777   0.804 -0.2827  0.4431  0.2402
   19MOL   C61016846   2.363   2.865   0.852 -0.1296  0.1127 -0.6847
   19MOL   C61116847   2.349   3.006   0.864 -0.3897  0.9238 -0.0508
   19MOL   C61216848   2.235   3.070   0.808 -0.3398 -0.3591  0.0496
   19MOL   C61316849   2.140   2.987   0.742  0.3175 -0.2801  0.9737
   19MOL   C61416850   2.160   2.846   0.739 -0.5010  0.4744 -0.3061
   19MOL   O61516851   2.228   3.212   0.810  0.1040 -0.3629  0.9662
   19MOL   H61616852   1.610   2.236   0.636 -1.2843  0.3601 -0.0533
   19MOL   H61716853   1.757   2.043   0.615  0.4861  3.8178 -0.2864
   19MOL   H61816854   1.646   1.918   1.018  3.1542 -1.4395 -0.3257
   19MOL   H61916855   1.495   2.119   1.036  1.1612  0.6510  0.2719
   19MOL   H62016856   1.963   1.984   1.028  0.7609 -1.6143 -0.1000
   19MOL   H62116857   2.144   2.153   1.034  2.9396 -0.4199 -0.0211
   19MOL   H62216858   2.217   2.097   0.622 -3.2223 -0.1656 -2.7165
   19MOL   H62316859   2.034   1.957   0.601 -0.5803  1.2696 -0.2889
   19MOL   H62416860   2.354   2.375   1.027 -2.0942 -0.9801 -0.0413
   19MOL   H62516861   2.350   2.637   1.007 -1.7600 -0.5174  0.3687
   19MOL   H62616862   2.197   2.597   0.615  0.9677 -0.4605 -0.4438
   19MOL   H62716863   2.223   2.357   0.623  0.8998  1.3879 -0.9684
   19MOL   H62816864   2.447   2.822   0.905  0.2683  1.1137 -0.4968
   19MOL   H62916865   2.423   3.066   0.913  0.3459 -1.1081  1.3731
   19MOL   H63016866   2.060   3.032   0.684 -0.2379 -1.9347  0.4152
   19MOL   H63116867   2.082   2.782   0.700  0.4290 -1.4706  0.9876
   19MOL   C63216868   2.275   3.280   0.698 -0.2258 -0.3434  0.4768
   19MOL   C63316869   2.186   3.339   0.604  0.0878 -1.2133  0.0772
   19MOL   C63416870   2.230   3.414   0.495 -0.7562 -0.3739  0.2268
   19MOL   C63516871   2.365   3.435   0.475  0.3118  0.6500 -0.7270
   19MOL   C63616872   2.458   3.375   0.570 -0.2638  1.2244 -0.5260
   19MOL   C63716873   2.413   3.302   0.682 -0.2702  0.0206  0.0075
   19MOL   S63816874   2.430   3.523   0.333  0.2981 -0.0823  0.6020
   19MOL   O63916875   2.312   3.545   0.245 -0.3570  0.4059  0.5067
   19MOL   O64016876   2.554   3.462   0.283 -0.0670 -0.1977 -0.3092
   19MOL   C64116877   2.462   3.691   0.387 -0.0002 -0.0449  0.5489
   19MOL   C64216878   2.390   3.752   0.490 -0.4181 -0.1072 -0.2127
   19MOL   C64316879   2.409   3.885   0.533 -0.0489 -0.3048 -0.3121
   19MOL   C64416880   2.509   3.959   0.470 -0.3406 -0.6286  0.0570
   19MOL   C64516881   2.585   3.898   0.366  0.0491 -0.2511  0.3310
   19MOL   C64616882   2.546   3.774   0.316 -0.2749 -0.0475  0.6391
   19MOL   O64716883   2.529   4.086   0.517 -0.0016 -0.0784 -0.0082
   19MOL   C64816884   2.485   4.193   0.446  0.2051 -0.0815  0.8594
   19MOL   C64916885   2.568   4.307   0.427 -0.0014 -0.0544  0.4226
   19MOL   C65016886   2.516   4.429   0.384 -0.0801 -0.8031 -0.3942
   19MOL   C65116887   2.382   4.449   0.361 -0.6935 -0.3798 -0.5823
   19MOL   C65216888   2.308   4.334   0.369  0.1081  0.2005  0.3132
   19MOL   C65316889   2.354   4.207   0.405 -0.0612  0.5508  0.1628
   19MOL   C65416890   2.321   4.582   0.352 -0.0890 -0.1604  0.6360
   19MOL   C65516891   2.390   4.692   0.305  0.6982 -0.0772  0.2406
   19MOL   C65616892   2.332   4.823   0.305  0.0345  0.7333  0.2885
   19MOL   C65716893   2.214   4.841   0.375  0.3403  0.8210  0.4645
   19MOL   C65816894   2.140   4.732   0.418  0.6438 -0.3413  0.9893
   19MOL   C65916895   2.197   4.608   0.412 -0.6906 -0.1618  0.0486
   19MOL   O66016896   2.170   4.971   0.392 -0.0991  0.7429  0.6885
   19MOL   H66116897   2.080   3.320   0.605 -0.2598  0.3398 -2.4793
   19MOL   H66216898   2.153   3.449   0.427 -0.1369  3.4179  1.3787
   19MOL   H66316899   2.562   3.392   0.545  0.3842 -0.8771  0.7040
   19MOL   H66416900   2.490   3.263   0.746 -0.4532 -1.4271 -0.6406
   19MOL   H66516901   2.314   3.709   0.553 -1.0589  0.1463 -0.8089
   19MOL   H66616902   2.344   3.923   0.611  0.5161 -0.2256  0.1245
   19MOL   H66716903   2.663   3.961   0.325 -0.4032 -0.3927 -0.7445
   19MOL   H66816904   2.597   3.727   0.233 -2.8029  0.2216 -1.1293
   19MOL   H66916905   2.676   4.303   0.434  0.0483  1.6202  0.9134
   19MOL   H67016906   2.590   4.507   0.370 -1.4096  0.2668 -1.5004
   19MOL   H67116907   2.201   4.335   0.349  0.0462  2.7532  0.6845
   19MOL   H67216908   2.295   4.117   0.414  0.4379  0.0434 -1.4925
   19MOL   H67316909   2.495   4.685   0.277  1.3505 -0.3949  2.6670
   19MOL   H67416910   2.369   4.918   0.269  0.0156 -0.0502 -1.8787
   19MOL   H67516911   2.046   4.749   0.469 -0.2872 -0.1831 -0.7471
   19MOL   H67616912   2.159   4.522   0.466 -0.1733  0.3347  1.2233
   19MOL   C67716913   2.196   5.022   0.516  0.1992  0.3304  0.1858
   19MOL   C67816914   2.314   5.094   0.542  0.3955 -0.2139 -0.3834
   19MOL   C67916915   2.342   5.148   0.665 -0.0650  0.2150 -0.5724
   19MOL   C68016916   2.254   5.143   0.777  0.2195 -0.1276 -0.2786
   19MOL   C68116917   2.128   5.075   0.755  0.0593  0.6339 -0.6616
   19MOL   C68216918   2.103   5.007   0.625  0.3791 -0.3359 -0.1991
   19MOL   S68316919   2.302   5.205   0.946  0.0016 -0.1994  0.0285
   19MOL   O68416920   2.446   5.190   0.955 -0.2422  0.3946 -0.4102
   19MOL   O68516921   2.219   5.143   1.049 -0.5345  0.1470 -0.1912
   19MOL   C68616922   2.261   5.383   0.945 -0.1697 -0.2346  0.5122
   19MOL   C68716923   2.345   5.469   0.880 -0.5789 -0.9479 -0.2748
   19MOL   C68816924   2.317   5.605   0.880 -0.0558  0.1914 -0.0967
   19MOL   C68916925   2.199   5.662   0.941 -0.3202 -0.2077 -0.6432
   19MOL   C69016926   2.127   5.568   1.031 -0.0235  0.1353 -0.1414
   19MOL   C69116927   2.152   5.431   1.019 -0.2571  0.9184  0.1121
   19MOL   O69216928   2.161   5.790   0.925 -0.4477 -0.1363 -0.3037
   19MOL   C69316929   2.094   5.856   1.023  0.5033  0.3092  1.1311
   19MOL   C69416930   1.984   5.943   0.995 -1.1278  0.2624 -0.0269
   19MOL   C69516931   1.913   6.007   1.101 -0.1519  1.0157 -0.2644
   19MOL   C69616932   1.959   6.002   1.229  0.0593 -0.1607 -0.7419
   19MOL   C69716933   2.066   5.917   1.258 -0.6408  0.1884  0.3748
   19MOL   C69816934   2.135   5.848   1.155 -0.9963  0.0012 -0.6907
   19MOL   C69916935   1.892   6.081   1.337  0.5292  0.3587  0.3867
   19MOL   C70016936   1.966   6.181   1.409 -0.1154  0.0937  0.4238
   19MOL   C70116937   1.906   6.275   1.492  0.1976 -0.2056 -0.3619
   19MOL   C70216938   1.765   6.266   1.504 -0.1789  0.0466  0.0010
   19MOL   C70316939   1.695   6.163   1.442 -0.5741  0.0973 -0.1009
   19MOL   C70416940   1.753   6.068   1.360  0.2001  0.3274 -0.4616
   19MOL   O70516941   1.691   6.366   1.569 -0.2315 -0.7737 -0.3469
   19MOL   H70616942   2.385   5.104   0.461  1.0538  1.8263  0.4367
   19MOL   H70716943   2.433   5.207   0.660  1.0186 -1.4997 -1.7831
   19MOL   H70816944   2.066   5.064   0.842  0.6297  1.2284 -0.1737
   19MOL   H70916945   2.013   4.949   0.613  0.3010  0.2480 -2.7511
   19MOL   H71016946   2.431   5.435   0.824 -1.5250 -0.0308 -2.3694
   19MOL   H71116947   2.382   5.683   0.844  2.0905 -1.2708  0.4947
   19MOL   H71216948   2.039   5.601   1.084 -0.4455 -0.5866 -0.3788
   19MOL   H71316949   2.086   5.359   1.064  0.0553  0.9902  0.6888
   19MOL   H71416950   1.945   5.944   0.894  1.0227 -1.2701 -0.9187
   19MOL   H71516951   1.834   6.080   1.091 -0.4671  0.8952  1.2085
   19MOL   H71616952   2.085   5.895   1.362 -1.7432 -1.2567  0.2980
   19MOL   H71716953   2.223   5.793   1.186  0.9614  3.7016  0.6124
   19MOL   H71816954   2.071   6.201   1.391  0.0674 -1.6829 -0.5905
   19MOL   H71916955   1.966   6.347   1.546  0.5013 -1.4948  1.0479
   19MOL   H72016956   1.590   6.167   1.465 -0.4788  4.5267 -0.0471
   19MOL   H72116957   1.691   5.995   1.312  1.5654 -1.1486 -0.0557
   19MOL   C72216958   1.673   6.489   1.509 -0.1096  0.3197 -0.2303
   19MOL   C72316959   1.590   6.495   1.401  0.9638  0.1319  1.1332
   19MOL   C72416960   1.563   6.616   1.341  0.2509  0.4678 -0.5604
   19MOL   C72516961   1.618   6.735   1.395 -0.0410  0.5782 -0.2116
   19MOL   C72616962   1.717   6.726   1.498 -0.0822 -0.0495  0.5615
   19MOL   C72716963   1.747   6.599   1.552 -0.8079 -0.0187  0.0883
   19MOL   S72816964   1.581   6.904   1.329 -0.7863  0.5421 -0.3342
   19MOL   O72916965   1.700   6.935   1.247 -0.3860 -0.5105  0.0366
   19MOL   O73016966   1.548   6.985   1.445  0.3223  0.3731  0.4323
   19MOL   C73116967   1.438   6.894   1.219  0.1181 -0.3544  0.4122
   19MOL   C73216968   1.451   6.914   1.083 -0.2686 -0.2022  1.1367
   19MOL   C73316969   1.347   6.885   0.994 -0.0727 -0.4390  0.1363
   19MOL   C73416970   1.219   6.857   1.052 -0.0479  0.0923 -0.2629
   19MOL   C73516971   1.208   6.838   1.188 -0.1050  0.1427 -0.6169
   19MOL   C73616972   1.314   6.855   1.274  0.7859 -0.7091 -0.1503
   19MOL   O73716973   1.110   6.853   0.963  0.2471  0.4511 -0.3636
   19MOL   C73816974   1.043   6.738   0.932 -0.6698 -0.2270 -0.3646
   19MOL   C73916975   1.108   6.611   0.929  0.1989 -0.6164 -0.2803
   19MOL   C74016976   1.045   6.496   0.878  0.1465  0.5828 -0.1802
   19MOL   C74116977   0.907   6.503   0.849 -0.9384  0.3569 -0.3115
   19MOL   C74216978   0.842   6.631   0.851  0.4446 -0.2972 -0.0428
   19MOL   C74316979   0.914   6.742   0.888  0.4281 -0.1509  0.1629
   19MOL   C74416980   0.837   6.381   0.810 -0.1918 -0.3394  0.2697
   19MOL   C74516981   0.704   6.363   0.871 -0.4022  0.0730 -0.4965
   19MOL   C74616982   0.631   6.243   0.849 -0.2042 -0.3028 -0.0579
   19MOL   C74716983   0.691   6.144   0.770 -0.0047 -0.3873  0.3590
   19MOL   C74816984   0.811   6.166   0.699 -0.1318 -0.2988 -0.2784
   19MOL   C74916985   0.883   6.286   0.717 -0.1661 -0.5947 -0.2514
   19MOL   O75016986   0.629   6.024   0.748  0.0074  0.0702  0.2851
   19MOL   H75116987   1.545   6.402   1.370  0.5779  0.1742  1.5574
   19MOL   H75216988   1.504   6.619   1.251  2.6186 -1.9024 -2.2703
   19MOL   H75316989   1.754   6.820   1.537 -0.1994  0.2650 -0.0800
   19MOL   H75416990   1.823   6.594   1.629 -0.9131  0.1205  0.1997
   19MOL   H75516991   1.548   6.947   1.049 -0.3078  1.9584  2.9599
   19MOL   H75616992   1.358   6.881   0.887 -0.7109 -2.3482  0.1227
   19MOL   H75716993   1.105   6.817   1.214  0.1033 -1.9551 -1.3375
   19MOL   H75816994   1.302   6.859   1.381  3.2142 -0.2432  0.1405
   19MOL   H75916995   1.212   6.599   0.955 -0.1775  0.6726  1.9264
   19MOL   H76016996   1.095   6.400   0.879  0.5704  0.8048  0.3099
   19MOL   H76116997   0.737   6.635   0.827  0.6702 -0.8036 -1.1288
   19MOL   H76216998   0.868   6.837   0.909  0.1923 -0.2828  0.2421
   19MOL   H76316999   0.673   6.442   0.937 -0.6549  0.3514 -0.9420
   19MOL   H76417000   0.535   6.229   0.894 -0.9858  0.0620 -1.5669
   19MOL   H76517001   0.842   6.091   0.628  0.3256  0.5796 -1.0225
   19MOL   H76617002   0.976   6.291   0.662  0.2185 -3.3137  0.0969
   19MOL   C76717003   0.611   5.938   0.853  0.0951  0.3432  0.5823
   19MOL   C76817004   0.709   5.925   0.956  0.4830 -0.1236  0.3486
   19MOL   C76917005   0.683   5.840   1.065 -0.0278 -0.3891 -0.3147
   19MOL   C77017006   0.564   5.761   1.074 -0.1005 -0.4564  0.1212
   19MOL   C77117007   0.470   5.779   0.975  0.7128 -0.7218 -0.1382
   19MOL   C77217008   0.492   5.866   0.863 -0.0452  0.1038  0.1195
   19MOL   S77317009   0.548   5.646   1.211 -0.2774  0.2883  0.0816
   19MOL   O77417010   0.429   5.682   1.291  0.0654 -0.4578 -0.7010
   19MOL   O77517011   0.683   5.636   1.272  0.7901  0.0091 -0.2112
   19MOL   C77617012   0.514   5.496   1.125  0.6713 -0.1106  0.4955
   19MOL   C77717013   0.604   5.467   1.020 -0.1711 -0.2277  0.0083
   19MOL   C77817014   0.570   5.353   0.939 -0.6404  0.1265  0.0180
   19MOL   C77917015   0.466   5.264   0.978 -0.1722  0.8474  0.5805
   19MOL   C78017016   0.372   5.303   1.073  0.1512 -0.0359 -0.2048
   19MOL   C78117017   0.404   5.411   1.151  0.5191 -0.2668  0.0043
   19MOL   O78217018   0.447   5.148   0.908  0.1475  0.6015  0.0239
   19MOL   C78317019   0.525   5.044   0.949  0.1122  0.2397  0.1869
   19MOL   C78417020   0.521   4.991   1.083 -0.0246 -1.1943 -0.2416
   19MOL   C78517021   0.596   4.878   1.120  0.5148 -0.4052  0.4038
   19MOL   C78617022   0.694   4.825   1.030  0.2834  0.0167 -0.6369
   19MOL   C78717023   0.707   4.878   0.900 -0.3683 -0.3635  0.4705
   19MOL   C78817024   0.619   4.986   0.855 -0.1281  0.2177 -0.6496
   19MOL   C78917025   0.777   4.708   1.077  1.1684  0.1718  0.4672
   19MOL   C79017026   0.773   4.592   0.997  0.1853 -0.2342 -0.2399
   19MOL   C79117027   0.836   4.475   1.034  0.3643  0.7771  0.7684
   19MOL   C79217028   0.920   4.476   1.148 -0.3251 -0.2884  0.5497
   19MOL   C79317029   0.907   4.585   1.239  0.5352  0.1695  0.0365
   19MOL   C79417030   0.841   4.705   1.201 -0.9771  0.5190 -0.3945
   19MOL   O79517031   1.010   4.378   1.181 -0.2069 -0.7649 -0.2604
   19MOL   H79617032   0.802   5.981   0.955  0.8549 -0.7456 -0.0949
   19MOL   H79717033   0.764   5.833   1.137 -0.4043 -0.2177  0.1303
   19MOL   H79817034   0.373   5.731   0.976  0.4714 -0.2339  0.0218
   19MOL   H79917035   0.416   5.891   0.792 -1.9127 -0.9609  1.6978
   19MOL   H80017036   0.686   5.532   0.991 -2.8038  4.0013  1.5890
   19MOL   H80117037   0.624   5.330   0.848 -1.2288  0.4194 -0.4138
   19MOL   H80217038   0.287   5.240   1.095  0.0368  0.8781  2.1694
   19MOL   H80317039   0.334   5.440   1.229  0.6888  1.8346 -0.5915
   19MOL   H80417040   0.468   5.038   1.164 -1.2900 -0.5467 -1.4064
   19MOL   H80517041   0.597   4.842   1.222 -0.5534  0.4530  0.7349
   19MOL   H80617042   0.774   4.829   0.831 -1.9880  0.5091 -1.7896
   19MOL   H80717043   0.619   5.030   0.756 -0.7774  0.3623 -0.5866
   19MOL   H80817044   0.716   4.605   0.906  0.3818  0.8664 -0.2203
   19MOL   H80917045   0.833   4.394   0.963  1.0818  1.1408  0.3186
   19MOL   H81017046   0.948   4.576   1.339 -0.0146 -0.0578  0.2437
   19MOL   H81117047   0.846   4.784   1.275 -0.2528 -1.3047  1.5623
   19MOL   C81217048   1.143   4.417   1.190 -0.9622  0.4788  0.7165
   19MOL   C81317049   1.211   4.406   1.313  0.3625  0.3429 -0.1553
   19MOL   C81417050   1.336   4.462   1.330  0.8513  0.2994  0.7527
   19MOL   C81517051   1.392   4.545   1.227  1.1129  0.8019 -0.2915
   19MOL   C81617052   1.327   4.551   1.103 -1.1697 -0.7361 -0.4741
   19MOL   C81717053   1.202   4.487   1.083 -0.2940  0.4568  0.6391
   19MOL   S81817054   1.557   4.621   1.257 -0.1708  0.2068 -0.2927
   19MOL   O81917055   1.592   4.615   1.400 -0.2221  0.7123  0.0084
   19MOL   O82017056   1.544   4.748   1.193  0.0905  0.3894 -0.1998
   19MOL   C82117057   1.679   4.530   1.163  0.9067  0.2910  0.2843
   19MOL   C82217058   1.677   4.544   1.023 -0.6553 -0.2956 -0.1041
   19MOL   C82317059   1.768   4.469   0.948  0.1140  0.6418 -0.6993
   19MOL   C82417060   1.851   4.371   1.011 -0.2701  0.1180  0.2184
   19MOL   C82517061   1.857   4.363   1.151  0.7645 -0.4741  0.1840
   19MOL   C82617062   1.764   4.436   1.234 -0.2583  0.0577  0.0173
   19MOL   O82717063   1.937   4.301   0.935 -0.1745 -0.0598 -0.2134
   19MOL   C82817064   1.909   4.175   0.906 -0.2831 -0.2703  0.3083
   19MOL   C82917065   1.959   4.072   0.980  0.1523  0.1965  0.3276
   19MOL   C83017066   1.934   3.937   0.955  0.1489  0.2126 -0.1027
   19MOL   C83117067   1.845   3.904   0.850  0.4924 -0.2781 -0.4870
   19MOL   C83217068   1.784   4.004   0.771  0.4509  0.7488 -0.7030
   19MOL   C83317069   1.822   4.137   0.801  0.5024 -0.7724 -0.5445
   19MOL   C83417070   1.817   3.757   0.818  0.0605 -0.3140 -0.6696
   19MOL   C83517071   1.924   3.669   0.787 -0.4106  0.3872  0.2762
   19MOL   C83617072   1.903   3.529   0.775 -0.0351 -0.3831 -0.2202
   19MOL   C83717073   1.775   3.479   0.781  0.5105 -0.0103 -0.0345
   19MOL   C83817074   1.664   3.567   0.793 -0.4960  0.6394 -0.8057
   19MOL   C83917075   1.686   3.701   0.811 -0.6189 -0.3156  0.6193
   19MOL   O84017076   1.747   3.345   0.747 -0.1360 -0.0797  0.6496
   19MOL   H84117077   1.167   4.370   1.405  1.5070 -0.6600  0.0120
   19MOL   H84217078   1.386   4.445   1.425 -0.1895 -0.5908  1.1500
   19MOL   H84317079   1.371   4.612   1.026  0.9617 -0.7472  0.7107
   19MOL   H84417080   1.153   4.507   0.989  0.6692  0.1382  0.0501
   19MOL   H84517081   1.608   4.611   0.974 -1.4425  0.7014  2.3148
   19MOL   H84617082   1.778   4.480   0.841  2.3859  2.5067 -0.3192
   19MOL   H84717083   1.927   4.294   1.195  1.0610 -0.3895 -0.1601
   19MOL   H84817084   1.765   4.417   1.340 -0.7967  1.3796  0.2680
   19MOL   H84917085   2.021   4.097   1.065  0.5329  0.0149  0.1043
   19MOL   H85017086   1.973   3.855   1.013 -2.2870 -2.1367 -1.6406
   19MOL   H85117087   1.731   3.983   0.678 -0.8165  0.3018  0.1072
   19MOL   H85217088   1.783   4.220   0.743  0.0628 -0.2048  0.5365
   19MOL   H85317089   2.024   3.709   0.779  0.4445 -0.9933  3.1269
   19MOL   H85417090   1.988   3.467   0.751  0.4435 -0.2339  1.0846
   19MOL   H85517091   1.563   3.530   0.800 -0.5013  0.0645 -3.2209
   19MOL   H85617092   1.598   3.762   0.828  1.3444  3.0615 -0.6075
   19MOL   C85717093   1.640   3.323   0.654 -0.4069  0.4234  0.6839
   19MOL   C85817094   1.517   3.282   0.691  0.6406  0.8315 -0.2323
   19MOL   C85917095   1.409   3.272   0.593  0.4051 -0.3352  0.2483
   19MOL   C86017096   1.437   3.291   0.455 -0.3159 -0.4544 -0.4291
   19MOL   C86117097   1.562   3.332   0.419 -0.4017 -0.1559  0.4553
   19MOL   C86217098   1.666   3.349   0.517  0.6352 -0.3616  0.2475
   19MOL   S86317099   1.304   3.266   0.339 -0.3126 -0.3668 -0.1392
   19MOL   O86417100   1.208   3.381   0.347  0.3912  0.5709 -0.1730
   19MOL   O86517101   1.241   3.132   0.357 -0.6034  0.3343 -0.8727
   19MOL   C86617102   1.378   3.271   0.175 -0.4972 -0.1991  0.9018
   19MOL   C86717103   1.335   3.370   0.082 -0.1039  1.2081 -1.0163
   19MOL   C86817104   1.399   3.385   8.325 -0.0460 -0.5160  0.3084
   19MOL   C86917105   1.510   3.300   8.283 -0.1395  0.6446 -0.0663
   19MOL   C87017106   1.545   3.192   0.006 -0.5538  0.6080  0.8481
   19MOL   C87117107   1.485   3.186   0.132 -0.1238  0.3535  0.2909
   19MOL   O87217108   1.585   3.326   8.170  0.4661 -0.0876  0.2005
   19MOL   C87317109   1.646   3.445   8.139 -0.3960  0.2185 -0.0590
   19MOL   C87417110   1.723   3.526   8.220  0.7268 -0.5046 -0.0630
   19MOL   C87517111   1.779   3.648   8.176 -0.6104 -0.3558  0.2026
   19MOL   C87617112   1.753   3.695   8.042 -0.4200  0.0089 -0.0944
   19MOL   C87717113   1.678   3.605   7.957 -0.6364 -0.7261 -0.0322
   19MOL   C87817114   1.623   3.483   8.007 -0.0506  0.3531  0.6149
   19MOL   C87917115   1.794   3.824   7.991  0.1643  0.5397  0.2067
   19MOL   C88017116   1.717   3.890   7.893 -0.5004 -0.0796 -0.4391
   19MOL   C88117117   1.740   4.022   7.858 -0.0504  0.1088  0.4930
   19MOL   C88217118   1.844   4.089   7.919 -0.5208 -0.3137  0.0696
   19MOL   C88317119   1.922   4.031   8.019 -0.2819 -0.4753  0.3587
   19MOL   C88417120   1.897   3.897   8.062  0.0772  0.1771  0.4266
   19MOL   O88517121   1.872   4.217   7.883 -0.9717 -0.0811  0.2735
   19MOL   H88617122   1.489   3.262   0.793 -2.6571  0.4691 -1.1505
   19MOL   H88717123   1.309   3.239   0.616 -0.8732  2.6973 -0.6791
   19MOL   H88817124   1.582   3.352   0.314  0.1533 -1.6649  0.2530
   19MOL   H88917125   1.768   3.380   0.495  0.9627 -0.8073  1.1428
   19MOL   H89017126   1.246   3.426   0.105 -0.1506  1.4199 -1.6892
   19MOL   H89117127   1.369   3.462   8.255 -1.3633 -0.5019  0.8836
   19MOL   H89217128   1.637   3.138   8.355 -1.3406 -0.6154  0.4201
   19MOL   H89317129   1.530   3.114   0.200  0.2561 -0.2017 -0.5436
   19MOL   H89417130   1.753   3.486   8.316  1.2481  0.9105  0.3692
   19MOL   H89517131   1.832   3.704   8.251  0.0464 -2.0984  1.0639
   19MOL   H89617132   1.657   3.629   7.854  3.0820  1.4962 -0.3681
   19MOL   H89717133   1.555   3.434   7.939  1.3519  0.9565 -1.2949
   19MOL   H89817134   1.632   3.836   7.854 -1.7457  3.0172 -2.2011
   19MOL   H89917135   1.680   4.072   7.783  0.9257 -1.6893 -1.5525
   19MOL   H90017136   1.990   4.095   8.074 -1.0790  0.9311 -0.2493
   19MOL   H90117137   1.961   3.841   8.128  0.5035 -1.2824 -1.1746
   19MOL   H90217138   1.788   4.257   7.866 -0.0586  1.5274 -0.5710
   20MOL     C117139   3.628   2.354   5.089  0.2403 -0.3880  0.2701
   20MOL     C217140   3.655   2.467   5.172  0.8027  0.1258 -0.0658
   20MOL     C317141   3.711   2.583   5.112  0.2150 -0.4260 -0.4920
   20MOL     C417142   3.752   2.580   4.980 -0.0972  0.0583  0.4530
   20MOL     C517143   3.729   2.468   4.897 -0.0158  0.8511 -0.0561
   20MOL     C617144   3.662   2.359   4.956  0.3371 -0.0986  0.1685
   20MOL     S717145   3.831   2.726   4.903  0.0978  0.3113  0.4497
   20MOL     O817146   3.841   2.831   5.013  0.0709 -0.3058  1.0341
   20MOL     O917147   3.758   2.751   4.777 -0.8061  0.3624 -0.1599
   20MOL    C1017148   3.995   2.680   4.865  0.2985  0.8725  0.3556
   20MOL    C1117149   4.022   2.589   4.756  0.2592  0.0567  0.5121
   20MOL    C1217150   4.156   2.558   4.722 -0.4016  0.3712 -0.1582
   20MOL    C1317151   4.261   2.631   4.784  0.2022  0.4395  0.1272
   20MOL    C1417152   4.232   2.736   4.876  0.0908 -0.0926  0.1049
   20MOL    C1517153   4.103   2.755   4.921 -0.3263 -0.0911 -0.4011
   20MOL    O1617154   4.390   2.605   4.747 -0.6603 -0.5309 -0.1800
   20MOL    C1717155   4.460   2.538   4.843  0.0207 -0.7036  0.3022
   20MOL    C1817156   4.460   2.398   4.852 -0.5045  0.1471  0.6658
   20MOL    C1917157   4.540   2.339   4.961  0.2481 -0.0253  0.0614
   20MOL    C2017158   4.626   2.422   5.044  0.3762  0.1759 -0.9410
   20MOL    C2117159   4.617   2.563   5.024  0.3982  0.3841 -0.3990
   20MOL    C2217160   4.527   2.620   4.929 -0.2124  0.1519  0.5723
   20MOL    C2317161   4.697   2.362   5.155 -0.0936  0.0284  0.2844
   20MOL    C2417162   4.756   2.234   5.150  0.0309  0.1870 -0.4267
   20MOL    C2517163   4.802   2.167   5.262 -0.4035  0.6130 -0.0710
   20MOL    C2617164   4.781   2.217   5.388 -0.4656  0.6158 -0.4422
   20MOL    C2717165   4.721   2.344   5.400 -0.3028  0.2200 -0.1238
   20MOL    C2817166   4.687   2.411   5.283 -0.2306  0.2811 -0.4351
   20MOL    O2917167   4.819   2.142   5.499  0.1296 -0.2303  0.7666
   20MOL    H3017168   3.629   2.461   5.277  1.0741  0.4227  0.0167
   20MOL    H3117169   3.723   2.670   5.175 -1.9651 -1.3700  1.2842
   20MOL    H3217170   3.759   2.464   4.793  1.0984 -0.6285  0.3035
   20MOL    H3317171   3.631   2.270   4.903  1.0373 -0.4291  0.3120
   20MOL    H3417172   3.945   2.543   4.696  1.0057  0.0043 -0.4127
   20MOL    H3517173   4.172   2.480   4.649 -1.5749 -0.9728  0.9786
   20MOL    H3617174   4.315   2.794   4.913 -0.5361  0.3329  0.8673
   20MOL    H3717175   4.090   2.825   5.002 -0.1635 -2.1385  1.4130
   20MOL    H3817176   4.396   2.337   4.791  1.5249 -1.0550 -0.3180
   20MOL    H3917177   4.522   2.235   4.983 -0.1736  0.2795  1.1854
   20MOL    H4017178   4.672   2.632   5.086 -2.0757  2.5674 -0.5424
   20MOL    H4117179   4.518   2.727   4.926 -2.4047 -0.0744 -2.2161
   20MOL    H4217180   4.735   2.177   5.061 -0.2240 -0.7924  0.2500
   20MOL    H4317181   4.838   2.066   5.257 -1.1483  0.2186  2.1944
   20MOL    H4417182   4.703   2.389   5.496  1.0278 -0.6003  0.5260
   20MOL    H4517183   4.644   2.509   5.298 -1.4971 -0.4250  0.7528
   20MOL    H4617184   3.567   2.272   5.126 -0.4739 -0.1547 -0.3729
   20MOL    C4717185   4.909   2.194   5.583  0.0972 -0.4374 -0.2695
   20MOL    C4817186   5.031   2.250   5.538  0.7808  0.4540 -0.3029
   20MOL    C4917187   5.121   2.308   5.631  0.1300  0.3899 -0.0245
   20MOL    C5017188   5.085   2.315   5.761  0.0979 -0.3513 -0.0802
   20MOL    C5117189   4.961   2.262   5.808  0.0019  0.3873  0.8372
   20MOL    C5217190   4.879   2.197   5.720  0.0534  0.1967 -0.3060
   20MOL    S5317191   5.188   2.397   5.883 -0.3477  0.2743  0.2121
   20MOL    O5417192   5.101   2.503   5.938  1.1603  0.4497 -0.2283
   20MOL    O5517193   5.318   2.427   5.815 -0.2784 -0.2254 -0.1321
   20MOL    C5617194   5.225   2.260   6.005  0.3564 -0.3351  0.6247
   20MOL    C5717195   5.341   2.175   5.991  0.3648 -0.0208 -0.6058
   20MOL    C5817196   5.371   2.073   6.086 -0.4397 -0.5924 -0.2478
   20MOL    C5917197   5.296   2.059   6.199 -0.5831 -0.4029 -0.3255
   20MOL    C6017198   5.198   2.163   6.229  0.5150 -0.5571 -0.4248
   20MOL    C6117199   5.153   2.255   6.129 -0.0382  0.0327 -0.2669
   20MOL    O6217200   5.323   1.948   6.277 -0.2250  0.4629  0.0080
   20MOL    C6317201   5.226   1.906   6.364  0.1753  0.5464 -0.1025
   20MOL    C6417202   5.124   1.832   6.304  0.5700  0.5185 -0.6831
   20MOL    C6517203   5.025   1.783   6.392 -0.6070  0.2087 -0.2701
   20MOL    C6617204   5.029   1.810   6.529  0.0974  0.8457  0.0637
   20MOL    C6717205   5.139   1.886   6.575 -0.2796  0.0937 -0.4160
   20MOL    C6817206   5.239   1.937   6.497  0.3640 -0.2803  0.1225
   20MOL    C6917207   4.923   1.783   6.627  0.8347  0.7584 -0.2901
   20MOL    C7017208   4.849   1.664   6.621  0.0023  0.6419 -0.2357
   20MOL    C7117209   4.733   1.642   6.699  0.2792  1.2410 -0.3544
   20MOL    C7217210   4.696   1.744   6.786 -0.4661 -0.7546  0.3371
   20MOL    C7317211   4.764   1.866   6.797 -0.8831  0.3703  0.5231
   20MOL    C7417212   4.869   1.887   6.706 -0.3850  0.3774  0.1453
   20MOL    O7517213   4.578   1.734   6.857  0.1152  0.3136  0.1810
   20MOL    H7617214   5.049   2.245   5.432  3.2594  3.2771 -0.0616
   20MOL    H7717215   5.219   2.344   5.606  0.2035  0.2531  0.0620
   20MOL    H7817216   4.932   2.271   5.912 -1.5892 -0.6279  0.5058
   20MOL    H7917217   4.791   2.149   5.761  1.9200 -1.7403  1.5994
   20MOL    H8017218   5.411   2.188   5.909  1.3069 -1.2689 -0.0176
   20MOL    H8117219   5.453   2.004   6.069  1.8119  1.5656  1.5179
   20MOL    H8217220   5.143   2.168   6.322  1.0787  0.3278 -0.1361
   20MOL    H8317221   5.072   2.326   6.138  0.0243  0.3498 -2.0472
   20MOL    H8417222   5.113   1.815   6.198 -1.7154 -0.1040 -0.3741
   20MOL    H8517223   4.939   1.728   6.355  0.3421 -0.0996 -2.0650
   20MOL    H8617224   5.155   1.917   6.678 -2.1013 -0.4847  0.0595
   20MOL    H8717225   5.322   1.991   6.542 -0.4381  1.1796 -0.0974
   20MOL    H8817226   4.875   1.580   6.557 -1.2242  0.6210 -0.7287
   20MOL    H8917227   4.688   1.544   6.698 -0.3379  1.5223  0.0480
   20MOL    H9017228   4.745   1.954   6.856 -1.4462 -0.5344  1.7129
   20MOL    H9117229   4.933   1.974   6.706  3.2150 -2.1304  2.7257
   20MOL    C9217230   4.584   1.704   6.990  0.2034  0.1711  0.3149
   20MOL    C9317231   4.665   1.600   7.043 -0.3691  0.6638  0.4270
   20MOL    C9417232   4.647   1.565   7.183 -0.2016 -0.3856  0.5921
   20MOL    C9517233   4.565   1.642   7.268 -0.6328 -0.1303  0.1881
   20MOL    C9617234   4.490   1.741   7.212 -0.6838  0.1760 -0.4205
   20MOL    C9717235   4.493   1.767   7.077  0.3264 -0.1811  0.4562
   20MOL    S9817236   4.562   1.606   7.446 -0.6029 -0.1065  0.3531
   20MOL    O9917237   4.449   1.674   7.513  0.1518 -0.3474  0.1267
   20MOL   O10017238   4.697   1.631   7.495 -1.0258 -0.2911  0.0018
   20MOL   C10117239   4.538   1.429   7.470 -0.4491 -0.1559  0.3387
   20MOL   C10217240   4.412   1.372   7.443  0.3368 -0.2875  0.0789
   20MOL   C10317241   4.394   1.236   7.481  0.0945 -0.4068 -0.3945
   20MOL   C10417242   4.503   1.156   7.526 -0.4524  0.8024  0.3608
   20MOL   C10517243   4.631   1.216   7.534  0.3679 -0.9687  0.0615
   20MOL   C10617244   4.651   1.353   7.508  0.1588  0.2378 -0.0827
   20MOL   O10717245   4.475   1.034   7.584 -0.3685  0.1398 -0.3809
   20MOL   C10817246   4.536   0.987   7.693 -0.2772  0.0554 -0.0669
   20MOL   C10917247   4.510   1.052   7.813  0.2445  0.0816  0.5898
   20MOL   C11017248   4.587   1.018   7.928  0.3683  0.3269 -0.0706
   20MOL   C11117249   4.668   0.903   7.931  0.1696 -0.0411 -0.5814
   20MOL   C11217250   4.680   0.828   7.813 -0.2580 -0.3844  0.0082
   20MOL   C11317251   4.620   0.877   7.692  0.1876 -0.4788  0.0257
   20MOL   C11417252   4.742   0.860   8.046  0.4765 -0.5183 -0.4277
   20MOL   C11517253   4.686   0.870   8.180  0.1856 -0.1964  0.2979
   20MOL   C11617254   4.772   0.857   8.291  0.1207  0.2394 -0.0277
   20MOL   C11717255   4.907   0.824   8.274 -0.1243  0.0926 -0.6964
   20MOL   C11817256   4.950   0.792   8.147  0.0896 -0.1931  0.5058
   20MOL   C11917257   4.868   0.803   8.033 -0.2210  0.1747  0.1735
   20MOL   O12017258   4.985   0.804   0.017  0.6187  0.2142  0.7801
   20MOL   H12117259   4.714   1.528   6.980 -0.8836  1.0552 -0.4238
   20MOL   H12217260   4.697   1.476   7.218  0.9372 -0.5067 -1.2806
   20MOL   H12317261   4.419   1.797   7.270  1.3585  0.7208  1.6315
   20MOL   H12417262   4.421   1.838   7.040  1.4695 -0.6176 -2.6997
   20MOL   H12517263   4.332   1.438   7.412  1.5562  0.7127 -0.9795
   20MOL   H12617264   4.295   1.193   7.473  0.4534 -0.9526 -2.1692
   20MOL   H12717265   4.717   1.169   7.580  2.1509  4.0073  2.2062
   20MOL   H12817266   4.748   1.396   7.525  1.2501 -0.7016 -3.4659
   20MOL   H12917267   4.456   1.146   7.812  0.2274  0.0665 -0.0736
   20MOL   H13017268   4.563   1.073   8.018 -0.6971 -1.8204  0.9879
   20MOL   H13117269   4.739   0.738   7.814  1.9102  0.9980 -0.2190
   20MOL   H13217270   4.634   0.823   7.599  3.8216  1.1776 -0.4740
   20MOL   H13317271   4.580   0.888   8.194  0.2643  0.0364  0.5890
   20MOL   H13417272   4.736   0.877   0.025 -1.8084  0.1726 -0.6822
   20MOL   H13517273   5.055   0.769   8.144  0.2486  0.4821  0.8873
   20MOL   H13617274   4.910   0.788   7.934  0.3327  1.6233  0.1730
   20MOL   C13717275   5.087   0.892   0.034  0.2565  0.0860 -0.1836
   20MOL   C13817276   5.058   1.029   0.023 -0.5105 -0.8350  0.5532
   20MOL   C13917277   5.162   1.126   0.031 -0.1332 -0.1968 -0.0657
   20MOL   C14017278   5.295   1.084   0.054  0.0827 -0.2605  0.8449
   20MOL   C14117279   5.322   0.946   0.074  0.3734 -0.2085 -0.3949
   20MOL   C14217280   5.217   0.855   0.051  0.1244  0.1831  0.6805
   20MOL   S14317281   5.425   1.202   0.077  0.0526 -0.0984  0.3144
   20MOL   O14417282   5.546   1.146   0.011 -0.0220 -0.0260 -0.2095
   20MOL   O14517283   5.432   1.226   0.220  0.0496 -0.5713  0.9249
   20MOL   C14617284   5.387   1.354   8.357  0.4935  0.3849  0.4513
   20MOL   C14717285   5.332   1.353   8.228 -0.2237 -0.6072  0.2944
   20MOL   C14817286   5.288   1.474   8.173  0.0962 -0.3083 -0.3857
   20MOL   C14917287   5.301   1.598   8.240  0.3997 -0.3958  0.5058
   20MOL   C15017288   5.365   1.597   0.007  0.1614 -0.2008 -0.5081
   20MOL   C15117289   5.404   1.471   0.066 -0.1360  0.0993  0.8929
   20MOL   O15217290   5.265   1.722   8.182 -0.2602 -0.5603  0.1995
   20MOL   C15317291   5.363   1.797   8.120 -0.1420  0.0607  0.2591
   20MOL   C15417292   5.324   1.906   8.037  0.1628 -0.5444  0.5349
   20MOL   C15517293   5.426   1.979   7.965  0.3620 -0.8510 -0.5738
   20MOL   C15617294   5.560   1.953   7.986 -0.2191 -0.8752 -0.0293
   20MOL   C15717295   5.598   1.854   8.073  0.2228 -0.2979  0.0694
   20MOL   C15817296   5.501   1.773   8.139  0.2242  0.3875 -0.1525
   20MOL   C15917297   5.656   2.038   7.917  0.8112 -0.8564 -0.3048
   20MOL   C16017298   5.686   2.169   7.964 -0.2500  0.1415  0.5072
   20MOL   C16117299   5.765   2.259   7.885  0.0951 -0.5594 -0.3186
   20MOL   C16217300   5.799   2.217   7.753  0.5792 -0.5106  0.2596
   20MOL   C16317301   5.774   2.083   7.709 -0.6568  0.2903 -0.1664
   20MOL   C16417302   5.702   1.998   7.793 -0.9250  0.2368  0.2226
   20MOL   O16517303   5.859   2.314   7.671  0.1593 -0.2406 -0.6100
   20MOL   H16617304   4.956   1.058   0.000  0.0909 -0.3084 -1.5506
   20MOL   H16717305   5.135   1.228   0.012  0.4787  0.6739  3.3674
   20MOL   H16817306   5.420   0.908   0.100  0.5363  0.5878  0.1720
   20MOL   H16917307   5.237   0.749   0.062 -1.4694 -0.2817 -0.7535
   20MOL   H17017308   5.314   1.260   8.177 -1.7999 -2.0145  3.3030
   20MOL   H17117309   5.239   1.482   8.078  2.0627 -0.0962 -1.4172
   20MOL   H17217310   5.371   1.688   0.065 -0.7379  0.5416 -1.5640
   20MOL   H17317311   5.430   1.469   0.171  0.9924  0.4663  0.6248
   20MOL   H17417312   5.218   1.924   8.024  0.0925 -1.0584  0.4103
   20MOL   H17517313   5.396   2.049   7.889 -0.3537 -0.2483  0.2501
   20MOL   H17617314   5.704   1.834   8.085  0.7090  1.4123 -1.0812
   20MOL   H17717315   5.531   1.691   8.204 -0.8135 -0.8643 -1.2369
   20MOL   H17817316   5.647   2.197   8.060  0.6087  1.5583  0.4542
   20MOL   H17917317   5.776   2.358   7.926  1.2211 -0.0115 -1.9252
   20MOL   H18017318   5.802   2.058   7.608  1.5373 -0.1406  0.5173
   20MOL   H18117319   5.679   1.896   7.765 -0.6384  0.1910  0.1559
   20MOL   C18217320   5.784   2.340   7.559 -0.2948 -0.1779  0.1971
   20MOL   C18317321   5.847   2.356   7.433 -0.6624  0.6926 -0.0769
   20MOL   C18417322   5.777   2.407   7.315 -0.1639 -0.3073  0.0201
   20MOL   C18517323   5.642   2.427   7.322 -0.1472  0.0145 -0.3190
   20MOL   C18617324   5.576   2.396   7.437  0.1264  0.1141 -0.0262
   20MOL   C18717325   5.643   2.356   7.556 -0.1807 -0.2192  0.5959
   20MOL   S18817326   5.563   2.498   7.187 -0.2344  0.0132  0.4626
   20MOL   O18917327   5.470   2.596   7.240 -0.2366  0.4899 -0.6569
   20MOL   O19017328   5.512   2.394   7.100 -0.0901 -0.7627 -0.5917
   20MOL   C19117329   5.696   2.588   7.104 -0.0426  0.9002  0.1398
   20MOL   C19217330   5.716   2.723   7.135  0.2473  0.0609  0.8716
   20MOL   C19317331   5.821   2.796   7.067  0.2484  0.2748  0.0906
   20MOL   C19417332   5.904   2.730   6.972  0.3875 -0.7399 -0.3261
   20MOL   C19517333   5.881   2.593   6.949  0.2867 -0.6366  0.5175
   20MOL   C19617334   5.774   2.520   7.009  0.2951 -0.3056  0.2261
   20MOL   O19717335   5.996   2.808   6.909  0.2422  0.5659 -0.3894
   20MOL   C19817336   6.126   2.766   6.913 -0.0255 -0.3912 -0.4458
   20MOL   C19917337   6.186   2.716   7.030  0.1928 -0.1620  0.9732
   20MOL   C20017338   6.315   2.675   7.025 -0.0731  0.4111 -0.0490
   20MOL   C20117339   6.390   2.684   6.901  0.4862  0.1552 -0.7902
   20MOL   C20217340   6.340   2.754   6.790 -0.4046 -0.2558 -0.0379
   20MOL   C20317341   6.202   2.795   6.795  0.4439  0.6558  0.0641
   20MOL   C20417342   6.522   2.616   6.901  0.7821  0.5859  0.0373
   20MOL   C20517343   6.533   2.486   6.965  0.2829  0.3677  0.4634
   20MOL   C20617344   6.650   2.408   6.948 -0.3920 -0.4976  0.3138
   20MOL   C20717345   6.768   2.466   6.895  0.1086  0.7578  0.2658
   20MOL   C20817346   6.761   2.588   6.838 -0.5626 -0.9961 -0.1446
   20MOL   C20917347   6.639   2.659   6.832  0.0670  0.0673  0.2043
   20MOL   O21017348   6.882   2.391   6.890  0.0948  0.2630  0.1286
   20MOL   H21117349   5.955   2.342   7.431 -0.6646  0.3060  1.3848
   20MOL   H21217350   5.833   2.430   7.226 -2.3607 -1.1464 -1.6323
   20MOL   H21317351   5.470   2.416   7.438 -0.0201 -0.3776  3.6766
   20MOL   H21417352   5.583   2.339   7.644  2.3996 -2.7928  1.9372
   20MOL   H21517353   5.645   2.762   7.207 -0.0067  1.3205 -0.0625
   20MOL   H21617354   5.844   2.898   7.093  0.5742 -0.1062  1.3219
   20MOL   H21717355   5.944   2.535   6.883  2.4227  0.7882  1.2049
   20MOL   H21817356   5.759   2.416   6.984 -1.1885  0.0302 -0.3302
   20MOL   H21917357   6.144   2.699   7.128  0.0825  0.7237  1.0881
   20MOL   H22017358   6.364   2.631   7.111 -1.1756  1.1598  0.9679
   20MOL   H22117359   6.401   2.760   6.702 -0.0995 -2.5570 -0.0330
   20MOL   H22217360   6.156   2.841   6.708  0.9177  1.0350  0.0078
   20MOL   H22317361   6.453   2.440   7.019 -0.7307  0.6591 -0.7648
   20MOL   H22417362   6.659   2.304   6.974 -0.2013 -1.4568 -3.2480
   20MOL   H22517363   6.857   2.624   6.806  0.6973 -2.8422  1.4306
   20MOL   H22617364   6.637   2.747   6.769 -0.2694 -0.8295 -1.0514
   20MOL   C22717365   6.996   2.450   6.941  0.1359 -0.5326  0.1991
   20MOL   C22817366   6.998   2.533   7.057 -0.0403  0.2049  0.2218
   20MOL   C22917367   7.119   2.573   7.117 -0.3663 -0.2048 -0.0922
   20MOL   C23017368   7.241   2.548   7.053 -0.6522  0.0212  0.2277
   20MOL   C23117369   7.240   2.466   6.941  0.8785  0.0252  0.6858
   20MOL   C23217370   7.121   2.409   6.886  0.0299  0.1078 -0.6099
   20MOL   S23317371   7.394   2.615   7.121 -0.0539  0.0717  0.4285
   20MOL   O23417372   7.369   2.744   7.190 -1.1961 -0.4063 -0.2904
   20MOL   O23517373   7.494   2.599   7.012  0.9095 -0.2407  0.4386
   20MOL   C23617374   7.438   2.503   7.259 -0.5255  0.0631 -0.1377
   20MOL   C23717375   7.369   2.383   7.279 -0.2165  0.2108 -0.1977
   20MOL   C23817376   7.411   2.299   7.387  0.2184 -0.3074  0.3097
   20MOL   C23917377   7.512   2.337   7.470 -0.2123  0.4326 -0.4106
   20MOL   C24017378   7.583   2.458   7.453 -0.2383  0.2433 -0.0204
   20MOL   C24117379   7.545   2.541   7.340 -0.5381 -0.0095  0.2673
   20MOL   O24217380   7.543   2.251   7.574 -0.3356  0.4897 -0.0023
   20MOL   C24317381   7.671   2.228   7.614  0.1292  0.1383  0.0428
   20MOL   C24417382   7.717   2.234   7.750 -0.2382  0.9125 -0.4983
   20MOL   C24517383   7.841   2.185   7.782  0.3648 -0.6003  0.5185
   20MOL   C24617384   7.931   2.140   7.680 -0.4233 -0.3074 -0.2583
   20MOL   C24717385   7.886   2.138   7.548 -0.6420 -0.7731  0.3617
   20MOL   C24817386   7.755   2.179   7.515 -0.6836  0.2305 -0.0878
   20MOL   C24917387   8.066   2.084   7.721  0.9119  0.2673  0.4626
   20MOL   C25017388   8.185   2.133   7.667  0.0795 -0.2570 -0.3325
   20MOL   C25117389   8.307   2.081   7.703  0.1876 -0.0318 -0.3111
   20MOL   C25217390   8.316   1.968   7.792 -0.7287  1.0342 -0.3847
   20MOL   C25317391   8.193   1.924   7.845  0.4747 -0.2181  0.0221
   20MOL   C25417392   8.074   1.985   7.820 -0.0943 -0.0266 -0.1289
   20MOL   O25517393   0.064   1.904   7.824 -0.1208  0.6934  0.6715
   20MOL   H25617394   6.910   2.569   7.109  0.8775  0.0156  1.9419
   20MOL   H25717395   7.118   2.643   7.199  1.3339  0.2088 -0.4000
   20MOL   H25817396   7.333   2.438   6.894  0.0718 -0.6553 -0.5332
   20MOL   H25917397   7.136   2.338   6.806  2.8686  0.0646 -0.0598
   20MOL   H26017398   7.281   2.357   7.222 -0.9376 -1.3456  1.6032
   20MOL   H26117399   7.356   2.214   7.423 -0.0496 -0.0678  0.4622
   20MOL   H26217400   7.655   2.488   7.527 -1.7329  1.3521  1.0372
   20MOL   H26317401   7.591   2.638   7.332 -1.1834  0.4186  1.5907
   20MOL   H26417402   7.642   2.262   7.823 -1.5685 -0.8053 -1.1692
   20MOL   H26517403   7.868   2.183   7.887 -2.3075  1.5398  1.2951
   20MOL   H26617404   7.963   2.114   7.477 -0.1401  1.9856 -0.1039
   20MOL   H26717405   7.717   2.173   7.414  1.2153 -0.9364 -0.7669
   20MOL   H26817406   8.170   2.206   7.589 -2.2541  0.4642  0.7560
   20MOL   H26917407   0.036   2.110   7.662  0.6391 -0.7641  0.2064
   20MOL   H27017408   8.209   1.851   7.923 -0.6907  0.9624  1.4087
   20MOL   H27117409   7.985   1.957   7.876 -0.9299  0.3191 -1.2552
   20MOL   C27217410   0.115   1.807   7.739  0.0202  0.5868  0.3328
   20MOL   C27317411   0.129   1.834   7.606 -0.6115  0.7683  0.4148
   20MOL   C27417412   0.188   1.742   7.519 -0.6741 -0.5518 -0.0781
   20MOL   C27517413   0.248   1.626   7.570  0.3752  0.4890  0.6610
   20MOL   C27617414   0.246   1.606   7.708  0.1033  0.4912  0.1076
   20MOL   C27717415   0.175   1.694   7.794 -0.1475  0.8880 -0.3052
   20MOL   S27817416   0.335   1.513   7.464 -0.1283  0.1083 -0.2595
   20MOL   O27917417   0.245   1.410   7.414 -0.3856  0.1277  0.0027
   20MOL   O28017418   0.453   1.462   7.539  0.4965 -0.1386  0.2451
   20MOL   C28117419   0.400   1.599   7.323 -0.3118  0.2923  0.4537
   20MOL   C28217420   0.530   1.652   7.320 -0.0877 -0.2975  0.3038
   20MOL   C28317421   0.566   1.727   7.205 -0.0403  0.0859 -0.4635
   20MOL   C28417422   0.479   1.742   7.095 -0.0481  0.0827 -0.8822
   20MOL   C28517423   0.356   1.682   7.099  0.6187 -0.1105 -0.3644
   20MOL   C28617424   0.317   1.608   7.215  0.0857 -0.2661 -0.3059
   20MOL   O28717425   0.525   1.804   6.987 -0.3729 -0.2102  0.1877
   20MOL   C28817426   0.474   1.923   6.940 -0.7395 -0.3032  0.7526
   20MOL   C28917427   0.546   1.993   6.844 -0.1555 -0.5155 -0.0286
   20MOL   C29017428   0.501   2.109   6.778 -0.0431  0.2146  0.0979
   20MOL   C29117429   0.370   2.154   6.816  0.4974 -0.3758  0.8165
   20MOL   C29217430   0.295   2.086   6.908  0.0742  0.2382  0.2086
   20MOL   C29317431   0.345   1.972   6.977 -0.3388 -0.2811  0.8594
   20MOL   C29417432   0.306   2.277   6.757 -0.7060  0.7841 -1.1302
   20MOL   C29517433   0.235   2.371   6.835  1.1486  0.1556  0.4688
   20MOL   C29617434   0.173   2.481   6.775 -0.5935 -0.2014  0.5366
   20MOL   C29717435   0.180   2.502   6.634 -0.1816  0.6555  0.1101
   20MOL   C29817436   0.249   2.411   6.554 -0.7877  0.1427  0.2042
   20MOL   C29917437   0.320   2.307   6.621  0.6220 -0.3846 -0.1858
   20MOL   O30017438   0.107   2.605   6.581  0.1607  0.9280 -0.6956
   20MOL   H30117439   0.088   1.924   7.562 -0.7718  1.2177  1.4672
   20MOL   H30217440   0.197   1.760   7.413  0.9889  2.2950  0.4902
   20MOL   H30317441   0.293   1.520   7.754 -1.0396 -0.9698 -1.4108
   20MOL   H30417442   0.165   1.663   7.896 -1.2097  0.5169 -0.5176
   20MOL   H30517443   0.597   1.642   7.404  0.7005 -2.1900 -0.5145
   20MOL   H30617444   0.657   1.785   7.214 -0.4491  0.4286  1.7498
   20MOL   H30717445   0.299   1.675   7.007 -0.1820 -0.9159  0.1773
   20MOL   H30817446   0.218   1.565   7.213  0.5003 -1.3423  1.0374
   20MOL   H30917447   0.641   1.957   6.807  0.4778  0.3075  0.7691
   20MOL   H31017448   0.557   2.142   6.692  1.5682 -1.9565  0.2613
   20MOL   H31117449   0.200   2.126   6.943  0.8137  1.1591  1.2001
   20MOL   H31217450   0.284   1.923   7.052 -2.1200 -0.9290 -0.9778
   20MOL   H31317451   0.221   2.349   6.940  1.8578  0.3756  0.6072
   20MOL   H31417452   0.113   2.542   6.842 -0.1554  0.2789  0.4997
   20MOL   H31517453   0.249   2.417   6.446 -0.2635 -1.3953  0.1060
   20MOL   H31617454   0.361   2.231   6.558 -0.8217 -0.8865 -0.5443
   20MOL   C31717455   8.348   2.643   6.621  0.0624 -0.0973  0.0874
   20MOL   C31817456   8.341   2.784   6.640  0.4168  0.1669  0.8168
   20MOL   C31917457   8.219   2.845   6.678  0.0535  0.4797  0.8782
   20MOL   C32017458   8.106   2.764   6.689  0.2690 -0.3268  0.4240
   20MOL   C32117459   8.117   2.625   6.677 -0.0987  0.1602 -0.0070
   20MOL   C32217460   8.235   2.558   6.651  0.2406  0.0357  0.8518
   20MOL   S32317461   7.946   2.836   6.730 -0.2869 -0.1533 -0.0108
   20MOL   O32417462   7.836   2.758   6.670  0.3908  0.6373  0.2506
   20MOL   O32517463   7.957   2.982   6.718  0.2161 -0.0680  0.2413
   20MOL   C32617464   7.934   2.794   6.907  0.8098 -0.2980  0.8337
   20MOL   C32717465   7.818   2.744   6.961 -0.8191  0.6138  0.1586
   20MOL   C32817466   7.821   2.703   7.093  0.2417  0.6795 -0.4376
   20MOL   C32917467   7.932   2.725   7.175 -0.2394  0.7394  0.3577
   20MOL   C33017468   8.047   2.781   7.125 -0.6416 -0.6446 -0.2922
   20MOL   C33117469   8.052   2.811   6.986 -0.0809  0.3443 -0.2466
   20MOL   O33217470   7.922   2.674   7.302 -0.1234 -0.3610 -0.4597
   20MOL   C33317471   7.890   2.757   7.407  0.1893  0.0145  0.0256
   20MOL   C33417472   7.795   2.859   7.396  0.0774 -0.3029 -0.2477
   20MOL   C33517473   7.747   2.929   7.513 -0.6866 -0.0181 -0.1985
   20MOL   C33617474   7.804   2.904   7.640 -0.5453 -0.1260  0.3945
   20MOL   C33717475   7.894   2.800   7.650 -0.0812  0.2203 -0.4638
   20MOL   C33817476   7.934   2.725   7.536  0.4670 -0.0613 -0.3675
   20MOL   C33917477   7.750   2.976   7.764 -0.6558 -0.6252  0.2441
   20MOL   C34017478   7.619   3.024   7.769  0.3298  0.3669 -0.3601
   20MOL   C34117479   7.571   3.097   7.879  0.0965  0.4842  0.1270
   20MOL   C34217480   7.649   3.120   7.991 -0.2650 -0.2047  0.4384
   20MOL   C34317481   7.782   3.073   7.991 -0.1963 -0.1988  0.4117
   20MOL   C34417482   7.830   3.001   7.879 -0.7579 -0.1141  0.0332
   20MOL   O34517483   7.593   3.203   8.087  0.7357  0.1696  0.6297
   20MOL   H34617484   0.061   2.845   6.618 -1.0309  1.6312 -0.9271
   20MOL   H34717485   8.202   2.952   6.691  1.1874  0.4943  2.3141
   20MOL   H34817486   8.028   2.569   6.698 -0.2023  1.2629  2.6466
   20MOL   H34917487   8.252   2.453   6.637  1.5161  0.1621  1.3602
   20MOL   H35017488   7.733   2.726   6.897 -2.0150  0.7644  1.6842
   20MOL   H35117489   7.736   2.651   7.135  0.3289 -0.6848 -1.8878
   20MOL   H35217490   8.129   2.805   7.191 -0.8434 -1.4323  0.2597
   20MOL   H35317491   8.142   2.854   6.944 -0.4484 -0.4335 -1.8473
   20MOL   H35417492   7.760   2.883   7.297 -1.7168 -0.4254  0.3549
   20MOL   H35517493   7.669   3.002   7.501 -1.0748 -0.5756 -1.1679
   20MOL   H35617494   7.932   2.764   7.744 -1.0487  1.3917  0.3914
   20MOL   H35717495   8.009   2.650   7.551 -0.3267 -0.6147  0.9374
   20MOL   H35817496   7.554   3.005   7.685  0.7636 -2.4521 -0.1191
   20MOL   H35917497   7.469   3.132   7.879 -0.2784 -0.5290 -1.7090
   20MOL   H36017498   7.840   3.100   8.077  0.7758 -2.1707  0.3959
   20MOL   H36117499   7.931   2.963   7.888 -0.5909  0.2666 -0.1915
   20MOL   C36217500   7.665   3.314   8.123 -0.2925 -0.3277 -1.0822
   20MOL   C36317501   7.767   3.309   8.222 -0.7474 -0.3787 -0.6151
   20MOL   C36417502   7.835   3.428   8.254 -0.1691 -0.6047 -0.2888
   20MOL   C36517503   7.794   3.557   8.210 -0.2670 -0.8686  0.2226
   20MOL   C36617504   7.695   3.556   8.113 -0.1240 -0.1629  0.2825
   20MOL   C36717505   7.628   3.439   8.077 -0.3542 -0.2326  0.0217
   20MOL   S36817506   7.861   3.721   8.270  0.2301  0.1757  0.2228
   20MOL   O36917507   7.793   3.823   8.187  0.1485 -0.4881 -0.1808
   20MOL   O37017508   8.007   3.716   8.271 -0.2336  0.7426 -0.6827
   20MOL   C37117509   7.801   3.740   0.079 -0.4055  0.2234  0.3753
   20MOL   C37217510   7.766   3.626   0.155  0.2644  0.8436 -0.1970
   20MOL   C37317511   7.764   3.635   0.298  0.1157 -0.4854 -0.8306
   20MOL   C37417512   7.782   3.760   0.366 -0.6637  0.0500 -0.4608
   20MOL   C37517513   7.801   3.876   0.285  0.3173 -0.1229  0.8207
   20MOL   C37617514   7.809   3.867   0.142 -1.1479  0.5933 -1.4458
   20MOL   O37717515   7.791   3.769   0.506  0.0399 -0.3098  0.4608
   20MOL   C37817516   7.746   3.666   0.589  0.1853 -0.6758  0.1944
   20MOL   C37917517   7.830   3.557   0.610 -0.0916  0.2858  0.2723
   20MOL   C38017518   7.792   3.453   0.695 -1.0719 -0.3283 -0.8200
   20MOL   C38117519   7.657   3.452   0.751 -0.2330 -0.6964  0.4233
   20MOL   C38217520   7.577   3.562   0.729  0.2711 -0.5140 -0.0517
   20MOL   C38317521   7.624   3.675   0.654 -0.1563  0.0815 -0.2880
   20MOL   C38417522   7.606   3.335   0.822  0.8560 -0.1138 -0.2897
   20MOL   C38517523   7.477   3.275   0.806 -0.7908 -0.4860  0.4873
   20MOL   C38617524   7.429   3.166   0.879  0.3038 -0.7426 -0.3420
   20MOL   C38717525   7.521   3.114   0.975  0.4414  0.3254  0.1344
   20MOL   C38817526   7.652   3.166   0.984 -0.6350  0.4912  0.6038
   20MOL   C38917527   7.692   3.278   0.916 -0.3135 -0.0371  0.2483
   20MOL   O39017528   7.491   2.999   1.043 -0.7080 -0.3156  0.3901
   20MOL   H39117529   7.802   3.217   8.268 -1.0445 -0.3092 -0.2499
   20MOL   H39217530   7.917   3.423   8.324  2.0257  1.1652 -2.6558
   20MOL   H39317531   7.649   3.641   8.064 -3.1249 -1.1266  1.2802
   20MOL   H39417532   7.537   3.452   8.021 -0.1671  1.9945  0.1689
   20MOL   H39517533   7.751   3.524   0.123 -2.1019  1.3226 -0.7034
   20MOL   H39617534   7.747   3.543   0.351 -0.5155 -0.5614 -1.1673
   20MOL   H39717535   7.812   3.975   0.327  0.7294  0.8242 -1.4585
   20MOL   H39817536   7.832   3.957   0.086 -0.1282  1.6420  0.5965
   20MOL   H39917537   7.911   3.560   0.539 -1.3446 -0.4914 -1.2269
   20MOL   H40017538   7.855   3.367   0.710 -2.6277 -1.5007 -0.8150
   20MOL   H40117539   7.476   3.563   0.765 -0.7954  1.4476 -2.9075
   20MOL   H40217540   7.561   3.762   0.638  0.3027  0.5946  0.6653
   20MOL   H40317541   7.417   3.316   0.725  0.0504  0.6455  0.4258
   20MOL   H40417542   7.337   3.111   0.865  1.6273 -2.8564 -0.9504
   20MOL   H40517543   7.731   3.122   1.044  0.6370  0.7958 -0.8374
   20MOL   H40617544   7.794   3.312   0.928 -0.0881 -0.0188 -1.5758
   20MOL   C40717545   7.427   3.011   1.163  0.4848  0.1467  0.3031
   20MOL   C40817546   7.463   3.095   1.267 -0.3850 -0.0540  0.3103
   20MOL   C40917547   7.384   3.119   1.377  0.1236 -0.1444  0.4631
   20MOL   C41017548   7.269   3.037   1.392 -0.1514 -0.2727 -0.1881
   20MOL   C41117549   7.232   2.940   1.300  0.9332 -0.3569  0.7021
   20MOL   C41217550   7.308   2.934   1.181 -0.7825  0.4531 -0.1372
   20MOL   S41317551   7.170   3.051   1.541  0.0297  0.4253 -0.4862
   20MOL   O41417552   7.033   3.027   1.498  0.4899  0.0680 -0.2527
   20MOL   O41517553   7.200   3.173   1.615  0.0033 -0.3103 -0.7427
   20MOL   C41617554   7.213   2.915   1.643  0.4451 -0.0113 -0.1268
   20MOL   C41717555   7.306   2.938   1.742 -0.2598  0.2384 -0.1102
   20MOL   C41817556   7.351   2.832   1.823  0.2482  0.1274 -1.0371
   20MOL   C41917557   7.300   2.703   1.798 -0.2461 -0.0516 -0.2409
   20MOL   C42017558   7.209   2.675   1.695  0.0281 -0.1353  0.0838
   20MOL   C42117559   7.165   2.784   1.612  0.4058 -0.5837  0.0443
   20MOL   O42217560   7.313   2.604   1.892 -0.1554  0.3811  0.4488
   20MOL   C42317561   7.248   2.621   2.013 -0.0714  0.0215  0.1431
   20MOL   C42417562   7.107   2.653   2.015 -0.1252 -0.0313  0.5728
   20MOL   C42517563   7.037   2.677   2.135 -0.5251 -0.7450  0.3218
   20MOL   C42617564   7.103   2.683   2.259  0.0912 -0.2864  0.4847
   20MOL   C42717565   7.245   2.647   2.255 -0.6866  0.8386 -0.6211
   20MOL   C42817566   7.323   2.626   2.137 -0.5281  0.2217 -0.3611
   20MOL   C42917567   7.040   2.740   2.378  1.0168  0.5421 -0.3657
   20MOL   C43017568   6.904   2.719   2.403  0.6999  0.9343  0.3447
   20MOL   C43117569   6.831   2.769   2.508  0.0866 -0.2911 -0.0523
   20MOL   C43217570   6.899   2.849   2.598 -0.5587 -1.0763 -0.1527
   20MOL   C43317571   7.032   2.888   2.578  0.0739  0.4496  0.1445
   20MOL   C43417572   7.099   2.838   2.465 -0.1426 -0.1197 -0.3818
   20MOL   O43517573   6.841   2.900   2.715 -0.0872  0.6462  0.1872
   20MOL   H43617574   7.547   3.163   1.255 -0.7979  0.7040  1.7000
   20MOL   H43717575   7.403   3.200   1.446  2.7281 -0.6015  0.3236
   20MOL   H43817576   7.144   2.879   1.313 -0.6666  2.1033  1.6843
   20MOL   H43917577   7.288   2.862   1.103  0.3389  1.0936 -1.0324
   20MOL   H44017578   7.346   3.038   1.751 -0.8652  0.5693 -1.0530
   20MOL   H44117579   7.427   2.842   1.899  0.0250 -0.7089 -0.7016
   20MOL   H44217580   7.176   2.575   1.670  0.9249  0.0415 -1.8552
   20MOL   H44317581   7.084   2.776   1.541  0.6870  1.1516 -0.5057
   20MOL   H44417582   7.060   2.651   1.917 -0.2865  1.3543  0.5984
   20MOL   H44517583   6.933   2.705   2.124 -0.3551 -0.2150  0.0670
   20MOL   H44617584   7.305   2.660   2.344 -0.0122  1.0272 -1.0983
   20MOL   H44717585   7.430   2.618   2.147 -0.4822 -0.4155 -1.2857
   20MOL   H44817586   6.852   2.676   2.318 -0.0498  0.5633  0.9857
   20MOL   H44917587   6.725   2.751   2.512 -0.5594  2.5430 -2.3703
   20MOL   H45017588   7.092   2.944   2.649  2.1568 -0.0462 -1.2039
   20MOL   H45117589   7.204   2.863   2.467  0.1017 -1.1943  1.0946
   20MOL   C45217590   6.713   2.947   2.712  0.2878 -0.6774 -0.5676
   20MOL   C45317591   6.619   2.890   2.799 -0.2063 -0.1849  0.1876
   20MOL   C45417592   6.484   2.922   2.801  0.7583  0.0978 -0.4492
   20MOL   C45517593   6.441   3.028   2.716  0.0926 -0.1164  0.6682
   20MOL   C45617594   6.538   3.102   2.640  0.2492 -0.5413 -0.7685
   20MOL   C45717595   6.676   3.060   2.633 -0.0943  0.2386  0.3275
   20MOL   S45817596   6.278   3.093   2.718  0.5134  0.1162 -0.1124
   20MOL   O45917597   6.304   3.238   2.737  0.3114  0.5254  0.2030
   20MOL   O46017598   6.195   3.026   2.815 -0.3794  0.7315 -0.1013
   20MOL   C46117599   6.201   3.061   2.553  0.8551 -0.3004 -0.2666
   20MOL   C46217600   6.161   2.929   2.517  0.5709 -0.8279  0.2938
   20MOL   C46317601   6.104   2.908   2.387 -0.3577  0.5041  0.1578
   20MOL   C46417602   6.099   3.011   2.292  0.5427  0.0292 -0.9046
   20MOL   C46517603   6.147   3.140   2.332 -0.4901 -0.5194  0.6781
   20MOL   C46617604   6.190   3.169   2.460 -0.4105 -0.1084  0.1917
   20MOL   O46717605   6.060   2.980   2.165  0.0248 -0.8935  0.1387
   20MOL   C46817606   6.146   3.033   2.069  0.3194  0.2665 -0.1279
   20MOL   C46917607   6.258   2.960   2.026 -0.2996 -0.3460  0.2754
   20MOL   C47017608   6.355   3.023   1.953  0.1763  0.9516  0.0843
   20MOL   C47117609   6.336   3.153   1.905  0.4790 -0.9792 -0.4149
   20MOL   C47217610   6.214   3.223   1.936  0.0448 -0.0049  0.5741
   20MOL   C47317611   6.117   3.156   2.010  0.4885 -0.8624  0.2248
   20MOL   C47417612   6.437   3.223   1.820 -0.1478 -0.2012  0.5092
   20MOL   C47517613   6.407   3.247   1.686  0.0211  0.1321 -1.0446
   20MOL   C47617614   6.498   3.302   1.593  0.0088  0.4134 -0.0157
   20MOL   C47717615   6.630   3.335   1.633 -0.2638 -0.1334 -1.0655
   20MOL   C47817616   6.668   3.305   1.766  0.1408 -0.2939  0.3696
   20MOL   C47917617   6.574   3.255   1.858 -0.2258  0.5113 -0.2592
   20MOL   O48017618   6.716   3.384   1.543  0.1510  0.0339 -0.0303
   20MOL   H48117619   6.652   2.813   2.868  1.0641  0.8631  0.7771
   20MOL   H48217620   6.410   2.877   2.866  0.2264  0.4955 -0.7774
   20MOL   H48317621   6.500   3.187   2.586 -0.9596 -1.7679 -1.8884
   20MOL   H48417622   6.756   3.099   2.573 -1.9171  0.0739 -2.3120
   20MOL   H48517623   6.190   2.850   2.585 -2.1441 -2.0476  0.0853
   20MOL   H48617624   6.080   2.806   2.361  1.2315  0.4794 -1.2519
   20MOL   H48717625   6.163   3.219   2.260 -0.0065 -0.1746  1.1629
   20MOL   H48817626   6.236   3.263   2.488  1.3970 -0.7101 -0.6665
   20MOL   H48917627   6.283   2.870   2.081 -1.9440 -0.7513  0.3857
   20MOL   H49017628   6.437   2.965   1.910  1.2577  1.5073  1.3623
   20MOL   H49117629   6.202   3.325   1.902 -1.2672 -0.5098 -0.5203
   20MOL   H49217630   6.028   3.206   2.043  1.5854  1.2685  0.0630
   20MOL   H49317631   6.304   3.226   1.661  0.1385  0.7969 -2.1540
   20MOL   H49417632   6.460   3.327   1.495 -0.1799  0.9178  0.1814
   20MOL   H49517633   6.764   3.332   1.807  0.2463 -0.2974  0.1191
   20MOL   H49617634   6.593   3.235   1.963  0.3194  0.6214 -0.3365
   20MOL   C49717635   6.826   3.459   1.584 -0.5751 -0.1697  0.4290
   20MOL   C49817636   6.957   3.407   1.567  0.7801 -0.6999 -0.0455
   20MOL   C49917637   7.072   3.492   1.593 -0.0840 -0.1004 -0.0251
   20MOL   C50017638   7.051   3.623   1.629  0.0349  0.1181 -0.4631
   20MOL   C50117639   6.922   3.680   1.635  0.5791 -0.0025 -0.3752
   20MOL   C50217640   6.808   3.598   1.613  0.1649 -0.1262  0.5465
   20MOL   S50317641   7.181   3.745   1.674 -0.1586 -0.1024 -0.2066
   20MOL   O50417642   7.204   3.729   1.819  0.0746 -0.0045 -0.2918
   20MOL   O50517643   7.142   3.880   1.625  0.1828  0.4685  0.2819
   20MOL   C50617644   7.344   3.712   1.596 -0.6340  0.5610  0.3960
   20MOL   C50717645   7.387   3.798   1.490 -0.5748  0.1738  0.2360
   20MOL   C50817646   7.510   3.769   1.425  0.5007  0.5694  0.3142
   20MOL   C50917647   7.588   3.658   1.464 -0.6932  0.2129  0.0211
   20MOL   C51017648   7.536   3.570   1.561  0.3098 -0.3979  0.2787
   20MOL   C51117649   7.420   3.599   1.632  0.3446  0.3467 -0.2878
   20MOL   O51217650   7.718   3.643   1.427  0.3239 -0.2997  0.2074
   20MOL   C51317651   7.819   3.720   1.474 -0.0927  0.4304 -0.8960
   20MOL   C51417652   7.942   3.748   1.400  0.2354  0.4933 -0.2614
   20MOL   C51517653   8.049   3.812   1.458  0.1448 -0.7645  0.3421
   20MOL   C51617654   8.053   3.841   1.595  0.4745  0.4949  0.8932
   20MOL   C51717655   7.942   3.801   1.671  0.8274 -0.5767  0.3009
   20MOL   C51817656   7.825   3.748   1.617  0.0049 -0.3300 -0.0964
   20MOL   C51917657   8.174   3.893   1.650  0.1831 -0.6784  0.5695
   20MOL   C52017658   8.197   3.896   1.790 -0.1443 -0.5694 -0.4137
   20MOL   C52117659   8.316   3.945   1.857  0.3033 -0.0718  0.0761
   20MOL   C52217660   0.045   4.005   1.777 -0.3041 -0.6825  0.3492
   20MOL   C52317661   0.027   4.008   1.638 -0.1000 -0.0178  0.1325
   20MOL   C52417662   8.276   3.955   1.575 -0.3953 -1.1063 -0.9917
   20MOL   O52517663   0.153   4.070   1.832  0.0302  0.1502  0.7042
   20MOL   H52617664   6.969   3.303   1.540 -1.2239 -1.0759  0.4372
   20MOL   H52717665   7.170   3.447   1.590 -1.1537 -2.4555 -0.5411
   20MOL   H52817666   6.910   3.785   1.657 -2.1180 -0.4022  0.3217
   20MOL   H52917667   6.710   3.637   1.637 -0.3901 -0.9808 -0.2973
   20MOL   H53017668   7.333   3.889   1.468  0.0799  0.5550  0.1999
   20MOL   H53117669   7.552   3.858   1.381  1.3960  0.0499  0.1143
   20MOL   H53217670   7.597   3.488   1.597  1.6573 -0.3406 -1.7784
   20MOL   H53317671   7.394   3.540   1.719  0.2968 -1.2414 -1.3603
   20MOL   H53417672   7.940   3.711   1.299 -1.1618 -1.0764  0.3050
   20MOL   H53517673   8.136   3.836   1.398  0.2126  1.5628  1.3151
   20MOL   H53617674   7.947   3.817   1.778  0.4779  0.6505  0.1404
   20MOL   H53717675   7.745   3.740   1.689  3.1621 -1.9941  3.3605
   20MOL   H53817676   8.130   3.842   1.856  2.2737  0.3140  2.9279
   20MOL   H53917677   8.318   3.933   1.964 -1.5022 -0.3903  0.0923
   20MOL   H54017678   0.103   4.050   1.575 -0.1662 -0.6908 -0.4076
   20MOL   H54117679   8.264   3.976   1.470  0.5864  0.7672 -0.7406
   20MOL   C54217680   0.145   4.198   1.880 -0.0930 -0.8519  0.1275
   20MOL   C54317681   0.147   4.315   1.798 -0.6492  0.2693 -0.4251
   20MOL   C54417682   0.125   4.439   1.858  0.5093 -0.2779 -0.0812
   20MOL   C54517683   0.107   4.452   1.993  0.3363  0.4273 -0.8351
   20MOL   C54617684   0.111   4.340   2.079 -0.4245  0.1360  0.4708
   20MOL   C54717685   0.135   4.215   2.020  0.0623 -0.2285 -0.7291
   20MOL   S54817686   0.078   4.612   2.067  0.0213  0.2497 -0.0717
   20MOL   O54917687   0.195   4.693   2.025 -0.0663 -0.2201 -0.0979
   20MOL   O55017688   0.037   4.594   2.208  0.3870  0.1366  0.3910
   20MOL   C55117689   8.301   4.673   1.972 -0.2178 -0.4522 -0.5416
   20MOL   C55217690   8.174   4.627   2.005 -0.0052  0.1148  0.6168
   20MOL   C55317691   8.057   4.697   1.946 -0.5869  0.0563  0.4452
   20MOL   C55417692   8.085   4.811   1.868  0.0879  0.1632  0.0731
   20MOL   C55517693   8.215   4.854   1.833 -0.2947 -0.2896 -0.3456
   20MOL   C55617694   8.324   4.789   1.894 -0.2607 -0.2516  0.2989
   20MOL   O55717695   7.975   4.881   1.822 -0.5823  0.0490  0.2288
   20MOL   C55817696   7.973   4.940   1.699 -0.5684  0.8588  0.2535
   20MOL   C55917697   7.971   4.861   1.585  0.6158 -0.1837 -0.0370
   20MOL   C56017698   7.953   4.921   1.463  0.0791 -0.2369  0.2591
   20MOL   C56117699   7.927   5.060   1.445 -0.4227  0.3183  0.1643
   20MOL   C56217700   7.936   5.138   1.556 -0.5787  0.0176 -0.4875
   20MOL   C56317701   7.954   5.079   1.685  0.3372  0.4158 -0.5510
   20MOL   C56417702   7.906   5.112   1.307 -0.5946  0.1948 -1.2493
   20MOL   C56517703   7.983   5.072   1.198 -0.1885  0.6185 -0.0582
   20MOL   C56617704   7.962   5.122   1.068 -0.2085  0.1549 -0.0712
   20MOL   C56717705   7.867   5.220   1.042 -0.2631  0.6729  0.9297
   20MOL   C56817706   7.788   5.258   1.153 -0.1102  0.5539 -0.2986
   20MOL   C56917707   7.813   5.209   1.284 -0.4493 -0.0049  0.5636
   20MOL   O57017708   7.845   5.266   0.910 -0.2312 -0.8232 -0.1501
   20MOL   H57117709   0.165   4.301   1.692 -0.2165  0.5235 -0.3827
   20MOL   H57217710   0.120   4.530   1.799  1.5534  0.7774  1.3982
   20MOL   H57317711   0.101   4.346   2.187  0.8679  1.0593  0.5412
   20MOL   H57417712   0.144   4.128   2.084  2.3714  1.3157  1.1153
   20MOL   H57517713   8.153   4.530   2.047 -1.7418  0.5948  0.8935
   20MOL   H57617714   7.957   4.657   1.946 -0.5277 -0.2806  3.8725
   20MOL   H57717715   8.233   4.946   1.780  1.6946 -1.1173 -1.1359
   20MOL   H57817716   0.059   4.825   1.886 -0.9773  1.7684  0.1945
   20MOL   H57917717   7.989   4.757   1.608  0.0759 -0.1047  0.7419
   20MOL   H58017718   7.933   4.859   1.377 -2.4600 -1.0998  1.4244
   20MOL   H58117719   7.934   5.244   1.538 -0.9518  0.5521  2.4323
   20MOL   H58217720   7.970   5.145   1.769 -1.0274 -0.2311  0.2382
   20MOL   H58317721   8.045   4.986   1.214 -1.6990 -0.6658 -0.9329
   20MOL   H58417722   8.022   5.077   0.990 -0.9587 -0.9103 -0.0402
   20MOL   H58517723   7.703   5.323   1.137  0.0298  0.6090 -0.8477
   20MOL   H58617724   7.748   5.235   1.366 -1.4412 -0.7451  0.0166
   20MOL   C58717725   7.885   5.393   0.867  0.5409  0.0604 -0.2542
   20MOL   C58817726   7.849   5.421   0.732  0.1401  0.4582  0.4173
   20MOL   C58917727   7.888   5.544   0.679  0.1000  0.1498 -0.3409
   20MOL   C59017728   7.951   5.643   0.760 -0.0248 -0.3002  0.9150
   20MOL   C59117729   7.977   5.616   0.895 -0.3113 -0.2157  0.4431
   20MOL   C59217730   7.960   5.488   0.943  0.6116  0.1387 -0.2121
   20MOL   S59317731   8.003   5.791   0.674 -0.0769  0.0762  0.5019
   20MOL   O59417732   7.876   5.846   0.613 -1.0891  0.3782 -0.0833
   20MOL   O59517733   8.115   5.755   0.592 -0.2269 -0.5049  0.3838
   20MOL   C59617734   8.063   5.911   0.796 -0.0423  0.3666  0.4193
   20MOL   C59717735   7.975   5.994   0.867 -0.3129  0.2041  0.5983
   20MOL   C59817736   8.023   6.076   0.979 -0.1718  0.2689 -0.5261
   20MOL   C59917737   8.162   6.082   0.998  0.2051  0.4434 -0.2550
   20MOL   C60017738   8.252   6.006   0.917  0.3139  0.2507 -0.0791
   20MOL   C60117739   8.205   5.920   0.818  0.1534  0.9811 -0.0841
   20MOL   O60217740   8.213   6.160   1.103 -0.1847 -0.8858  0.0982
   20MOL   C60317741   8.149   6.150   1.225  0.2079  0.4088  0.0477
   20MOL   C60417742   8.102   6.029   1.276  0.3609  0.2707  0.9235
   20MOL   C60517743   8.020   6.019   1.389  0.2837  0.1449 -0.0886
   20MOL   C60617744   8.003   6.131   1.471 -0.0052  0.5557  0.5630
   20MOL   C60717745   8.066   6.251   1.434  1.0513 -0.0495  0.0690
   20MOL   C60817746   8.139   6.258   1.313  0.6614  0.8068  0.0931
   20MOL   C60917747   7.897   6.131   1.575  0.7862 -0.0566  0.7990
   20MOL   C61017748   7.877   6.022   1.657 -0.5863 -0.6987 -0.0143
   20MOL   C61117749   7.772   6.005   1.745 -0.0920 -0.1891  0.6730
   20MOL   C61217750   7.674   6.110   1.747  0.5319  0.5172 -0.3392
   20MOL   C61317751   7.690   6.229   1.671 -0.1991  0.3884  0.3203
   20MOL   C61417752   7.801   6.240   1.582  0.4716 -0.0220 -0.2434
   20MOL   O61517753   7.564   6.105   1.830  0.2251  0.0231 -0.1498
   20MOL   H61617754   7.800   5.346   0.671 -0.4189  1.8046 -0.8230
   20MOL   H61717755   7.865   5.569   0.577 -1.1940  2.8833  0.5679
   20MOL   H61817756   8.023   5.694   0.953 -1.3529  0.3640  0.5109
   20MOL   H61917757   7.994   5.477   1.045  2.4860  0.5322 -0.7673
   20MOL   H62017758   7.870   5.992   0.841 -0.8417  3.0842  2.2873
   20MOL   H62117759   7.959   6.142   1.036  1.1323 -0.2999  1.6129
   20MOL   H62217760   8.357   6.009   0.939  0.6778 -0.9201 -1.5653
   20MOL   H62317761   8.262   5.846   0.764 -0.4078  0.2325  0.3327
   20MOL   H62417762   8.124   5.938   1.222  0.7033  2.1678 -2.2870
   20MOL   H62517763   7.958   5.936   1.417 -0.8737  0.2177 -2.3223
   20MOL   H62617764   8.060   6.345   1.487  0.5831 -0.3607  0.5760
   20MOL   H62717765   8.183   6.351   1.281  1.6786 -0.1753 -1.4082
   20MOL   H62817766   7.948   5.942   1.643  3.2783  3.0225 -3.4123
   20MOL   H62917767   7.768   5.919   1.809  0.5112  0.3460  1.4320
   20MOL   H63017768   7.628   6.317   1.671  3.2611  2.9545 -0.0344
   20MOL   H63117769   7.802   6.321   1.510  1.0923  0.7690  0.6260
   20MOL   C63217770   7.449   6.053   1.778  0.4509 -0.0984 -0.2348
   20MOL   C63317771   7.447   5.915   1.759 -0.1817 -0.4287 -0.0061
   20MOL   C63417772   7.334   5.855   1.706 -0.0149 -0.3179 -0.2000
   20MOL   C63517773   7.231   5.938   1.653 -0.1387 -0.4909  0.4358
   20MOL   C63617774   7.229   6.079   1.675  0.1263 -0.4193 -0.1617
   20MOL   C63717775   7.343   6.135   1.733 -0.4584 -0.0632  0.3761
   20MOL   S63817776   7.100   5.865   1.547  0.1452  0.3070 -0.2374
   20MOL   O63917777   7.148   5.732   1.504 -0.6656  0.4867  0.5486
   20MOL   O64017778   7.056   5.969   1.453 -0.3513  0.3385 -0.4859
   20MOL   C64117779   6.973   5.836   1.666  0.3654  0.1616  0.3489
   20MOL   C64217780   6.885   5.729   1.652 -0.1108 -0.1195 -0.5916
   20MOL   C64317781   6.774   5.710   1.739 -0.4023 -0.8333  0.1807
   20MOL   C64417782   6.758   5.790   1.855 -0.8181 -0.5787 -0.1196
   20MOL   C64517783   6.833   5.907   1.866  0.0817 -0.6989  0.3861
   20MOL   C64617784   6.939   5.925   1.772 -0.8204  0.6648 -0.0503
   20MOL   O64717785   6.679   5.738   1.949 -0.6235 -0.6266  0.1697
   20MOL   C64817786   6.589   5.820   2.002  0.3752  0.4290  0.1279
   20MOL   C64917787   6.612   5.881   2.126  0.2274  0.4077  0.2330
   20MOL   C65017788   6.510   5.961   2.184 -0.2567  0.3892  0.5104
   20MOL   C65117789   6.387   5.987   2.120  0.2015  0.0110 -0.0883
   20MOL   C65217790   6.367   5.926   1.995 -0.0792  0.2638 -0.2328
   20MOL   C65317791   6.466   5.847   1.935  0.0753 -0.5310  0.3025
   20MOL   C65417792   6.277   6.069   2.183 -0.5994 -0.6256  0.1049
   20MOL   C65517793   6.170   6.128   2.099 -0.4473  0.6548 -0.0926
   20MOL   C65617794   6.065   6.190   2.168  0.6052  0.1252  0.0117
   20MOL   C65717795   6.062   6.216   2.306  0.0089 -0.6069 -0.0157
   20MOL   C65817796   6.164   6.163   2.385  0.2122 -0.5481 -0.4998
   20MOL   C65917797   6.274   6.098   2.324 -0.3199 -0.0815  0.3581
   20MOL   O66017798   5.963   6.296   2.364  0.4309 -0.1572 -0.5666
   20MOL   H66117799   7.533   5.862   1.797  0.1441 -0.4655 -0.7756
   20MOL   H66217800   7.323   5.751   1.681  0.0091 -0.8330  1.8386
   20MOL   H66317801   7.152   6.141   1.633  0.3677  0.2380  0.3625
   20MOL   H66417802   7.352   6.243   1.735  2.2593 -0.2420 -0.0640
   20MOL   H66517803   6.904   5.657   1.574  3.1248  0.6100 -0.5669
   20MOL   H66617804   6.719   5.617   1.734  0.0868 -1.1340  0.4006
   20MOL   H66717805   6.827   5.976   1.949 -1.8166  1.7172 -1.6749
   20MOL   H66817806   7.002   6.012   1.775  0.4141 -0.1244 -1.6898
   20MOL   H66917807   6.706   5.866   2.176  1.2384  2.6927 -0.9364
   20MOL   H67017808   6.532   5.997   2.284  0.6151  0.5741  0.2564
   20MOL   H67117809   6.276   5.932   1.937  1.7616 -2.0318 -3.5907
   20MOL   H67217810   6.441   5.806   1.837  1.0261  0.9351 -0.5623
   20MOL   H67317811   6.169   6.116   1.991 -1.4167 -0.9240  0.0695
   20MOL   H67417812   5.988   6.238   2.108 -1.8308  1.6374  4.0979
   20MOL   H67517813   6.171   6.182   2.491 -3.1082  3.1410 -0.8186
   20MOL   H67617814   6.349   6.064   2.394 -0.2216 -0.7873 -0.0884
   20MOL   C67717815   5.994   6.429   2.386  0.2909 -0.2174 -0.0251
   20MOL   C67817816   6.038   6.475   2.516 -0.2541  0.1422 -0.5728
   20MOL   C67917817   6.069   6.613   2.534 -0.7989  0.7803  0.2702
   20MOL   C68017818   6.063   6.700   2.427 -0.8853 -0.1652  0.0141
   20MOL   C68117819   6.047   6.651   2.295  0.5854  0.3237  0.0165
   20MOL   C68217820   5.998   6.522   2.280  0.1179  0.1869  0.4684
   20MOL   S68317821   6.123   6.865   2.450 -0.3838 -0.4756  0.2354
   20MOL   O68417822   6.053   6.933   2.555 -0.2602  0.2953  0.0084
   20MOL   O68517823   6.123   6.923   2.315  0.0419  0.0536 -0.4827
   20MOL   C68617824   6.296   6.858   2.500 -0.3530 -0.6395  0.2313
   20MOL   C68717825   6.368   6.732   2.482 -0.2973 -0.5347 -0.1806
   20MOL   C68817826   6.502   6.721   2.516  0.1386  0.5796  0.1258
   20MOL   C68917827   6.568   6.839   2.558 -0.1282 -0.0545  0.3534
   20MOL   C69017828   6.499   6.961   2.568  0.0159 -0.3996 -0.3931
   20MOL   C69117829   6.362   6.970   2.542 -0.1034  0.9347 -0.3756
   20MOL   O69217830   6.699   6.816   2.588  0.7383 -0.0485 -0.3929
   20MOL   C69317831   6.786   6.903   2.545 -0.1586  0.4034 -0.2376
   20MOL   C69417832   6.823   6.898   2.413  0.5612 -0.5364  0.0716
   20MOL   C69517833   6.921   6.991   2.366 -0.6599 -0.2430 -0.2604
   20MOL   C69617834   6.986   7.087   2.447  0.0588  0.8102 -0.7146
   20MOL   C69717835   6.931   7.103   2.577 -0.8404  0.5080 -0.5051
   20MOL   C69817836   6.830   7.013   2.624 -0.1224  0.3929  0.0941
   20MOL   C69917837   7.083   7.183   2.401 -0.4150 -0.4459 -0.4670
   20MOL   C70017838   7.216   7.141   2.371 -0.4679 -0.1213 -0.6613
   20MOL   C70117839   7.315   7.230   2.336  0.1006  0.7312 -0.5088
   20MOL   C70217840   7.284   7.368   2.325  0.1471  0.6017 -0.1189
   20MOL   C70317841   7.154   7.409   2.337 -0.1513  0.3660 -0.3901
   20MOL   C70417842   7.054   7.319   2.370  0.3491 -0.2858 -0.1305
   20MOL   O70517843   7.385   7.451   2.292  0.3441 -0.0618 -0.4370
   20MOL   H70617844   6.048   6.404   2.596  0.1530 -1.0683 -1.6815
   20MOL   H70717845   6.079   6.652   2.634 -2.2722  1.0719  0.3133
   20MOL   H70817846   6.053   6.713   2.206  0.6398  1.5713  0.8745
   20MOL   H70917847   5.993   6.481   2.180 -2.8791 -0.3125  0.7691
   20MOL   H71017848   6.313   6.646   2.448  0.5359 -0.4079 -1.9052
   20MOL   H71117849   6.565   6.634   2.511 -0.3861  0.1254  1.3144
   20MOL   H71217850   6.554   7.037   2.620  0.2516 -0.9529  0.1763
   20MOL   H71317851   6.306   7.056   2.573  1.2356  1.4574  0.6429
   20MOL   H71417852   6.777   6.828   2.344  0.9009 -1.6963  1.0002
   20MOL   H71517853   6.956   6.981   2.265 -1.4976  0.2787 -0.6056
   20MOL   H71617854   6.961   7.186   2.640 -0.1419 -1.1337  1.3671
   20MOL   H71717855   6.777   7.033   2.716  0.7393 -1.5721  1.0437
   20MOL   H71817856   7.240   7.037   2.385 -0.4797  0.1191  1.2817
   20MOL   H71917857   7.414   7.187   2.321 -1.2775 -2.9812  0.4072
   20MOL   H72017858   7.131   7.514   2.323 -2.3949  0.0602  0.8341
   20MOL   H72117859   6.952   7.349   2.387 -0.0110 -1.1715 -0.6665
   20MOL   C72217860   7.453   7.437   2.178 -0.2355  0.3633 -0.0086
   20MOL   C72317861   7.409   7.502   2.058  0.3897 -0.3894 -0.0841
   20MOL   C72417862   7.482   7.493   1.940  0.3464 -0.4431  0.2515
   20MOL   C72517863   7.608   7.425   1.939  1.0927 -0.1709 -0.1264
   20MOL   C72617864   7.656   7.363   2.057  0.2783  0.4200 -0.0965
   20MOL   C72717865   7.576   7.371   2.175  0.7890  0.0236  0.0525
   20MOL   S72817866   7.704   7.412   1.787 -0.2602 -0.4618  0.1468
   20MOL   O72917867   7.839   7.450   1.820 -0.0300 -0.2757 -0.9834
   20MOL   O73017868   7.633   7.492   1.684  0.4614 -0.4084  0.3688
   20MOL   C73117869   7.689   7.237   1.745 -0.5539  0.2226  0.5610
   20MOL   C73217870   7.567   7.170   1.770 -0.4872  0.4637 -0.5448
   20MOL   C73317871   7.561   7.032   1.739  0.5396  0.2467  0.1382
   20MOL   C73417872   7.666   6.968   1.674 -0.2009  0.1453  0.0899
   20MOL   C73517873   7.784   7.037   1.638 -0.0538 -1.0090  0.4584
   20MOL   C73617874   7.801   7.170   1.679 -0.4508  0.7144 -0.2141
   20MOL   O73717875   7.653   6.843   1.632  0.0330 -0.4930 -0.6279
   20MOL   C73817876   7.623   6.746   1.725  0.0157  0.3237 -0.6146
   20MOL   C73917877   7.542   6.637   1.682 -0.2020  0.1324  0.3271
   20MOL   C74017878   7.517   6.524   1.770 -0.6693  0.5502  0.1855
   20MOL   C74117879   7.575   6.531   1.901 -0.9810 -0.0147 -0.9443
   20MOL   C74217880   7.650   6.644   1.940 -0.2364 -0.0041 -0.0144
   20MOL   C74317881   7.670   6.751   1.852  0.4497 -0.2653 -0.0121
   20MOL   C74417882   7.558   6.422   1.996 -0.1671  0.1062  0.1700
   20MOL   C74517883   7.437   6.347   1.998 -0.0681 -0.3536 -0.5506
   20MOL   C74617884   7.420   6.243   2.094 -0.3765 -0.2289  0.3545
   20MOL   C74717885   7.524   6.208   2.180 -0.3583 -0.1136 -0.0381
   20MOL   C74817886   7.647   6.276   2.175 -0.2130  0.4527 -0.2439
   20MOL   C74917887   7.663   6.376   2.080 -0.3014 -0.7953 -0.4857
   20MOL   O75017888   7.500   6.108   2.268 -0.0766 -0.0936 -0.1319
   20MOL   H75117889   7.318   7.559   2.057  0.5111 -0.1926  0.1174
   20MOL   H75217890   7.458   7.538   1.844  0.8743  0.0433  0.3414
   20MOL   H75317891   7.756   7.322   2.053  0.7815  1.7132 -0.8441
   20MOL   H75417892   7.607   7.323   2.266 -2.3372  0.9124  1.6482
   20MOL   H75517893   7.480   7.212   1.818  1.1977  2.3376  0.9150
   20MOL   H75617894   7.473   6.972   1.756  0.7781  0.3982  1.9542
   20MOL   H75717895   7.862   6.989   1.581 -0.2725 -0.8570  0.0242
   20MOL   H75817896   7.898   7.210   1.653 -0.9821  0.8588 -2.0026
   20MOL   H75917897   7.510   6.634   1.579  0.6577  1.1830  0.0138
   20MOL   H76017898   7.462   6.437   1.737 -1.9773  0.9694  1.1702
   20MOL   H76117899   7.687   6.649   2.042 -1.4576 -0.0083  0.4400
   20MOL   H76217900   7.724   6.836   1.891 -0.3968 -1.4224  3.9732
   20MOL   H76317901   7.354   6.383   1.939 -0.5520  0.6882  0.7501
   20MOL   H76417902   7.327   6.190   2.103  0.1762 -1.0352  1.5360
   20MOL   H76517903   7.736   6.257   2.232  0.7524  0.5754 -1.6721
   20MOL   H76617904   7.761   6.420   2.078 -0.6075 -0.1358 -1.5953
   20MOL   C76717905   7.603   6.030   2.302 -0.1754 -0.1362 -0.4380
   20MOL   C76817906   7.646   5.934   2.210 -1.2656  0.1249 -0.8416
   20MOL   C76917907   7.754   5.849   2.243 -0.3799 -0.0823  0.2464
   20MOL   C77017908   7.825   5.869   2.363 -0.2265  0.8017 -0.0683
   20MOL   C77117909   7.788   5.977   2.447  0.2393  0.4434  0.5739
   20MOL   C77217910   7.673   6.051   2.423  0.4059  0.5582  0.4992
   20MOL   S77317911   7.980   5.780   2.379 -0.8544 -0.2195  0.3937
   20MOL   O77417912   8.079   5.878   2.424 -0.5749  0.6480 -0.5368
   20MOL   O77517913   8.004   5.704   2.257 -0.1963  0.1019 -0.8500
   20MOL   C77617914   7.953   5.661   2.510  0.0007  0.5137 -1.2500
   20MOL   C77717915   7.949   5.521   2.483 -0.6819 -0.2176 -0.4527
   20MOL   C77817916   7.916   5.435   2.590  0.0995  0.5728  0.4702
   20MOL   C77917917   7.907   5.480   2.725  0.8024 -0.0374  1.3972
   20MOL   C78017918   7.938   5.617   2.755  0.3851 -0.8450  0.0796
   20MOL   C78117919   7.959   5.707   2.645  0.2541 -0.3788 -0.1151
   20MOL   O78217920   7.857   5.395   2.825 -0.4555  0.1781 -0.6695
   20MOL   C78317921   7.751   5.445   2.900 -0.5574 -0.6104 -0.5114
   20MOL   C78417922   7.754   5.445   3.043  0.3170 -0.8996  0.3117
   20MOL   C78517923   7.648   5.503   3.116 -0.4213 -0.6940 -0.2949
   20MOL   C78617924   7.554   5.589   3.059 -0.1905  0.4761  0.3570
   20MOL   C78717925   7.560   5.593   2.916  0.6339  0.3936 -0.3703
   20MOL   C78817926   7.646   5.516   2.835 -0.0941 -0.3877  0.2071
   20MOL   C78917927   7.448   5.657   3.138 -0.1746 -0.2867  0.1031
   20MOL   C79017928   7.397   5.782   3.084 -0.0130 -0.6991  0.2224
   20MOL   C79117929   7.302   5.851   3.159  0.1942 -0.5576 -0.5363
   20MOL   C79217930   7.248   5.805   3.282 -0.1918  0.3224  0.3313
   20MOL   C79317931   7.296   5.677   3.320  0.2065  0.6497 -0.5137
   20MOL   C79417932   7.388   5.601   3.254 -0.0864  0.6536 -0.3692
   20MOL   O79517933   7.157   5.868   3.365  0.2091  0.9912  0.0173
   20MOL   H79617934   7.597   5.919   2.115  1.6418 -0.2910 -2.3278
   20MOL   H79717935   7.787   5.769   2.178 -1.7311  0.3074 -0.9521
   20MOL   H79817936   7.848   6.001   2.534  0.4106  1.7011  0.1062
   20MOL   H79917937   7.645   6.123   2.498  1.2846  1.0573  0.3570
   20MOL   H80017938   7.944   5.479   2.384 -2.3903 -0.2924 -0.3548
   20MOL   H80117939   7.881   5.339   2.555 -1.1424  0.9251  0.7174
   20MOL   H80217940   7.945   5.654   2.857  1.2349 -1.2137  0.1602
   20MOL   H80317941   7.980   5.812   2.658  0.8236 -0.6073  0.8841
   20MOL   H80417942   7.826   5.379   3.090  1.0746  0.7994  1.5813
   20MOL   H80517943   7.651   5.499   3.224  1.6897  1.4166 -0.2140
   20MOL   H80617944   7.486   5.659   2.872 -0.9607 -0.0953  1.5126
   20MOL   H80717945   7.641   5.536   2.729  1.4153 -0.4371  0.1187
   20MOL   H80817946   7.446   5.825   2.999  2.5620 -0.9176  1.5496
   20MOL   H80917947   7.266   5.941   3.113 -1.4992 -0.9855 -0.0839
   20MOL   H81017948   7.263   5.641   3.417 -3.0697 -0.8254 -2.0989
   20MOL   H81117949   7.423   5.506   3.291  0.0138  0.8985  0.1675
   20MOL   C81217950   7.080   5.972   3.313  0.2824 -0.1500  0.0779
   20MOL   C81317951   7.007   5.970   3.191  0.0820 -0.3317 -0.3719
   20MOL   C81417952   6.941   6.083   3.134 -0.4073  0.3958  0.1738
   20MOL   C81517953   6.934   6.200   3.218 -0.4166  0.5057  0.3690
   20MOL   C81617954   6.995   6.197   3.343  0.4333 -0.3559  0.2408
   20MOL   C81717955   7.064   6.086   3.395  0.2916 -0.2440  0.4267
   20MOL   S81817956   6.837   6.346   3.166  0.0982 -0.4219 -0.5712
   20MOL   O81917957   6.856   6.446   3.274 -0.1620 -0.4089  0.2772
   20MOL   O82017958   6.704   6.307   3.121 -0.0001  0.0514 -0.1526
   20MOL   C82117959   6.924   6.412   3.025  0.5811  0.6842  0.8629
   20MOL   C82217960   7.013   6.335   2.948  0.0378 -0.5461 -0.4046
   20MOL   C82317961   7.080   6.403   2.839 -0.0701  0.2385 -0.2721
   20MOL   C82417962   7.065   6.542   2.817  0.0836  1.2299 -1.1860
   20MOL   C82517963   6.965   6.610   2.891 -0.9446 -0.8586  0.2197
   20MOL   C82617964   6.903   6.550   3.001  0.5689  0.5217  0.0550
   20MOL   O82717965   7.142   6.594   2.715 -0.3181 -0.1424  0.0262
   20MOL   C82817966   7.198   6.719   2.731  0.5067 -0.3442 -0.2682
   20MOL   C82917967   7.120   6.833   2.733  0.4313 -1.0330 -0.1903
   20MOL   C83017968   7.179   6.952   2.768  0.2625  0.5733  0.6844
   20MOL   C83117969   7.313   6.964   2.808  0.6933 -0.2170 -0.2016
   20MOL   C83217970   7.388   6.844   2.817 -0.1911 -0.3809  0.6340
   20MOL   C83317971   7.334   6.725   2.763  0.5370  0.0709  0.6326
   20MOL   C83417972   7.380   7.092   2.840 -1.0050  0.5035 -0.0782
   20MOL   C83517973   7.398   7.117   2.975  0.6899 -0.1681 -0.7538
   20MOL   C83617974   7.444   7.240   3.020  0.3082 -0.5191  0.5245
   20MOL   C83717975   7.480   7.336   2.928 -1.0343 -0.5197  0.5313
   20MOL   C83817976   7.482   7.307   2.790  0.1793  0.4671 -0.3120
   20MOL   C83917977   7.421   7.188   2.745  0.1339 -0.1446 -0.3391
   20MOL   O84017978   7.524   7.460   2.968  0.0310 -0.0018  0.5521
   20MOL   H84117979   7.006   5.885   3.124 -1.3927  0.2532 -1.1115
   20MOL   H84217980   6.897   6.062   3.037 -0.4581 -0.6324  0.4188
   20MOL   H84317981   6.972   6.276   3.412  1.5025  0.9439 -0.8739
   20MOL   H84417982   7.107   6.080   3.494  1.7238 -1.8753 -0.2741
   20MOL   H84517983   7.036   6.230   2.955 -2.1411 -1.1255 -1.4990
   20MOL   H84617984   7.150   6.347   2.778 -0.6601  2.6056 -3.2647
   20MOL   H84717985   6.938   6.713   2.871 -0.2890 -0.7421 -0.0680
   20MOL   H84817986   6.829   6.596   3.065 -0.9071 -1.3321 -0.2770
   20MOL   H84917987   7.019   6.823   2.696  0.2539  0.2820 -0.0738
   20MOL   H85017988   7.122   7.044   2.764  0.0612  0.4178 -0.0085
   20MOL   H85117989   7.492   6.848   2.844 -0.4261 -0.3955  1.5588
   20MOL   H85217990   7.387   6.631   2.767  0.8648  0.2109 -0.4184
   20MOL   H85317991   7.367   7.046   3.050  0.7525 -2.0952 -2.5267
   20MOL   H85417992   7.441   7.264   3.126  1.5929 -0.2474  0.5089
   20MOL   H85517993   7.525   7.376   2.719 -3.0651  1.6190 -1.2127
   20MOL   H85617994   7.431   7.174   2.638 -0.6656  1.2620 -0.5990
   20MOL   C85717995   7.617   7.469   3.072 -0.3572 -0.1540  0.8079
   20MOL   C85817996   7.591   7.564   3.169 -0.2804 -0.4750 -0.3741
   20MOL   C85917997   7.687   7.588   3.274  0.4743  0.1689 -0.0138
   20MOL   C86017998   7.793   7.500   3.290  0.1185 -0.2544 -0.3830
   20MOL   C86117999   7.818   7.394   3.201  0.3752  0.2422  0.5481
   20MOL   C86218000   7.729   7.383   3.085  0.6154  0.4484 -0.3313
   20MOL   S86318001   7.908   7.517   3.436  0.1141 -0.4816  0.3340
   20MOL   O86418002   8.032   7.575   3.381  0.2533  0.2290 -0.2548
   20MOL   O86518003   7.908   7.383   3.492 -0.0034  0.0625 -0.4190
   20MOL   C86618004   7.842   7.633   3.562 -0.4324  0.3674 -0.0979
   20MOL   C86718005   7.932   7.721   3.623  0.4360 -0.2456 -0.0184
   20MOL   C86818006   7.871   7.805   3.726  0.9456  0.2888  0.1026
   20MOL   C86918007   7.726   7.813   3.743  0.2461 -0.1704 -0.4466
   20MOL   C87018008   7.647   7.719   3.679  0.4556 -0.1232  0.6635
   20MOL   C87118009   7.705   7.629   3.593  0.0425  0.2431 -0.7300
   20MOL   O87218010   7.667   7.903   3.832 -0.1426  0.1923  0.1512
   20MOL   C87318011   7.722   7.943   3.955  0.1812 -0.1072  0.1058
   20MOL   C87418012   7.674   8.063   4.010  0.7615  0.1949  0.7321
   20MOL   C87518013   7.722   8.100   4.136  0.0198  0.5661 -0.0431
   20MOL   C87618014   7.810   8.022   4.209  0.1637  0.1213  0.4705
   20MOL   C87718015   7.848   7.897   4.156  0.3244  0.5090  0.4568
   20MOL   C87818016   7.801   7.855   4.034  0.4246 -1.4276  0.3285
   20MOL   C87918017   7.859   8.058   4.343  0.5139  0.2096 -0.3635
   20MOL   C88018018   7.997   8.092   4.348  0.3630  0.0275 -0.5406
   20MOL   C88118019   8.047   8.150   4.465 -0.3873  0.3744  0.0758
   20MOL   C88218020   7.965   8.168   4.573 -0.9764  0.3151 -0.0764
   20MOL   C88318021   7.830   8.134   4.569  0.1981  0.4913  0.2888
   20MOL   C88418022   7.776   8.077   4.448 -0.3847 -0.3842 -0.3189
   20MOL   O88518023   8.024   8.210   4.691 -0.8571 -0.2651 -0.6218
   20MOL   H88618024   7.497   7.617   3.157 -0.3591  0.0999  2.5741
   20MOL   H88718025   7.666   7.665   3.346 -0.1463  1.9275 -2.0364
   20MOL   H88818026   7.909   7.338   3.218 -0.2131 -0.6577  0.7209
   20MOL   H88918027   7.757   7.310   3.010 -0.4922 -0.0384 -0.2672
   20MOL   H89018028   8.036   7.730   3.598 -0.0689 -0.5285 -2.2448
   20MOL   H89118029   7.933   7.879   3.774  0.0069  1.3523 -0.2823
   20MOL   H89218030   7.540   7.719   3.694  0.7021 -0.3811  2.5202
   20MOL   H89318031   7.654   7.551   3.539  1.0518  1.1907 -3.1579
   20MOL   H89418032   7.595   8.120   3.965 -1.3140 -1.9303  1.6040
   20MOL   H89518033   7.681   8.191   4.177 -0.3389  0.9600 -1.2647
   20MOL   H89618034   7.916   7.834   4.211  2.1238  0.5623 -1.6471
   20MOL   H89718035   7.818   7.757   3.991 -0.1139 -2.4100  2.3031
   20MOL   H89818036   8.063   8.066   4.267  2.1058  0.2850  0.7560
   20MOL   H89918037   8.147   8.188   4.473 -0.2409 -0.0769  0.4379
   20MOL   H90018038   7.764   8.139   4.654  0.5958  1.6689  0.5399
   20MOL   H90118039   7.675   8.047   4.424 -0.4128  0.6897 -1.5859
   20MOL   H90218040   7.978   8.195   4.772 -0.2020  0.1334 -0.1763
   21MOL     C118041   7.906   6.400   6.748 -0.0680 -0.1689  0.0310
   21MOL     C218042   8.011   6.319   6.791 -0.0449 -0.0221 -0.2856
   21MOL     C318043   8.095   6.263   6.691  0.0745  0.5935 -0.7792
   21MOL     C418044   8.066   6.286   6.555  0.0117  1.1401 -0.0683
   21MOL     C518045   7.956   6.362   6.516  0.0552  0.5550 -0.1366
   21MOL     C618046   7.878   6.428   6.609  0.5927 -0.2534 -0.8781
   21MOL     S718047   8.167   6.215   6.429  0.1481  0.0482 -0.0377
   21MOL     O818048   8.275   6.144   6.500  0.5320  0.4610  0.2051
   21MOL     O918049   8.199   6.318   6.333 -0.2444 -0.1396 -0.0524
   21MOL    C1018050   8.054   6.102   6.356 -0.1486  0.0883  0.1021
   21MOL    C1118051   8.028   6.125   6.221 -0.4141  0.1741  0.5512
   21MOL    C1218052   7.937   6.045   6.149 -0.0843  0.4008 -0.5583
   21MOL    C1318053   7.873   5.939   6.222  0.0252  0.7450  0.0473
   21MOL    C1418054   7.907   5.914   6.361  0.7233  0.2736  1.1109
   21MOL    C1518055   7.990   6.000   6.429 -0.4039  0.1391  0.0105
   21MOL    O1618056   7.788   5.849   6.157 -0.4137 -0.6345  0.3883
   21MOL    C1718057   7.738   5.881   6.031  0.3923  1.2755 -0.2570
   21MOL    C1818058   7.802   5.826   5.924 -0.2366  0.7797 -0.6220
   21MOL    C1918059   7.773   5.870   5.795  0.0579 -0.2345 -0.3767
   21MOL    C2018060   7.674   5.973   5.772  0.4564 -0.3544  0.6708
   21MOL    C2118061   7.607   6.017   5.885 -0.4080 -0.1935 -0.0447
   21MOL    C2218062   7.635   5.970   6.017  0.2812 -0.0248  0.2817
   21MOL    C2318063   7.652   6.034   5.635  0.6378 -0.1009  0.0928
   21MOL    C2418064   7.595   6.162   5.619 -0.2905 -0.1769  0.3511
   21MOL    C2518065   7.572   6.216   5.485  0.5320  0.6206  0.1475
   21MOL    C2618066   7.612   6.149   5.373  0.2648 -0.6387  0.1630
   21MOL    C2718067   7.674   6.020   5.387  0.3943 -0.4657  0.1897
   21MOL    C2818068   7.698   5.970   5.515 -0.2773 -0.1238  0.7569
   21MOL    O2918069   7.591   6.202   5.252 -0.3330 -0.1863 -0.5454
   21MOL    H3018070   8.028   6.300   6.896 -0.4265  0.0462 -0.2099
   21MOL    H3118071   8.188   6.213   6.714 -0.4976 -0.3834 -0.5969
   21MOL    H3218072   7.946   6.386   6.411  0.9138  1.3787 -0.0379
   21MOL    H3318073   7.804   6.502   6.583  0.2084 -0.2658  0.1607
   21MOL    H3418074   8.073   6.201   6.159 -0.2472  0.7702  1.4093
   21MOL    H3518075   7.911   6.074   6.049  1.0601  0.0970 -0.9582
   21MOL    H3618076   7.875   5.824   6.412  2.6071 -2.1156 -1.7249
   21MOL    H3718077   8.024   5.986   6.530 -1.2458  0.2059  0.3126
   21MOL    H3818078   7.882   5.758   5.949 -1.1322  0.0909  0.4220
   21MOL    H3918079   7.833   5.837   5.711 -1.7547  2.4797 -2.8176
   21MOL    H4018080   7.536   6.099   5.878  1.5720  1.5749 -0.0154
   21MOL    H4118081   7.589   6.021   6.101 -0.0843  0.8355 -0.4252
   21MOL    H4218082   7.556   6.222   5.700  0.7159 -0.1752  0.8415
   21MOL    H4318083   7.519   6.311   5.478  0.8016  0.7127 -0.6286
   21MOL    H4418084   7.705   5.966   5.299  1.2056  1.2989 -0.6235
   21MOL    H4518085   7.759   5.882   5.525  1.8237  1.3697  1.3514
   21MOL    H4618086   7.861   6.446   6.835  2.4780  0.9165  0.8100
   21MOL    C4718087   7.708   6.256   5.200  0.5951 -0.2503 -0.5079
   21MOL    C4818088   7.763   6.377   5.250  0.3229  0.0579 -0.5402
   21MOL    C4918089   7.873   6.444   5.200  0.1373 -0.3958  0.2209
   21MOL    C5018090   7.945   6.391   5.089 -0.3590 -0.3138  0.4109
   21MOL    C5118091   7.907   6.259   5.044 -0.7098  0.2807 -0.0446
   21MOL    C5218092   7.786   6.203   5.096 -0.5067  0.2447 -0.1941
   21MOL    S5318093   8.088   6.490   5.025 -0.7911 -0.3133  0.0967
   21MOL    O5418094   8.138   6.576   5.139  0.8364  0.4989 -0.1394
   21MOL    O5518095   8.050   6.560   4.899 -0.2225  1.0681  0.2830
   21MOL    C5618096   8.218   6.358   4.991  0.3427  0.5532 -0.2247
   21MOL    C5718097   8.315   6.384   4.887 -0.2502  0.8020  0.4944
   21MOL    C5818098   0.047   6.285   4.859  0.0786  0.3967  0.2615
   21MOL    C5918099   0.044   6.157   4.922  0.1067 -0.0179  0.5832
   21MOL    C6018100   8.306   6.131   5.014  0.0683 -0.8158 -0.5034
   21MOL    C6118101   8.211   6.227   5.049 -0.4218 -0.0933  0.0394
   21MOL    O6218102   0.136   6.055   4.896  0.2538 -0.3729  0.1726
   21MOL    C6318103   0.104   5.940   4.821  0.2534  0.0122  0.5889
   21MOL    C6418104   0.201   5.838   4.810  0.6123  0.2973 -0.9577
   21MOL    C6518105   0.185   5.739   4.711  0.3115 -0.4564  0.5038
   21MOL    C6618106   0.075   5.726   4.625  0.2359  0.0705  0.7944
   21MOL    C6718107   8.345   5.823   4.650  0.1631  0.6373 -0.0179
   21MOL    C6818108   8.362   5.928   4.738 -0.1663  0.3340  0.2350
   21MOL    C6918109   0.052   5.622   4.519  0.3225 -0.2944  0.2318
   21MOL    C7018110   0.078   5.489   4.550 -0.1909 -1.0272  0.5035
   21MOL    C7118111   0.045   5.390   4.451 -0.8531  0.1444  0.4433
   21MOL    C7218112   8.345   5.424   4.329  0.0132 -0.4350 -0.2693
   21MOL    C7318113   8.315   5.557   4.304  0.4953 -0.3548 -0.0907
   21MOL    C7418114   8.352   5.656   4.398 -0.1348  0.2767  0.3750
   21MOL    O7518115   8.310   5.326   4.237 -0.3490  0.2319  0.3480
   21MOL    H7618116   7.718   6.422   5.337  1.1709  0.3194 -0.2230
   21MOL    H7718117   7.905   6.538   5.243 -3.1528  0.2803  1.3651
   21MOL    H7818118   7.963   6.211   4.965 -0.6841 -1.0672  0.7871
   21MOL    H7918119   7.742   6.116   5.048 -1.5453  1.0148 -0.6593
   21MOL    H8018120   8.317   6.471   4.822 -1.1797 -0.4421 -1.2467
   21MOL    H8118121   0.126   6.293   4.787 -0.4798 -2.2737 -0.6980
   21MOL    H8218122   8.296   6.034   5.061 -0.7348 -0.2013  0.6270
   21MOL    H8318123   8.139   6.193   5.121  0.1082 -0.3444  0.4491
   21MOL    H8418124   0.293   5.843   4.866 -0.0967 -1.2792  0.3818
   21MOL    H8518125   0.271   5.676   4.697  0.0101 -0.2644 -2.8575
   21MOL    H8618126   8.250   5.824   4.599  1.0017  0.4486 -1.6431
   21MOL    H8718127   8.297   6.015   4.732  0.0422  0.5120  0.5318
   21MOL    H8818128   0.126   5.460   4.642 -0.9249 -2.7162  0.3785
   21MOL    H8918129   0.058   5.283   4.461  0.9256  0.3848  0.8340
   21MOL    H9018130   8.253   5.590   4.223  1.3475 -1.3711 -1.1688
   21MOL    H9118131   8.330   5.757   4.369  1.0905  0.9975  1.9638
   21MOL    C9218132   8.179   5.316   4.203  0.0832 -0.2734 -0.1652
   21MOL    C9318133   8.071   5.271   4.285 -0.2506  0.2375 -0.2230
   21MOL    C9418134   7.935   5.264   4.244 -0.5088 -0.2503  0.0624
   21MOL    C9518135   7.904   5.312   4.119  0.5522 -0.2828 -0.0894
   21MOL    C9618136   8.002   5.362   4.035 -0.7164 -0.4833 -0.5181
   21MOL    C9718137   8.139   5.359   4.075  0.6125 -0.0132  0.4953
   21MOL    S9818138   7.738   5.310   4.051 -0.3244 -0.1805 -0.2006
   21MOL    O9918139   7.669   5.182   4.091 -0.1296 -0.3161  0.1611
   21MOL   O10018140   7.743   5.338   3.910 -0.2458  0.4059 -0.0039
   21MOL   C10118141   7.653   5.445   4.122  0.8172 -0.2784 -0.1965
   21MOL   C10218142   7.708   5.528   4.222  0.0979  0.4099 -0.4385
   21MOL   C10318143   7.635   5.636   4.273 -0.4990 -1.0823  0.0145
   21MOL   C10418144   7.506   5.665   4.226  0.6218 -0.7086  0.5252
   21MOL   C10518145   7.460   5.593   4.111 -0.3023  0.0998  0.4822
   21MOL   C10618146   7.539   5.489   4.058 -0.5780  0.4509 -0.0181
   21MOL   O10718147   7.434   5.775   4.263  0.3517  0.3945 -0.4017
   21MOL   C10818148   7.341   5.762   4.364 -0.0671  0.9150  0.6738
   21MOL   C10918149   7.211   5.717   4.327 -0.5786  0.1127  0.1006
   21MOL   C11018150   7.118   5.678   4.429 -0.2878 -0.3165  0.1933
   21MOL   C11118151   7.164   5.677   4.564  0.5652  0.0951 -0.0194
   21MOL   C11218152   7.296   5.729   4.596  0.5594 -0.3427  0.0068
   21MOL   C11318153   7.379   5.763   4.493 -0.7993 -0.4161  0.1633
   21MOL   C11418154   7.082   5.630   4.685 -0.0204  0.2340  0.3076
   21MOL   C11518155   6.941   5.624   4.667 -0.3057  0.4041  0.1863
   21MOL   C11618156   6.853   5.588   4.767  0.0465 -0.4027  0.2352
   21MOL   C11718157   6.900   5.549   4.892  0.3035  0.2508  0.0234
   21MOL   C11818158   7.037   5.553   4.915 -0.3335  0.5257  0.0768
   21MOL   C11918159   7.128   5.588   4.813  0.1741 -0.1474  0.2937
   21MOL   O12018160   6.822   5.493   4.990 -0.0491 -0.1912 -0.3581
   21MOL   H12118161   8.095   5.259   4.389  0.6720 -1.5116 -0.6196
   21MOL   H12218162   7.860   5.242   4.319  0.3651 -2.1661  0.3824
   21MOL   H12318163   7.981   5.404   3.938  1.6662  2.7484  0.2970
   21MOL   H12418164   8.207   5.413   4.011  0.6077 -0.7693 -0.1445
   21MOL   H12518165   7.796   5.505   4.280  0.2611 -2.2888 -1.6837
   21MOL   H12618166   7.681   5.686   4.357  0.0406 -1.7974  0.1520
   21MOL   H12718167   7.368   5.629   4.067  0.1504 -1.1693 -1.5574
   21MOL   H12818168   7.498   5.426   3.980  1.1288  0.3704 -0.8693
   21MOL   H12918169   7.182   5.712   4.223 -1.5797  1.2398  0.3133
   21MOL   H13018170   7.026   5.627   4.404  0.2963 -1.3917  0.2283
   21MOL   H13118171   7.335   5.729   4.697  0.3213  1.2467  0.1239
   21MOL   H13218172   7.478   5.802   4.513 -1.0834  1.6814 -2.1889
   21MOL   H13318173   6.894   5.638   4.570  1.8043  1.6097 -0.7014
   21MOL   H13418174   6.747   5.587   4.747  0.1261  0.2911 -0.2532
   21MOL   H13518175   7.060   5.533   5.019 -0.7170 -0.1411  0.0354
   21MOL   H13618176   7.232   5.582   4.842  0.1551  1.6773  0.8212
   21MOL   C13718177   6.682   5.496   4.983 -0.0776  0.3850 -0.3022
   21MOL   C13818178   6.610   5.616   5.015  0.0558 -0.4741 -0.7974
   21MOL   C13918179   6.468   5.624   5.006 -0.6864  0.6066  0.2859
   21MOL   C14018180   6.402   5.517   4.950  0.0623  0.5562 -0.6126
   21MOL   C14118181   6.467   5.397   4.917  0.4262  0.4314 -0.0752
   21MOL   C14218182   6.608   5.383   4.946  0.8139  0.0168 -0.1950
   21MOL   S14318183   6.225   5.541   4.929 -0.2117 -0.0994  0.0917
   21MOL   O14418184   6.167   5.566   5.060  0.7656 -0.1324  0.4414
   21MOL   O14518185   6.169   5.431   4.852 -0.6702 -0.4000  0.4446
   21MOL   C14618186   6.211   5.681   4.824  0.2213 -0.3052  0.3360
   21MOL   C14718187   6.109   5.780   4.836 -0.2982  0.0334 -0.2240
   21MOL   C14818188   6.093   5.883   4.746 -0.5808 -0.4684  0.0597
   21MOL   C14918189   6.203   5.907   4.659  0.1814 -0.2793 -0.1351
   21MOL   C15018190   6.309   5.818   4.652 -0.1262 -0.5726 -0.4797
   21MOL   C15118191   6.314   5.700   4.729 -0.0577 -0.4854 -0.0340
   21MOL   O15218192   6.208   6.010   4.568 -0.0044  0.3116 -0.4591
   21MOL   C15318193   6.115   6.112   4.563  0.0413  0.8775  0.1507
   21MOL   C15418194   5.989   6.100   4.508 -0.3221  0.2153  0.7331
   21MOL   C15518195   5.896   6.210   4.530 -0.4980  1.0276  0.3806
   21MOL   C15618196   5.937   6.334   4.581 -0.1049 -0.3740  0.4802
   21MOL   C15718197   6.071   6.348   4.610 -0.1933 -1.1845 -0.3067
   21MOL   C15818198   6.161   6.241   4.608 -0.1382  0.3265  0.3518
   21MOL   C15918199   5.835   6.438   4.614 -0.6576 -0.0578  0.0647
   21MOL   C16018200   5.842   6.512   4.736 -0.2972 -0.1799  0.7267
   21MOL   C16118201   5.739   6.594   4.782  0.6110  0.5647  0.3149
   21MOL   C16218202   5.621   6.608   4.704  0.4889  0.4887 -0.2812
   21MOL   C16318203   5.614   6.538   4.578  0.3539  0.3823 -0.8745
   21MOL   C16418204   5.725   6.462   4.530  0.0925 -0.2322  0.4643
   21MOL   O16518205   5.512   6.685   4.745 -0.4226  0.4109 -0.0309
   21MOL   H16618206   6.665   5.696   5.063  1.5668 -1.1491 -1.3632
   21MOL   H16718207   6.409   5.709   5.036 -1.8947 -0.5423  1.2084
   21MOL   H16818208   6.408   5.311   4.891 -0.4016  1.0340 -0.2263
   21MOL   H16918209   6.653   5.285   4.941 -0.6583 -0.6445 -0.6207
   21MOL   H17018210   6.027   5.754   4.901 -0.3886  1.2133  0.1464
   21MOL   H17118211   6.013   5.955   4.745 -0.4842 -0.3575  0.3415
   21MOL   H17218212   6.372   5.831   4.566  0.1571  4.4255  0.3285
   21MOL   H17318213   6.378   5.615   4.711 -0.1463 -0.3777 -0.8464
   21MOL   H17418214   5.967   6.004   4.462 -0.3443  0.5277  0.0766
   21MOL   H17518215   5.791   6.190   4.514 -0.1809 -0.2986 -0.1243
   21MOL   H17618216   6.101   6.448   4.637  1.4478 -2.2897  2.1279
   21MOL   H17718217   6.261   6.261   4.642  0.3481 -1.5255  0.0413
   21MOL   H17818218   5.923   6.486   4.802 -0.3184  0.9986  1.2349
   21MOL   H17918219   5.760   6.633   4.881  1.2129 -0.5867  0.6460
   21MOL   H18018220   5.522   6.555   4.525 -0.0890 -1.8075 -0.8310
   21MOL   H18118221   5.709   6.411   4.436  1.3823  2.3340 -1.2376
   21MOL   C18218222   5.452   6.646   4.859  0.0937  0.2052 -0.0095
   21MOL   C18318223   5.491   6.705   4.976 -0.3608 -0.4352 -0.1939
   21MOL   C18418224   5.452   6.655   5.103  0.2725 -0.0437 -0.0084
   21MOL   C18518225   5.348   6.561   5.106  0.1444  0.0971  0.1723
   21MOL   C18618226   5.286   6.513   4.988  0.0784  0.2112 -0.8137
   21MOL   C18718227   5.350   6.552   4.862 -0.7789  0.0215 -0.4599
   21MOL   S18818228   5.294   6.494   5.269 -0.0846  0.0787  0.2699
   21MOL   O18918229   5.148   6.491   5.274  0.1126  0.2516  0.7094
   21MOL   O19018230   5.374   6.567   5.365 -0.0521  0.3893  0.2900
   21MOL   C19118231   5.362   6.335   5.260 -0.3128  0.1113  0.8966
   21MOL   C19218232   5.277   6.225   5.230  0.1973 -0.3723  0.1289
   21MOL   C19318233   5.330   6.101   5.207 -0.3878  0.3055 -0.5241
   21MOL   C19418234   5.464   6.078   5.232  0.0612 -0.4204 -0.0005
   21MOL   C19518235   5.549   6.181   5.276 -0.3555 -0.1659  0.4082
   21MOL   C19618236   5.497   6.309   5.291 -0.0687  0.6938 -0.2563
   21MOL   O19718237   5.524   5.961   5.186  0.4930 -0.4820 -0.0226
   21MOL   C19818238   5.486   5.845   5.237 -0.2123  0.0311  0.9164
   21MOL   C19918239   5.562   5.789   5.343  0.3227  0.0083  0.0824
   21MOL   C20018240   5.522   5.670   5.406 -0.1725 -0.3536 -0.7651
   21MOL   C20118241   5.408   5.598   5.359 -0.2500 -0.6488 -0.0075
   21MOL   C20218242   5.336   5.648   5.250  0.7773 -0.5771  0.0109
   21MOL   C20318243   5.376   5.769   5.186  0.5440  0.1045  0.2695
   21MOL   C20418244   5.352   5.479   5.435  0.0672  0.1227  0.4558
   21MOL   C20518245   5.282   5.373   5.371  0.1428 -0.1992  0.1722
   21MOL   C20618246   5.210   5.279   5.444 -0.0529  0.3121  0.2791
   21MOL   C20718247   5.242   5.261   5.578 -0.1733 -0.3505 -0.1332
   21MOL   C20818248   5.321   5.356   5.648 -0.0834  0.1302 -0.4087
   21MOL   C20918249   5.361   5.473   5.578 -0.3694  0.0063 -0.3078
   21MOL   O21018250   5.178   5.153   5.634  0.3096 -0.7878 -0.3335
   21MOL   H21118251   5.558   6.790   4.973 -0.0547 -0.6823 -0.4760
   21MOL   H21218252   5.482   6.688   5.201  1.9123  0.0336 -0.5200
   21MOL   H21318253   5.217   6.431   4.992 -1.3085  1.3971 -0.1327
   21MOL   H21418254   5.319   6.515   4.765  0.0903 -0.7077 -0.4581
   21MOL   H21518255   5.171   6.241   5.223  0.2140 -0.5357 -0.4650
   21MOL   H21618256   5.265   6.020   5.178 -0.4639  0.3957 -0.6068
   21MOL   H21718257   5.655   6.166   5.288 -0.6563 -3.3751 -0.4861
   21MOL   H21818258   5.560   6.393   5.315 -0.4285  0.9986 -0.3648
   21MOL   H21918259   5.651   5.836   5.381  1.3820 -1.7027 -0.2452
   21MOL   H22018260   5.580   5.630   5.488 -1.0033 -0.7367 -0.3515
   21MOL   H22118261   5.250   5.593   5.215  0.3428 -1.5634  2.5183
   21MOL   H22218262   5.331   5.808   5.096  0.6289  0.3723  0.3426
   21MOL   H22318263   5.259   5.381   5.266 -1.1656  1.1805  0.5637
   21MOL   H22418264   5.143   5.215   5.388  2.4411 -2.1888  0.0794
   21MOL   H22518265   5.325   5.357   5.756 -1.7992 -1.6731 -0.2989
   21MOL   H22618266   5.405   5.561   5.622  1.0658 -1.2582  0.8550
   21MOL   C22718267   5.249   5.038   5.648 -0.4295  0.2195  0.6187
   21MOL   C22818268   5.312   5.007   5.768  0.1621  0.6003 -0.0617
   21MOL   C22918269   5.389   4.884   5.783  0.1086  0.0762  0.4996
   21MOL   C23018270   5.383   4.785   5.680  0.2717  0.2556 -0.4263
   21MOL   C23118271   5.315   4.812   5.563  0.4838  0.1826  0.6026
   21MOL   C23218272   5.244   4.937   5.545  0.1881  0.4892 -0.0178
   21MOL   S23318273   5.460   4.619   5.690 -0.1987  0.1595 -0.4270
   21MOL   O23418274   5.541   4.603   5.568  0.5768  0.5856  0.5021
   21MOL   O23518275   5.344   4.527   5.707  0.0339  0.0172  0.4811
   21MOL   C23618276   5.564   4.614   5.835  0.2162  0.3298 -0.0052
   21MOL   C23718277   5.564   4.493   5.912 -0.0599  0.0828 -0.3093
   21MOL   C23818278   5.649   4.473   6.020 -0.3873 -0.5723 -0.4149
   21MOL   C23918279   5.741   4.576   6.051  0.4617 -0.4423 -0.2058
   21MOL   C24018280   5.752   4.694   5.980 -0.5936  0.2196 -0.7342
   21MOL   C24118281   5.656   4.716   5.875 -0.3021 -0.5885 -1.1854
   21MOL   O24218282   5.820   4.563   6.162 -0.1038  0.3549 -0.3366
   21MOL   C24318283   5.942   4.496   6.158 -0.3630 -0.2007  1.1201
   21MOL   C24418284   5.950   4.365   6.108 -1.0538  0.6692 -0.9909
   21MOL   C24518285   6.067   4.291   6.090 -0.1758  0.7620 -0.4117
   21MOL   C24618286   6.190   4.349   6.139  0.0649  0.1576  0.3634
   21MOL   C24718287   6.186   4.482   6.183  0.3260 -0.5930  0.2583
   21MOL   C24818288   6.064   4.556   6.190 -0.2831  0.1873 -0.3216
   21MOL   C24918289   6.317   4.276   6.118  0.3291 -0.2995  0.2807
   21MOL   C25018290   6.432   4.348   6.087 -0.3253  0.2848  0.1624
   21MOL   C25118291   6.547   4.282   6.056 -0.7247 -0.1974  0.1516
   21MOL   C25218292   6.556   4.145   6.044  0.4315  0.0569  0.1063
   21MOL   C25318293   6.438   4.070   6.082  0.2179  0.0751 -0.2772
   21MOL   C25418294   6.318   4.133   6.115  0.2955 -0.2206 -0.0507
   21MOL   O25518295   6.673   4.088   6.016 -0.1277  0.8306 -0.4762
   21MOL   H25618296   5.309   5.073   5.854 -1.4573  0.6971 -0.1783
   21MOL   H25718297   5.435   4.862   5.877  1.7233 -0.6139 -0.4445
   21MOL   H25818298   5.306   4.735   5.488  2.0165  1.0440 -0.4947
   21MOL   H25918299   5.184   4.954   5.456 -0.2182  1.0960  0.3645
   21MOL   H26018300   5.505   4.412   5.873 -1.1251 -0.2204  1.8277
   21MOL   H26118301   5.634   4.386   6.081  2.6476 -0.4678  0.5679
   21MOL   H26218302   5.826   4.766   6.014  1.2719 -2.9972  2.3250
   21MOL   H26318303   5.669   4.806   5.817  0.9725  1.5630  2.2983
   21MOL   H26418304   5.862   4.316   6.068 -2.0870  1.3808  0.3561
   21MOL   H26518305   6.070   4.194   6.043  2.0995  0.9650 -0.7595
   21MOL   H26618306   6.276   4.530   6.221  0.2711  0.3210 -0.7438
   21MOL   H26718307   6.060   4.658   6.225  2.5096  0.1541  0.1821
   21MOL   H26818308   6.439   4.456   6.085 -3.3984  0.5330 -0.4208
   21MOL   H26918309   6.634   4.346   6.047  1.5242 -2.9890  1.3855
   21MOL   H27018310   6.427   3.963   6.087 -1.8177  0.3082  1.3000
   21MOL   H27118311   6.233   4.078   6.152  1.2711 -0.5993  1.6590
   21MOL   C27218312   6.686   4.037   5.892  0.1527 -0.9361  0.2276
   21MOL   C27318313   6.723   3.901   5.875 -0.6828  0.6520 -0.5728
   21MOL   C27418314   6.749   3.841   5.752 -0.4336 -0.1197  0.1571
   21MOL   C27518315   6.731   3.920   5.637  0.4909  0.1519 -0.6959
   21MOL   C27618316   6.696   4.056   5.650 -0.6796 -0.4397  0.2759
   21MOL   C27718317   6.662   4.118   5.774  0.4702  0.7834 -0.1785
   21MOL   S27818318   6.758   3.846   5.476  0.1594 -0.1977  0.1132
   21MOL   O27918319   6.878   3.761   5.482 -0.1451  0.8636  0.2819
   21MOL   O28018320   6.751   3.950   5.374  0.1612  0.4912  0.1136
   21MOL   C28118321   6.627   3.729   5.452 -0.5104  0.1623 -0.4771
   21MOL   C28218322   6.620   3.621   5.540 -0.1790  0.4079 -0.3254
   21MOL   C28318323   6.519   3.521   5.512 -0.1044 -0.7788 -0.2896
   21MOL   C28418324   6.419   3.546   5.416  0.0171  0.4127  0.2467
   21MOL   C28518325   6.411   3.669   5.351  0.1724 -0.2522  0.0918
   21MOL   C28618326   6.515   3.762   5.370 -0.2628 -0.2467  0.3770
   21MOL   O28718327   6.326   3.450   5.395  0.0985  0.6292 -0.2765
   21MOL   C28818328   6.197   3.471   5.429  0.7207 -0.2072  0.4574
   21MOL   C28918329   6.102   3.389   5.368  0.2490  0.1723 -0.1959
   21MOL   C29018330   5.967   3.405   5.404  0.4495  0.2081  0.6844
   21MOL   C29118331   5.927   3.502   5.496 -0.4573 -0.2553 -0.2941
   21MOL   C29218332   6.028   3.580   5.559  0.4847  0.4583 -0.0441
   21MOL   C29318333   6.157   3.564   5.527 -0.5424  0.1492  0.5428
   21MOL   C29418334   5.790   3.514   5.541  0.2945  0.0530  0.7748
   21MOL   C29518335   5.717   3.404   5.580 -0.1457 -0.2289  0.3819
   21MOL   C29618336   5.582   3.402   5.594 -0.5172 -0.4932  0.1714
   21MOL   C29718337   5.508   3.522   5.578 -0.7471  0.7910 -0.2794
   21MOL   C29818338   5.579   3.636   5.536  0.5328 -0.7045  0.1052
   21MOL   C29918339   5.720   3.635   5.520  0.8949 -0.2719  0.5213
   21MOL   O30018340   5.373   3.532   5.583  0.0448 -0.4095 -0.5150
   21MOL   H30118341   6.744   3.849   5.968  1.3258  2.6753  0.1407
   21MOL   H30218342   6.787   3.740   5.740 -0.0300  0.2449 -1.8508
   21MOL   H30318343   6.670   4.110   5.560 -0.4167  1.1829  1.1525
   21MOL   H30418344   6.633   4.222   5.769 -1.6186  0.2189 -0.0525
   21MOL   H30518345   6.701   3.597   5.608 -0.2912 -0.8364 -0.6198
   21MOL   H30618346   6.510   3.432   5.572 -0.9763  0.3774  1.3586
   21MOL   H30718347   6.333   3.688   5.278  0.0277 -0.0060  0.3104
   21MOL   H30818348   6.520   3.860   5.325 -0.4543 -0.6971 -0.6508
   21MOL   H30918349   6.134   3.305   5.308 -0.8134 -0.8456  0.6241
   21MOL   H31018350   5.900   3.336   5.354  0.2695 -0.2474  1.5439
   21MOL   H31118351   6.014   3.643   5.645 -2.1386  0.0230 -0.1077
   21MOL   H31218352   6.226   3.633   5.574  1.5384 -0.7249 -1.1614
   21MOL   H31318353   5.769   3.310   5.597 -0.2596  0.1718  3.3562
   21MOL   H31418354   5.530   3.311   5.620  0.7737 -1.1113  0.5958
   21MOL   H31518355   5.527   3.728   5.512  0.6798 -0.8521 -0.7810
   21MOL   H31618356   5.773   3.716   5.473  2.8743 -2.7459 -1.7111
   21MOL   C31718357   5.323   3.535   5.715 -0.3782 -0.2801  0.2693
   21MOL   C31818358   5.252   3.421   5.764 -0.2769 -0.1627 -0.1974
   21MOL   C31918359   5.192   3.428   5.890 -0.0191  0.2308 -0.6458
   21MOL   C32018360   5.219   3.539   5.978 -0.0176 -0.2027  0.8731
   21MOL   C32118361   5.293   3.650   5.931 -0.5857  0.3422 -0.2752
   21MOL   C32218362   5.343   3.646   5.798 -0.6470 -0.3079 -0.4097
   21MOL   S32318363   5.139   3.551   6.140 -0.1946 -0.0502  0.2433
   21MOL   O32418364   5.012   3.476   6.130 -0.1500 -0.3495 -0.3678
   21MOL   O32518365   5.134   3.693   6.183 -0.0600 -0.2235 -0.2552
   21MOL   C32618366   5.242   3.464   6.253 -0.0108  0.4193 -0.1802
   21MOL   C32718367   5.334   3.378   6.205 -0.1540 -0.0138  0.1791
   21MOL   C32818368   5.414   3.301   6.291  0.1864 -0.0713  0.3068
   21MOL   C32918369   5.404   3.320   6.429 -0.3810  0.4016  0.4092
   21MOL   C33018370   5.317   3.414   6.486  0.1163  0.2674 -0.0108
   21MOL   C33118371   5.231   3.483   6.393  0.6982 -1.0318 -0.0769
   21MOL   O33218372   5.472   3.237   6.510 -0.1962  0.2572 -0.9470
   21MOL   C33318373   5.406   3.158   6.603 -0.1569 -0.3585  0.3635
   21MOL   C33418374   5.300   3.080   6.575  0.0326 -0.7962  0.0859
   21MOL   C33518375   5.230   3.002   6.663  0.5629  0.7131 -0.1852
   21MOL   C33618376   5.267   3.003   6.798 -0.6037  0.1290  0.8178
   21MOL   C33718377   5.375   3.084   6.831  0.7611 -0.1248  0.1291
   21MOL   C33818378   5.445   3.161   6.737  0.5378 -0.5298 -0.2822
   21MOL   C33918379   5.184   2.935   6.911 -0.3027 -0.2991  0.0427
   21MOL   C34018380   5.045   2.933   6.899  0.1845  0.0503 -0.3917
   21MOL   C34118381   4.966   2.851   6.978 -0.4680 -0.2487  0.2035
   21MOL   C34218382   5.025   2.787   7.089 -1.2661 -0.4497  0.2511
   21MOL   C34318383   5.165   2.797   7.111 -0.3636 -0.0537 -0.1417
   21MOL   C34418384   5.242   2.871   7.022 -0.3393  0.8466  0.5354
   21MOL   O34518385   4.945   2.725   7.184 -0.2657  0.2500 -0.3296
   21MOL   H34618386   5.239   3.333   5.703 -0.5243 -0.0218 -0.3486
   21MOL   H34718387   5.118   3.359   5.928 -0.7702  0.4728 -1.6489
   21MOL   H34818388   5.300   3.744   5.984 -1.1195  0.6682 -0.7845
   21MOL   H34918389   5.398   3.725   5.748 -2.1033  0.2287 -1.1877
   21MOL   H35018390   5.347   3.357   6.100  0.2066  1.6403 -0.1183
   21MOL   H35118391   5.486   3.227   6.261  0.9550  1.1481 -0.9369
   21MOL   H35218392   5.306   3.420   6.594 -1.6466 -1.1043 -0.0958
   21MOL   H35318393   5.168   3.561   6.432 -1.2149 -0.4295 -4.1300
   21MOL   H35418394   5.262   3.076   6.473 -1.8135  1.2609  0.6469
   21MOL   H35518395   5.144   2.946   6.629 -0.4992  1.6271  0.9226
   21MOL   H35618396   5.400   3.092   6.936  0.0811 -1.6903  0.4301
   21MOL   H35718397   5.530   3.221   6.768 -0.4671 -0.1016  1.7314
   21MOL   H35818398   5.000   2.974   6.810 -0.5215 -3.6618 -1.8261
   21MOL   H35918399   4.859   2.847   6.965 -0.3529 -0.1412 -0.8316
   21MOL   H36018400   5.219   2.754   7.193 -0.2501 -0.7406 -0.5742
   21MOL   H36118401   5.348   2.868   7.043 -0.3343  1.4108  0.5811
   21MOL   C36218402   4.872   2.805   7.270 -0.1211  0.1608  0.5721
   21MOL   C36318403   4.945   2.883   7.366  0.9205  0.4348 -0.3476
   21MOL   C36418404   4.873   2.959   7.458  0.5432 -0.6512 -0.1065
   21MOL   C36518405   4.730   2.960   7.448 -0.1901  0.2532 -0.7036
   21MOL   C36618406   4.661   2.888   7.352  0.6284  0.1478 -0.1616
   21MOL   C36718407   4.732   2.809   7.263  0.0078 -0.3094  0.0334
   21MOL   S36818408   4.643   3.058   7.574 -0.0990 -0.4014 -0.1232
   21MOL   O36918409   4.726   3.173   7.599 -0.1656  0.3320 -0.0663
   21MOL   O37018410   4.599   2.960   7.676  0.1723 -0.1342 -0.3642
   21MOL   C37118411   4.500   3.117   7.484 -0.0767 -0.1955  0.3773
   21MOL   C37218412   4.509   3.224   7.394  0.1119 -0.2884 -0.0796
   21MOL   C37318413   4.391   3.267   7.321 -0.0840 -0.7520  0.0675
   21MOL   C37418414   4.269   3.199   7.333 -0.0792 -0.0122 -0.0635
   21MOL   C37518415   4.265   3.106   7.438 -0.4245  0.1608 -0.1390
   21MOL   C37618416   4.378   3.063   7.509 -0.0581 -0.0320  0.1396
   21MOL   O37718417   4.152   3.232   7.266 -0.4639  0.0428  0.0810
   21MOL   C37818418   4.105   3.163   7.160 -0.7315 -0.1396  0.0631
   21MOL   C37918419   4.188   3.131   7.055  0.2296  0.4316  0.2976
   21MOL   C38018420   4.137   3.085   6.931 -0.1706  0.2817 -0.0012
   21MOL   C38118421   3.998   3.088   6.907 -0.2123 -0.2644 -0.4474
   21MOL   C38218422   3.911   3.105   7.018  0.2894 -0.4961  0.2246
   21MOL   C38318423   3.967   3.145   7.143  0.0030  0.7301  0.0908
   21MOL   C38418424   3.941   3.055   6.774 -0.3325  0.1663  0.1209
   21MOL   C38518425   3.998   2.960   6.687 -0.4905  0.0484 -0.0652
   21MOL   C38618426   3.942   2.937   6.560 -0.1969 -0.1987  0.3468
   21MOL   C38718427   3.822   3.000   6.516 -0.2918  0.1871 -0.5961
   21MOL   C38818428   3.769   3.093   6.601  0.5645 -1.0454 -0.7650
   21MOL   C38918429   3.826   3.123   6.725 -0.4694 -0.0751 -1.0271
   21MOL   O39018430   3.757   2.968   6.397  0.1302  0.3427 -0.0793
   21MOL   H39118431   5.052   2.879   7.377  0.9371 -1.2268 -0.9447
   21MOL   H39218432   4.920   3.025   7.529  1.9509 -2.4698  0.7136
   21MOL   H39318433   4.555   2.911   7.343  0.8200  1.8883  1.4870
   21MOL   H39418434   4.683   2.759   7.181  2.1540 -1.2917 -0.6760
   21MOL   H39518435   4.601   3.273   7.366 -0.0034  0.5987  1.0784
   21MOL   H39618436   4.399   3.344   7.246 -0.2176  0.3365  1.1649
   21MOL   H39718437   4.166   3.065   7.448 -0.8528  1.4318  0.9139
   21MOL   H39818438   4.378   2.976   7.573 -0.1159  0.3263  0.6263
   21MOL   H39918439   4.296   3.135   7.063  0.2311  3.2109 -0.5615
   21MOL   H40018440   4.207   3.077   6.849  1.1957  0.2992  1.1289
   21MOL   H40118441   3.804   3.095   7.007  0.6560 -0.9305 -3.3946
   21MOL   H40218442   3.907   3.176   7.227  0.9200  0.2604  0.9276
   21MOL   H40318443   4.074   2.894   6.726  1.1092  1.8937 -0.0088
   21MOL   H40418444   3.975   2.862   6.489 -0.2971 -0.4012  0.5152
   21MOL   H40518445   3.680   3.148   6.576  1.0082  0.3534  0.5855
   21MOL   H40618446   3.775   3.191   6.792 -0.3059  0.7329 -1.7162
   21MOL   C40718447   3.818   2.983   6.272 -0.0568 -0.0211 -0.4704
   21MOL   C40818448   3.881   3.106   6.228 -0.2698  0.0109  0.8905
   21MOL   C40918449   3.922   3.123   6.094 -0.4297 -0.0592 -0.3286
   21MOL   C41018450   3.907   3.015   6.009 -0.0611 -0.1031  0.6369
   21MOL   C41118451   3.834   2.899   6.044 -0.5965  0.1734 -1.0272
   21MOL   C41218452   3.804   2.875   6.182  0.1468  0.2825  0.1292
   21MOL   S41318453   3.965   3.039   5.839  0.2067 -0.5132 -0.2243
   21MOL   O41418454   3.919   3.167   5.786 -0.4355 -0.6854 -0.0927
   21MOL   O41518455   3.927   2.914   5.767 -0.5264 -0.4808 -0.0884
   21MOL   C41618456   4.140   3.039   5.860  0.4533  0.5425  0.3693
   21MOL   C41718457   4.213   3.124   5.779 -0.5517  0.5719  0.4203
   21MOL   C41818458   4.353   3.129   5.789  0.4784 -0.0730  0.0393
   21MOL   C41918459   4.420   3.050   5.878 -0.1257 -0.4234  0.0468
   21MOL   C42018460   4.348   2.950   5.950  0.4435  0.2392 -0.0141
   21MOL   C42118461   4.206   2.946   5.944 -0.2643 -0.0221  0.0463
   21MOL   O42218462   4.554   3.055   5.896 -0.4375  0.4906 -0.4267
   21MOL   C42318463   4.595   3.140   5.998  0.5088  0.0579  0.3667
   21MOL   C42418464   4.548   3.127   6.131 -0.4048 -0.2838 -0.1356
   21MOL   C42518465   4.590   3.215   6.230 -0.4083  0.0717  0.0498
   21MOL   C42618466   4.675   3.320   6.200 -0.2043  1.0517  0.1308
   21MOL   C42718467   4.717   3.331   6.066  0.8361 -0.6199 -0.0041
   21MOL   C42818468   4.675   3.244   5.963 -0.1220 -0.0575  0.0873
   21MOL   C42918469   4.716   3.419   6.306  0.0742  0.2992  0.5261
   21MOL   C43018470   4.740   3.552   6.266  0.0639  0.5604 -0.2115
   21MOL   C43118471   4.765   3.658   6.360  0.6343  0.7529  0.6670
   21MOL   C43218472   4.770   3.621   6.492 -0.3480  0.0819 -0.8748
   21MOL   C43318473   4.747   3.490   6.532 -0.0395  0.2956  0.0512
   21MOL   C43418474   4.719   3.390   6.444 -0.1759 -0.2431  0.3948
   21MOL   O43518475   4.777   3.712   6.597 -0.3269  0.2572 -0.5295
   21MOL   H43618476   3.877   3.189   6.297 -0.3717  0.5833  0.2013
   21MOL   H43718477   3.955   3.221   6.063  0.6013  0.4882  2.3151
   21MOL   H43818478   3.815   2.814   5.980  0.5144 -1.7462  1.1419
   21MOL   H43918479   3.753   2.782   6.200  0.2393  0.0952 -0.5811
   21MOL   H44018480   4.169   3.193   5.708 -1.3460 -0.0214  0.3267
   21MOL   H44118481   4.418   3.187   5.725  0.4913 -0.3730 -0.2248
   21MOL   H44218482   4.407   2.889   6.016  0.4096 -0.1448 -0.3351
   21MOL   H44318483   4.153   2.867   5.995 -0.2069  0.7290  1.2950
   21MOL   H44418484   4.473   3.052   6.151 -1.4453  0.7720 -0.0127
   21MOL   H44518485   4.544   3.213   6.328  1.0032  2.6771  0.8303
   21MOL   H44618486   4.794   3.405   6.052  0.8832 -0.1614  2.4728
   21MOL   H44718487   4.713   3.254   5.862 -1.7658  4.1035 -0.2377
   21MOL   H44818488   4.754   3.567   6.160  1.1702  0.3867 -0.0985
   21MOL   H44918489   4.770   3.759   6.323  2.3362 -0.3752 -2.3751
   21MOL   H45018490   4.758   3.470   6.638  0.6758  1.9283  0.2897
   21MOL   H45118491   4.698   3.288   6.474 -0.6688  0.0268  0.9787
   21MOL   C45218492   4.891   3.780   6.615 -0.2019 -0.2894  0.4936
   21MOL   C45318493   4.890   3.910   6.574  0.1623 -0.3912  0.1468
   21MOL   C45418494   5.012   3.983   6.574  0.3060 -0.3229  0.6461
   21MOL   C45518495   5.132   3.919   6.614  0.3597  0.7996 -0.2954
   21MOL   C45618496   5.131   3.787   6.658  0.7552 -0.2810 -0.1077
   21MOL   C45718497   5.006   3.718   6.657 -0.1039 -0.0494 -0.2375
   21MOL   S45818498   5.291   4.004   6.594  0.0355  0.3179 -0.6448
   21MOL   O45918499   5.369   3.992   6.720 -0.1688  0.1256 -0.9030
   21MOL   O46018500   5.260   4.135   6.543 -0.4086 -0.3174 -0.1057
   21MOL   C46118501   5.377   3.908   6.467  0.4580  0.2584 -0.0495
   21MOL   C46218502   5.453   3.797   6.499 -0.3229 -0.1497  0.7830
   21MOL   C46318503   5.521   3.726   6.392 -0.1478 -0.1218  0.1423
   21MOL   C46418504   5.510   3.767   6.260 -0.3064 -0.8545  0.1743
   21MOL   C46518505   5.426   3.876   6.226 -0.5262  0.3864  0.8186
   21MOL   C46618506   5.372   3.952   6.333  0.1854 -0.3396  0.4031
   21MOL   O46718507   5.558   3.685   6.166  0.1510 -0.1038  0.2511
   21MOL   C46818508   5.665   3.723   6.087 -0.8496  0.5482  0.1753
   21MOL   C46918509   5.787   3.764   6.149 -0.1581  0.4259 -0.3546
   21MOL   C47018510   5.898   3.808   6.072  0.0610 -0.8877 -0.2882
   21MOL   C47118511   5.896   3.811   5.932 -0.6747 -0.4403  0.3184
   21MOL   C47218512   5.775   3.769   5.868 -0.5434 -0.5011 -0.2111
   21MOL   C47318513   5.659   3.727   5.946  0.4490  0.4308 -0.4043
   21MOL   C47418514   6.016   3.844   5.846  0.3285  0.2884  0.0292
   21MOL   C47518515   6.000   3.908   5.723 -0.0546 -0.3131  0.0868
   21MOL   C47618516   6.113   3.950   5.644 -0.6126  0.2653  0.0080
   21MOL   C47718517   6.242   3.944   5.700  0.1373 -1.2017 -0.5390
   21MOL   C47818518   6.255   3.873   5.819  0.6635  0.0233 -0.3593
   21MOL   C47918519   6.144   3.827   5.895  0.7174  0.2315 -0.3682
   21MOL   O48018520   6.359   3.986   5.640  0.4096 -0.1740  0.0728
   21MOL   H48118521   4.808   3.957   6.522  1.1188 -0.1707 -1.1910
   21MOL   H48218522   5.014   4.085   6.539 -0.9593  0.2962  2.2882
   21MOL   H48318523   5.219   3.735   6.691 -1.4835 -3.1259  1.6925
   21MOL   H48418524   5.006   3.611   6.675  1.1092  0.1033  0.6833
   21MOL   H48518525   5.464   3.764   6.602 -0.6584 -1.3981  0.4355
   21MOL   H48618526   5.589   3.645   6.416  2.6488  1.9192 -0.6245
   21MOL   H48718527   5.418   3.909   6.124 -0.7299  1.3197  1.1331
   21MOL   H48818528   5.314   4.040   6.307  1.4586  0.3687 -0.1070
   21MOL   H48918529   5.799   3.751   6.256  0.1998  0.3317 -0.4062
   21MOL   H49018530   5.992   3.829   6.121  0.2491  1.8041 -1.6850
   21MOL   H49118531   5.765   3.773   5.761 -1.5039  0.4697 -0.0891
   21MOL   H49218532   5.562   3.709   5.902  0.8790 -0.4389 -1.0240
   21MOL   H49318533   5.902   3.926   5.682  0.6774 -1.3294 -2.2220
   21MOL   H49418534   6.095   4.000   5.550 -3.2708  1.0136  0.8746
   21MOL   H49518535   6.352   3.855   5.864 -1.0292 -0.6144  3.2087
   21MOL   H49618536   6.161   3.763   5.980  1.4289  1.5542  0.5031
   21MOL   C49718537   6.356   4.103   5.567 -0.9340  0.0154 -0.1683
   21MOL   C49818538   6.359   4.097   5.424 -0.3300  0.0455 -0.1000
   21MOL   C49918539   6.343   4.219   5.356  0.0199  0.7058  0.2834
   21MOL   C50018540   6.325   4.340   5.419 -0.0103  0.7622 -0.1230
   21MOL   C50118541   6.324   4.340   5.560 -0.2079 -0.1637 -0.5904
   21MOL   C50218542   6.345   4.228   5.640 -0.0083 -0.1054  0.7084
   21MOL   S50318543   6.292   4.483   5.315  0.1288  0.4106  0.3517
   21MOL   O50418544   6.371   4.470   5.191 -0.3474 -0.0909 -0.1244
   21MOL   O50518545   6.312   4.605   5.399  0.6680  0.0410 -0.2542
   21MOL   C50618546   6.119   4.468   5.269 -0.5628  0.5379 -0.7811
   21MOL   C50718547   6.075   4.379   5.166  0.5760  0.1516  0.5092
   21MOL   C50818548   5.936   4.375   5.127 -0.4711  0.7115  0.2157
   21MOL   C50918549   5.850   4.471   5.179 -0.3475  0.0068  0.1351
   21MOL   C51018550   5.893   4.571   5.268  0.8889  0.7272 -0.2598
   21MOL   C51118551   6.027   4.566   5.320  0.4154  0.1119  0.1191
   21MOL   O51218552   5.725   4.484   5.131 -0.4104  0.0359  0.6629
   21MOL   C51318553   5.625   4.403   5.173  0.3162  0.1241  0.1687
   21MOL   C51418554   5.563   4.428   5.298 -0.1140  0.4490  0.0123
   21MOL   C51518555   5.446   4.357   5.339 -0.2230 -0.5773 -0.0879
   21MOL   C51618556   5.389   4.259   5.251  0.5382  0.1870  0.2555
   21MOL   C51718557   5.450   4.236   5.125  0.0049 -0.1019 -0.8603
   21MOL   C51818558   5.571   4.307   5.093 -0.5945  0.3882  0.1613
   21MOL   C51918559   5.261   4.189   5.284  0.5427  0.4354 -0.8064
   21MOL   C52018560   5.246   4.049   5.272 -0.0140 -0.3270 -0.2877
   21MOL   C52118561   5.118   3.990   5.287  0.3508 -0.6550  0.7378
   21MOL   C52218562   5.009   4.068   5.324  0.3799 -0.7685  0.3220
   21MOL   C52318563   5.024   4.210   5.343  0.3922  0.2366 -0.5376
   21MOL   C52418564   5.150   4.267   5.328 -0.7676 -0.0304  0.3919
   21MOL   O52518565   4.885   4.012   5.342  0.5264  0.0535  0.2079
   21MOL   H52618566   6.376   4.005   5.371  1.2026 -0.3666  1.0644
   21MOL   H52718567   6.360   4.208   5.250  1.2658 -1.1051  0.6473
   21MOL   H52818568   6.315   4.432   5.616  0.4100  0.1827 -1.0543
   21MOL   H52918569   6.346   4.225   5.748  0.8414  0.3673  0.7115
   21MOL   H53018570   6.152   4.314   5.128 -0.3157 -1.3030  1.1533
   21MOL   H53118571   5.902   4.301   5.056  3.2056 -0.5056 -0.3652
   21MOL   H53218572   5.820   4.649   5.282 -0.2379  0.0259 -2.0979
   21MOL   H53318573   6.054   4.653   5.379  0.7215 -1.0617  1.7266
   21MOL   H53418574   5.608   4.508   5.354 -2.1789  0.9833  0.9739
   21MOL   H53518575   5.397   4.387   5.430 -1.0602  1.1517 -1.0889
   21MOL   H53618576   5.404   4.175   5.049 -0.0724 -0.7975 -0.2645
   21MOL   H53718577   5.630   4.301   5.002  0.5763 -0.1091  0.9370
   21MOL   H53818578   5.334   3.990   5.250 -0.1001 -0.1254 -1.1728
   21MOL   H53918579   5.109   3.886   5.260 -0.9035 -0.2841 -0.3029
   21MOL   H54018580   4.945   4.280   5.366  0.1175  0.3407 -1.7806
   21MOL   H54118581   5.164   4.372   5.350 -1.4581  0.9589 -3.5989
   21MOL   C54218582   4.867   3.944   5.452 -0.3904  0.3249  1.1049
   21MOL   C54318583   4.884   3.805   5.452 -0.4973  0.4069  0.1305
   21MOL   C54418584   4.858   3.728   5.568  0.4024 -0.3685  0.2060
   21MOL   C54518585   4.839   3.799   5.690  0.2408  0.1437  0.4075
   21MOL   C54618586   4.842   3.940   5.689  0.1060 -0.0804 -0.4503
   21MOL   C54718587   4.858   4.017   5.571  0.1558  0.1170  0.6776
   21MOL   S54818588   4.831   3.703   5.830  0.0294 -0.0810 -0.1034
   21MOL   O54918589   4.968   3.656   5.865 -0.2367  0.7552 -0.8391
   21MOL   O55018590   4.723   3.607   5.801 -0.5075  0.0451 -0.0418
   21MOL   C55118591   4.787   3.821   5.959  0.8960 -0.0792 -0.0821
   21MOL   C55218592   4.884   3.872   6.053  0.1861 -0.2101 -0.4663
   21MOL   C55318593   4.845   3.981   6.139 -0.3303 -0.4072 -0.1995
   21MOL   C55418594   4.710   4.017   6.151 -0.3472  0.2560 -0.1917
   21MOL   C55518595   4.618   3.951   6.061  0.4363  0.1874  1.1332
   21MOL   C55618596   4.651   3.855   5.967 -0.0609 -0.7648 -0.4840
   21MOL   O55718597   4.663   4.106   6.243  0.4510  0.3965 -0.3273
   21MOL   C55818598   4.739   4.215   6.277 -0.0093  0.8206 -0.5012
   21MOL   C55918599   4.817   4.288   6.186  0.0258 -0.3804 -0.1970
   21MOL   C56018600   4.880   4.403   6.226  0.4983  0.2041 -0.5901
   21MOL   C56118601   4.867   4.452   6.365 -0.0467  0.3620  0.3237
   21MOL   C56218602   4.791   4.378   6.458 -0.4966  0.1536 -0.2301
   21MOL   C56318603   4.735   4.254   6.415  0.3441 -0.8988 -0.4255
   21MOL   C56418604   4.916   4.593   6.403 -0.3261  0.1987  0.1089
   21MOL   C56518605   4.891   4.701   6.316  0.2811  0.0727 -0.6305
   21MOL   C56618606   4.937   4.829   6.354 -0.6868 -0.7983 -0.0364
   21MOL   C56718607   5.006   4.857   6.473  0.4175  0.0202  0.1465
   21MOL   C56818608   5.029   4.747   6.556 -0.1784  0.8247  0.2831
   21MOL   C56918609   4.983   4.619   6.529 -0.3995 -0.0968  0.7807
   21MOL   O57018610   5.037   4.985   6.518  0.9112  0.7093 -0.7119
   21MOL   H57118611   4.896   3.749   5.360 -1.5128 -1.2863  1.0043
   21MOL   H57218612   4.850   3.621   5.560  0.5251 -0.2005 -3.1360
   21MOL   H57318613   4.831   3.999   5.779  3.4572  1.2222 -0.8400
   21MOL   H57418614   4.849   4.125   5.579 -0.2933  0.1402 -0.1666
   21MOL   H57518615   4.987   3.839   6.053 -0.1576 -1.3392 -0.9983
   21MOL   H57618616   4.918   4.035   6.197 -0.0920  1.7331 -2.3921
   21MOL   H57718617   4.513   3.977   6.064 -0.0519 -1.3776 -1.5441
   21MOL   H57818618   4.572   3.804   5.914 -1.1240  0.5934 -0.2319
   21MOL   H57918619   4.818   4.255   6.083 -1.2079 -0.5636 -0.1513
   21MOL   H58018620   4.949   4.453   6.160 -0.5502  2.3653 -0.0905
   21MOL   H58118621   4.769   4.418   6.556 -0.5732 -2.5940  0.9296
   21MOL   H58218622   4.671   4.201   6.484  1.1818 -1.5011 -0.1030
   21MOL   H58318623   4.850   4.680   6.219 -0.2683  0.1916 -0.4255
   21MOL   H58418624   4.908   4.914   6.294  1.1109 -1.2516 -1.6037
   21MOL   H58518625   5.079   4.765   6.650  1.1530 -1.1789 -0.0104
   21MOL   H58618626   4.992   4.543   6.604  1.7543  0.1680  0.8260
   21MOL   C58718627   5.074   5.066   6.418 -0.3991 -0.0867  0.2730
   21MOL   C58818628   5.200   5.059   6.366 -0.4604  0.2484  0.0935
   21MOL   C58918629   5.230   5.131   6.248  0.5266 -0.0969 -0.2206
   21MOL   C59018630   5.134   5.216   6.186  0.6417 -0.2246 -0.1653
   21MOL   C59118631   5.004   5.223   6.243  0.2193 -0.1583 -0.1979
   21MOL   C59218632   4.980   5.148   6.361 -0.5683 -0.9807  0.1013
   21MOL   S59318633   5.143   5.283   6.021  0.0314  0.0794  0.1263
   21MOL   O59418634   5.282   5.259   5.989  0.0227 -0.6774  0.1594
   21MOL   O59518635   5.095   5.422   6.015 -0.2425 -0.2344 -0.1098
   21MOL   C59618636   5.029   5.189   5.920 -0.4331  0.3124 -0.3612
   21MOL   C59718637   4.943   5.251   5.830 -0.4092  0.6046 -0.0549
   21MOL   C59818638   4.844   5.185   5.761  0.0708 -0.6233  1.0856
   21MOL   C59918639   4.841   5.045   5.760  0.2392  0.5394 -0.0376
   21MOL   C60018640   4.922   4.978   5.849 -0.3747  0.2470 -0.8921
   21MOL   C60118641   5.019   5.047   5.926  0.3243  0.3324  0.2567
   21MOL   O60218642   4.756   4.965   5.688 -0.3029  1.0329 -0.3791
   21MOL   C60318643   4.758   4.972   5.554  0.1242  0.4496  0.0639
   21MOL   C60418644   4.648   4.921   5.491  0.8900 -0.3780  0.1283
   21MOL   C60518645   4.634   4.947   5.350 -0.0015  0.4527  0.3189
   21MOL   C60618646   4.737   5.002   5.278  1.1978  0.0121  0.3138
   21MOL   C60718647   4.850   5.053   5.343 -0.0791  0.8483 -0.4476
   21MOL   C60818648   4.859   5.035   5.478  0.1786  0.0486 -0.9809
   21MOL   C60918649   4.725   5.010   5.128  1.3087 -0.2744  0.2762
   21MOL   C61018650   4.829   4.979   5.045 -0.1729 -0.6921 -0.2753
   21MOL   C61118651   4.820   5.016   4.908 -0.1775 -0.0969 -0.2619
   21MOL   C61218652   4.705   5.080   4.856  0.2531  1.1025  0.1797
   21MOL   C61318653   4.592   5.096   4.934 -1.2197 -0.2291 -0.4319
   21MOL   C61418654   4.604   5.066   5.073  0.4512 -0.2401  0.0345
   21MOL   O61518655   4.700   5.138   4.735  0.5537  0.8237  0.2284
   21MOL   H61618656   5.273   4.987   6.400 -1.2107 -0.8236 -0.5374
   21MOL   H61718657   5.330   5.137   6.208  0.1682 -0.3269 -1.1630
   21MOL   H61818658   4.918   5.269   6.196  0.8735  1.9609  0.6283
   21MOL   H61918659   4.884   5.143   6.411  0.1294 -0.3375  1.5596
   21MOL   H62018660   4.953   5.356   5.811  1.3221  0.3351 -0.6666
   21MOL   H62118661   4.788   5.233   5.682  2.7365  1.5905  0.4904
   21MOL   H62218662   4.916   4.870   5.855  0.2198  0.3234  1.8309
   21MOL   H62318663   5.084   4.991   5.992  0.8254 -0.1858 -0.6633
   21MOL   H62418664   4.572   4.871   5.549  0.3510  1.0134  0.6400
   21MOL   H62518665   4.540   4.913   5.309 -0.0120  1.6524 -0.6982
   21MOL   H62618666   4.929   5.107   5.294  1.6745 -0.8131  0.4807
   21MOL   H62718667   4.950   5.071   5.523 -0.5558 -2.0566  2.3963
   21MOL   H62818668   4.925   4.938   5.071 -0.1836 -1.2292 -1.0448
   21MOL   H62918669   4.906   4.988   4.848 -1.1523 -1.8214 -0.9021
   21MOL   H63018670   4.499   5.146   4.913 -1.3279  2.3871  5.3041
   21MOL   H63118671   4.524   5.098   5.138 -1.1256 -0.3515 -1.8161
   21MOL   C63218672   4.772   5.255   4.733 -0.1995  1.2179 -0.3308
   21MOL   C63318673   4.710   5.375   4.772 -0.6334 -0.2138 -0.2304
   21MOL   C63418674   4.781   5.496   4.767 -0.1648  0.1004  1.1269
   21MOL   C63518675   4.916   5.497   4.728 -0.9960 -0.5060  0.0505
   21MOL   C63618676   4.982   5.375   4.695 -0.2190 -0.1934  0.2697
   21MOL   C63718677   4.909   5.254   4.689 -0.3331 -0.1620 -0.2232
   21MOL   S63818678   4.993   5.658   4.695  0.0428 -0.4711 -0.3812
   21MOL   O63918679   5.109   5.630   4.611 -0.8783  0.0153 -0.6567
   21MOL   O64018680   5.026   5.732   4.818 -0.1452 -0.4203  0.5911
   21MOL   C64118681   4.868   5.754   4.605  1.0157 -0.1434  0.3395
   21MOL   C64218682   4.824   5.881   4.642 -0.6827  0.2852 -0.1298
   21MOL   C64318683   4.729   5.953   4.571  0.6072  0.1246  0.2980
   21MOL   C64418684   4.666   5.902   4.455 -0.7435 -0.4833 -0.5626
   21MOL   C64518685   4.705   5.771   4.415 -0.3307  0.1898  0.2640
   21MOL   C64618686   4.811   5.701   4.485  0.0015  0.4201  0.3986
   21MOL   O64718687   4.593   5.980   4.372  0.0994  0.0620  0.0399
   21MOL   C64818688   4.659   6.075   4.290  0.5935  0.2973  0.5139
   21MOL   C64918689   4.706   6.039   4.165  0.4096  0.2079 -0.8539
   21MOL   C65018690   4.778   6.132   4.080  0.4696  0.4041 -0.1089
   21MOL   C65118691   4.806   6.261   4.123  0.1029  0.3606  0.2742
   21MOL   C65218692   4.748   6.301   4.245 -0.4462  0.4366  0.2943
   21MOL   C65318693   4.672   6.210   4.327  0.2900  0.3897  0.1213
   21MOL   C65418694   4.880   6.353   4.038 -0.1834  0.2676  0.0102
   21MOL   C65518695   4.960   6.458   4.094  0.3556  0.5066  0.2273
   21MOL   C65618696   5.014   6.561   4.010  0.1312 -0.8788  0.1739
   21MOL   C65718697   4.984   6.560   3.867 -0.1595  0.3667  0.0408
   21MOL   C65818698   4.908   6.457   3.815  0.0676  0.3175 -0.5220
   21MOL   C65918699   4.863   6.351   3.895 -0.8346  0.0588 -0.4109
   21MOL   O66018700   5.041   6.659   3.796  0.4016 -0.5765 -0.0059
   21MOL   H66118701   4.605   5.387   4.794 -0.4078  1.4987 -0.0017
   21MOL   H66218702   4.731   5.588   4.792 -1.2680  0.3500 -1.7859
   21MOL   H66318703   5.075   5.378   4.640 -0.4673 -2.2236 -0.3163
   21MOL   H66418704   4.958   5.169   4.643  4.3074  1.2081  1.9342
   21MOL   H66518705   4.870   5.924   4.730  1.0430 -2.0791  0.1686
   21MOL   H66618706   4.709   6.055   4.602 -6.7990 -0.9802 -0.0784
   21MOL   H66718707   4.659   5.736   4.323 -1.1615 -0.2140  0.8236
   21MOL   H66818708   4.849   5.604   4.456  1.2896  1.7984 -2.8309
   21MOL   H66918709   4.695   5.935   4.138 -0.3591 -0.2220  1.0483
   21MOL   H67018710   4.807   6.095   3.982  2.3740  0.8710  0.2732
   21MOL   H67118711   4.761   6.407   4.266  1.0170  0.2182  0.5150
   21MOL   H67218712   4.635   6.244   4.423  0.8241  0.8149  0.1744
   21MOL   H67318713   4.981   6.454   4.200  0.4032 -0.3485  0.1847
   21MOL   H67418714   5.086   6.635   4.042 -1.2926  1.6769 -2.3078
   21MOL   H67518715   4.893   6.477   3.710  0.9808  4.0990 -0.0300
   21MOL   H67618716   4.801   6.271   3.854 -0.3065  0.5942 -2.3344
   21MOL   C67718717   4.961   6.774   3.778  0.3857 -0.2166  0.0179
   21MOL   C67818718   5.023   6.876   3.696  0.7369 -0.0440  0.6068
   21MOL   C67918719   4.951   7.000   3.664 -0.0562  1.0267  0.1635
   21MOL   C68018720   4.823   7.011   3.722 -0.1758 -0.0239  0.0940
   21MOL   C68118721   4.768   6.917   3.809  0.1643 -0.0273  0.3821
   21MOL   C68218722   4.834   6.794   3.826 -0.0502  0.8655  0.4707
   21MOL   S68318723   4.716   7.151   3.671 -0.2232 -0.0110 -0.0199
   21MOL   O68418724   4.587   7.098   3.618  0.0518 -0.1332  0.0190
   21MOL   O68518725   4.795   7.239   3.589  0.1755  0.1538  0.2277
   21MOL   C68618726   4.685   7.240   3.825  0.0113  0.1733  0.3273
   21MOL   C68718727   4.778   7.248   3.927  0.8535  0.0585 -0.1027
   21MOL   C68818728   4.739   7.305   4.049  0.0512  0.4679 -0.5157
   21MOL   C68918729   4.613   7.364   4.063 -0.5151  0.6515  0.3188
   21MOL   C69018730   4.524   7.368   3.951 -0.3419 -0.7806 -0.2325
   21MOL   C69118731   4.558   7.298   3.836 -0.0747  0.7737  0.4785
   21MOL   O69218732   4.583   7.432   4.177 -0.3058  0.1541  0.5696
   21MOL   C69318733   4.517   7.358   4.275 -0.5658  0.4028 -0.1401
   21MOL   C69418734   4.382   7.400   4.294 -0.8622 -0.6378  0.9074
   21MOL   C69518735   4.301   7.349   4.400 -0.6925 -0.2039  0.3336
   21MOL   C69618736   4.359   7.255   4.485  0.1780  0.4028 -0.1950
   21MOL   C69718737   4.494   7.212   4.470  0.7454  0.2570  0.2504
   21MOL   C69818738   4.575   7.265   4.367  0.0032 -0.8871  0.4019
   21MOL   C69918739   4.267   7.197   4.581 -0.1790  0.1471 -0.3671
   21MOL   C70018740   4.200   7.274   4.681  0.2639  0.9080  0.2613
   21MOL   C70118741   4.112   7.209   4.765 -0.1025 -0.8271  0.1001
   21MOL   C70218742   4.091   7.068   4.762 -0.7505 -0.1320  0.3891
   21MOL   C70318743   4.151   6.999   4.658  0.5743  0.8088  0.8943
   21MOL   C70418744   4.242   7.060   4.570 -0.6332 -0.1780  0.7263
   21MOL   O70518745   4.009   7.016   4.857  0.0647 -0.4242  0.7079
   21MOL   H70618746   5.125   6.873   3.661  0.8145 -0.5516  0.8733
   21MOL   H70718747   4.984   7.082   3.601 -1.0326 -0.2132 -2.0156
   21MOL   H70818748   4.669   6.939   3.846 -0.5336  1.5683 -2.2847
   21MOL   H70918749   4.789   6.715   3.885  2.1588  1.1852  2.6840
   21MOL   H71018750   4.877   7.206   3.914  0.3564 -1.3490  0.6084
   21MOL   H71118751   4.800   7.309   4.139  1.4118  0.3900 -1.4217
   21MOL   H71218752   4.432   7.423   3.958 -0.9537 -1.7831 -0.2903
   21MOL   H71318753   4.487   7.292   3.755 -0.7213 -0.5063  1.1251
   21MOL   H71418754   4.343   7.482   4.236 -1.9975 -2.5123 -1.0397
   21MOL   H71518755   4.200   7.385   4.408 -0.4066  1.2312 -1.8652
   21MOL   H71618756   4.532   7.136   4.537  0.3740 -0.8778 -0.8162
   21MOL   H71718757   4.678   7.233   4.361  1.8633  4.8128 -1.6746
   21MOL   H71818758   4.216   7.380   4.684  2.1140  0.6468  0.7424
   21MOL   H71918759   4.057   7.267   4.838  1.4882 -1.3428  1.7282
   21MOL   H72018760   4.148   6.892   4.648  2.1549  0.9137 -0.8705
   21MOL   H72118761   4.284   6.994   4.496  3.8028  1.7134  1.3761
   21MOL   C72218762   3.948   6.896   4.841  0.2992 -0.3064  0.3934
   21MOL   C72318763   4.026   6.779   4.856 -0.2089 -0.4478 -0.3704
   21MOL   C72418764   3.970   6.648   4.845  0.0636 -0.6381 -0.0734
   21MOL   C72518765   3.829   6.648   4.819 -0.1639 -0.2186  0.3704
   21MOL   C72618766   3.748   6.765   4.816  0.4987 -0.1704  0.6538
   21MOL   C72718767   3.809   6.893   4.823 -0.6033  0.6241 -0.1190
   21MOL   S72818768   3.751   6.488   4.823  0.3600  0.0199  0.1045
   21MOL   O72918769   3.803   6.406   4.712 -0.2385  0.3311 -0.5590
   21MOL   O73018770   3.612   6.493   4.835  0.5335  0.0808  0.6462
   21MOL   C73118771   3.810   6.409   4.976  0.5737  0.3075 -0.4630
   21MOL   C73218772   3.893   6.299   4.968 -0.4899 -0.8965  0.6750
   21MOL   C73318773   3.925   6.225   5.084 -0.3994  0.2063 -0.4394
   21MOL   C73418774   3.884   6.263   5.210  0.4448 -0.2951 -0.4833
   21MOL   C73518775   3.800   6.376   5.221 -0.2309  0.4918  0.6518
   21MOL   C73618776   3.761   6.450   5.104 -0.5437 -0.0228  0.4151
   21MOL   O73718777   3.918   6.191   5.320 -0.2503 -0.2716 -0.5113
   21MOL   C73818778   3.812   6.154   5.395  0.1455 -0.2094 -0.0730
   21MOL   C73918779   3.812   6.173   5.533  0.1020  0.0928 -0.6775
   21MOL   C74018780   3.699   6.126   5.608  0.4949  0.2418  0.5752
   21MOL   C74118781   3.590   6.057   5.548 -0.4623  0.3509  0.2869
   21MOL   C74218782   3.586   6.042   5.407 -1.0550 -0.2588  0.1881
   21MOL   C74318783   3.702   6.089   5.335  0.3255 -0.0279 -0.4950
   21MOL   C74418784   3.477   6.011   5.622  0.4482 -0.1975 -0.3153
   21MOL   C74518785   3.383   6.102   5.670 -0.0723  0.0372  0.0415
   21MOL   C74618786   3.267   6.065   5.742 -0.1466 -0.1185 -0.1994
   21MOL   C74718787   3.239   5.925   5.755  0.1565  0.6307  0.5654
   21MOL   C74818788   3.332   5.833   5.712 -0.3085 -0.1383 -0.3519
   21MOL   C74918789   3.450   5.874   5.645 -0.2929  0.0909  0.5919
   21MOL   O75018790   3.122   5.885   5.815  1.2029 -0.0275  0.3455
   21MOL   H75118791   4.133   6.791   4.849 -0.3082  1.2183  0.7469
   21MOL   H75218792   4.035   6.562   4.842 -1.1264 -1.5213 -0.8041
   21MOL   H75318793   3.642   6.755   4.796 -0.0150  1.4282  2.4654
   21MOL   H75418794   3.757   6.987   4.815  0.0720  1.2304  2.3340
   21MOL   H75518795   3.928   6.269   4.870 -0.3864  0.5645  0.2443
   21MOL   H75618796   3.985   6.135   5.083  1.9776  1.7511 -1.5170
   21MOL   H75718797   3.761   6.402   5.318  0.1351  0.2420  0.8654
   21MOL   H75818798   3.694   6.535   5.112  0.8176  1.0148  1.1061
   21MOL   H75918799   3.889   6.239   5.570 -0.3509  0.8542 -1.0792
   21MOL   H76018800   3.698   6.142   5.715  1.3131 -0.3086  0.6674
   21MOL   H76118801   3.501   5.991   5.363 -2.3616  0.3984  1.8771
   21MOL   H76218802   3.717   6.075   5.228  0.0306  0.5880 -0.6200
   21MOL   H76318803   3.405   6.208   5.667  1.9547 -0.3792 -1.4331
   21MOL   H76418804   3.199   6.138   5.782  0.4844  0.5276 -0.3050
   21MOL   H76518805   3.306   5.733   5.742 -3.5070  0.3601 -1.2987
   21MOL   H76618806   3.503   5.795   5.593  3.2653  1.5940  1.7640
   21MOL   C76718807   3.023   5.828   5.735 -0.1663 -0.6234  0.5161
   21MOL   C76818808   2.969   5.893   5.623 -0.1074  0.1961 -0.1117
   21MOL   C76918809   2.871   5.833   5.542  0.2184  0.2398 -0.2797
   21MOL   C77018810   2.823   5.706   5.584 -0.4096  0.0017 -0.4768
   21MOL   C77118811   2.881   5.638   5.697 -0.4022 -0.2298  1.4934
   21MOL   C77218812   2.978   5.700   5.775  0.0997 -0.0263  0.2558
   21MOL   S77318813   2.695   5.621   5.481  0.0788  0.2177  0.1807
   21MOL   O77418814   2.729   5.483   5.510 -0.0136  0.5351  0.0200
   21MOL   O77518815   2.710   5.680   5.349  0.1943  0.2010 -0.0747
   21MOL   C77618816   2.532   5.660   5.550 -0.1419  0.1066 -0.4102
   21MOL   C77718817   2.498   5.617   5.680  0.2846 -0.2554 -0.6971
   21MOL   C77818818   2.364   5.633   5.733  0.1936  0.4587  0.0257
   21MOL   C77918819   2.270   5.708   5.659 -0.6081 -0.5253  0.4535
   21MOL   C78018820   2.310   5.768   5.538  0.4804  0.8334  0.2088
   21MOL   C78118821   2.441   5.750   5.486 -0.0648 -0.1230 -0.6192
   21MOL   O78218822   2.143   5.726   5.698 -0.0473 -0.3309  0.0817
   21MOL   C78318823   2.060   5.616   5.696 -0.2656  0.8973 -0.4007
   21MOL   C78418824   1.972   5.600   5.809  0.4791 -0.6636  0.0299
   21MOL   C78518825   1.892   5.478   5.818 -0.2105  0.4183  0.0705
   21MOL   C78618826   1.909   5.376   5.724 -0.1389  0.3511 -0.1461
   21MOL   C78718827   1.985   5.408   5.608  0.0639  0.4304  0.1326
   21MOL   C78818828   2.070   5.522   5.597 -0.2841  0.7239  0.4506
   21MOL   C78918829   1.845   5.243   5.726 -0.0274  0.3186  0.1578
   21MOL   C79018830   1.922   5.123   5.696 -0.0054 -0.5486 -0.1135
   21MOL   C79118831   1.867   4.993   5.720 -0.0013  0.2419 -0.9142
   21MOL   C79218832   1.734   4.976   5.762  0.5593 -0.0057 -0.4976
   21MOL   C79318833   1.661   5.093   5.791 -0.3656 -0.2545  0.3166
   21MOL   C79418834   1.713   5.223   5.768 -0.7479 -0.3856 -0.1289
   21MOL   O79518835   1.683   4.847   5.781 -0.1053 -0.0949  0.2567
   21MOL   H79618836   3.001   5.987   5.581  1.6790 -0.4908 -0.3443
   21MOL   H79718837   2.830   5.876   5.451 -2.0856 -0.8942  0.1803
   21MOL   H79818838   2.841   5.541   5.721 -1.8703 -0.3001 -1.0082
   21MOL   H79918839   3.032   5.648   5.852 -0.9137  0.1279  1.0809
   21MOL   H80018840   2.570   5.568   5.743 -0.6956  0.7871  1.2638
   21MOL   H80118841   2.333   5.604   5.832 -1.0149  0.7767 -0.2557
   21MOL   H80218842   2.230   5.824   5.491  0.2677  1.5423  1.4191
   21MOL   H80318843   2.468   5.813   5.403  2.6617 -0.2238  0.1392
   21MOL   H80418844   1.969   5.680   5.881 -1.1875 -0.7856  0.0951
   21MOL   H80518845   1.824   5.450   5.898 -0.8211  2.0123  0.1293
   21MOL   H80618846   2.000   5.332   5.533  6.3015 -1.5634  3.0597
   21MOL   H80718847   2.138   5.527   5.513  0.1940  0.3562  0.8118
   21MOL   H80818848   2.023   5.136   5.659 -0.5428  1.0771 -1.0703
   21MOL   H80918849   1.929   4.907   5.700  0.0573 -0.9923  3.9979
   21MOL   H81018850   1.560   5.092   5.829  0.5420  0.3351  2.8208
   21MOL   H81118851   1.649   5.305   5.795  0.3400 -0.1035  1.6775
   21MOL   C81218852   1.648   4.772   5.670  0.1930 -0.1068  0.0493
   21MOL   C81318853   1.614   4.634   5.685 -0.2658  0.2371  0.3205
   21MOL   C81418854   1.588   4.555   5.570 -0.5184 -0.0018  0.0639
   21MOL   C81518855   1.572   4.617   5.445  0.3069 -0.5316 -0.1363
   21MOL   C81618856   1.595   4.756   5.433 -0.0456  0.6641  0.5663
   21MOL   C81718857   1.633   4.830   5.544 -0.1943 -0.0303  0.6035
   21MOL   S81818858   1.504   4.526   5.304  0.2020  0.1701 -0.0593
   21MOL   O81918859   1.460   4.620   5.197  0.5861  0.2772 -0.4341
   21MOL   O82018860   1.415   4.424   5.348  0.4310  0.5223  0.4650
   21MOL   C82118861   1.642   4.433   5.224  0.0203 -0.1421 -0.1055
   21MOL   C82218862   1.773   4.469   5.261  0.1272  0.0755 -1.1123
   21MOL   C82318863   1.878   4.388   5.216  0.7691  0.0880  0.4041
   21MOL   C82418864   1.851   4.290   5.119 -0.2747 -0.5850 -0.2950
   21MOL   C82518865   1.719   4.257   5.079 -1.0958 -0.3481 -0.2725
   21MOL   C82618866   1.614   4.336   5.132  0.2912 -0.8530  0.4870
   21MOL   O82718867   1.951   4.213   5.061  0.0494  0.0925 -0.0890
   21MOL   C82818868   2.034   4.253   4.959  0.4919  0.5483 -0.0586
   21MOL   C82918869   2.017   4.377   4.892  0.4708  0.0410  0.2394
   21MOL   C83018870   2.103   4.403   4.780 -0.4496 -0.0668  0.0341
   21MOL   C83118871   2.198   4.305   4.737 -0.1741 -0.3950 -0.5928
   21MOL   C83218872   2.212   4.187   4.809  0.1362 -0.2758  0.0839
   21MOL   C83318873   2.128   4.161   4.915 -0.2034 -0.1492  0.5591
   21MOL   C83418874   2.296   4.341   4.627  0.1207 -0.6040 -0.0847
   21MOL   C83518875   2.356   4.243   4.547 -0.3659  0.3973  0.2258
   21MOL   C83618876   2.447   4.279   4.449  1.1193  0.0581  0.5845
   21MOL   C83718877   2.492   4.411   4.440  0.4344  0.3276 -0.5294
   21MOL   C83818878   2.436   4.510   4.515  0.0681 -0.0878 -1.2152
   21MOL   C83918879   2.334   4.476   4.607 -0.4387  0.4957  0.1645
   21MOL   O84018880   2.582   4.443   4.339 -0.0536 -0.3617  0.4161
   21MOL   H84118881   1.630   4.587   5.781  1.2166 -0.6824 -0.3473
   21MOL   H84218882   1.585   4.447   5.575  1.0274 -0.0622  0.1514
   21MOL   H84318883   1.565   4.802   5.340  1.2038  2.5203  1.0656
   21MOL   H84418884   1.661   4.933   5.533  1.9256 -0.5858  0.5982
   21MOL   H84518885   1.793   4.549   5.331  2.8298  0.6969 -2.5316
   21MOL   H84618886   1.980   4.408   5.247  1.2624 -1.3463 -0.2643
   21MOL   H84718887   1.692   4.181   5.008 -0.1398  0.2241 -1.2572
   21MOL   H84818888   1.512   4.328   5.097 -0.4358  0.0161  2.3070
   21MOL   H84918889   1.933   4.440   4.920  1.1586  0.3663  1.6178
   21MOL   H85018890   2.099   4.499   4.730 -0.4278 -0.1861 -0.1953
   21MOL   H85118891   2.291   4.120   4.778  1.5680  1.8458 -1.0143
   21MOL   H85218892   2.154   4.068   4.964  4.7034 -0.3023 -1.9599
   21MOL   H85318893   2.318   4.143   4.562  0.3208 -0.0132 -0.6967
   21MOL   H85418894   2.481   4.203   4.380  3.4070  1.1498  0.4757
   21MOL   H85518895   2.462   4.610   4.485 -1.3225  0.8470  0.5954
   21MOL   H85618896   2.288   4.556   4.663 -0.0896  0.1507  0.9552
   21MOL   C85718897   2.542   4.507   4.223 -0.6006  0.3169 -0.0633
   21MOL   C85818898   2.633   4.599   4.161 -0.3951 -0.1007  0.8890
   21MOL   C85918899   2.591   4.665   4.043 -0.6553  0.1742 -0.1876
   21MOL   C86018900   2.470   4.628   3.982 -0.0563 -0.2563 -0.1374
   21MOL   C86118901   2.380   4.548   4.053 -0.1408  0.2613  0.0261
   21MOL   C86218902   2.416   4.484   4.168 -0.6044  0.4554 -0.0851
   21MOL   S86318903   2.422   4.698   3.827 -0.1829  0.4078 -0.3236
   21MOL   O86418904   2.519   4.656   3.717 -0.1961 -0.2179  0.2661
   21MOL   O86518905   2.392   4.839   3.850 -0.9483 -0.1467 -0.0351
   21MOL   C86618906   2.265   4.623   3.778 -0.1910  1.1917 -0.9324
   21MOL   C86718907   2.265   4.498   3.703  0.2218 -0.4794  0.0006
   21MOL   C86818908   2.144   4.431   3.681  0.9914 -0.0796  0.2716
   21MOL   C86918909   2.026   4.482   3.730  0.1312 -0.0807  0.4324
   21MOL   C87018910   2.019   4.603   3.799 -0.4140  0.2187 -0.3233
   21MOL   C87118911   2.141   4.672   3.823 -0.6238  0.0251 -0.0548
   21MOL   O87218912   1.912   4.406   3.725  0.1905  0.0319 -0.3467
   21MOL   C87318913   1.879   4.341   3.609  0.0049  0.3046  0.5256
   21MOL   C87418914   1.854   4.203   3.606  0.5922 -0.1225  0.3346
   21MOL   C87518915   1.825   4.138   3.488  0.6119 -0.2319 -0.9219
   21MOL   C87618916   1.799   4.210   3.367 -0.1790  0.3554  0.5757
   21MOL   C87718917   1.819   4.348   3.369 -0.1368  0.2801 -0.1819
   21MOL   C87818918   1.872   4.414   3.486  0.6208  0.5165  0.8063
   21MOL   C87918919   1.756   4.130   3.255 -0.1264 -0.6691 -0.8292
   21MOL   C88018920   1.672   4.021   3.267 -0.0910  0.5148  0.1477
   21MOL   C88118921   1.629   3.942   3.160  0.9960 -0.0020 -0.0588
   21MOL   C88218922   1.687   3.965   3.033 -0.8775 -0.1636 -0.7361
   21MOL   C88318923   1.784   4.070   3.015  0.1127 -0.1066  0.0858
   21MOL   C88418924   1.812   4.151   3.129 -0.3316  0.0241 -0.0688
   21MOL   O88518925   1.653   3.887   2.928 -0.2703 -0.3665  0.5059
   21MOL   H88618926   2.725   4.619   4.214  2.0151 -1.2397 -2.6931
   21MOL   H88718927   2.649   4.735   3.986 -1.3346  2.0213  1.3366
   21MOL   H88818928   2.281   4.528   4.014  0.3498 -0.2875 -0.9649
   21MOL   H88918929   2.349   4.415   4.217 -0.7950  0.7623  0.0864
   21MOL   H89018930   2.359   4.452   3.678  0.0449 -1.3706  0.9629
   21MOL   H89118931   2.162   4.337   3.632  3.5866  0.5802 -0.0800
   21MOL   H89218932   1.923   4.634   3.839  0.3152  2.1837 -0.0238
   21MOL   H89318933   2.125   4.765   3.875  0.0394 -0.5430  1.1828
   21MOL   H89418934   1.862   4.142   3.696  0.0485  2.3175  2.0917
   21MOL   H89518935   1.817   4.033   3.511  1.5081  0.3925  2.5541
   21MOL   H89618936   1.798   4.396   3.275  2.4149  0.6355 -0.5943
   21MOL   H89718937   1.888   4.520   3.497 -0.8661  0.7513  0.8898
   21MOL   H89818938   1.623   3.991   3.358 -1.4383 -2.7450 -1.5896
   21MOL   H89918939   1.566   3.856   3.176  2.9899 -2.0398 -2.7244
   21MOL   H90018940   1.837   4.074   2.921 -1.3365 -0.1363 -0.7461
   21MOL   H90118941   1.887   4.227   3.114 -0.8945  0.2774 -1.6880
   21MOL   H90218942   1.679   3.912   2.840 -1.8031  0.5343  0.2768
   22MOL     C118943   5.634   7.589   0.428  0.9708 -0.1923 -0.0589
   22MOL     C218944   5.572   7.677   0.523  0.5459 -0.2306  0.2888
   22MOL     C318945   5.608   7.817   0.524  0.1397  0.7279  0.6213
   22MOL     C418946   5.694   7.865   0.424 -0.3673  0.3241  0.1341
   22MOL     C518947   5.751   7.780   0.330  0.2959 -0.2029 -0.4077
   22MOL     C618948   5.723   7.643   0.333 -0.2864  0.2326 -0.0892
   22MOL     S718949   5.756   8.029   0.436 -0.2595  0.3797  0.0863
   22MOL     O818950   5.763   8.086   0.298 -0.1410  0.1353 -0.0912
   22MOL     O918951   5.882   8.021   0.517 -0.3023 -0.4624 -0.1731
   22MOL    C1018952   5.640   8.117   0.537  0.3874  0.0465  0.6680
   22MOL    C1118953   5.675   8.161   0.666  0.3062 -0.6527  0.0175
   22MOL    C1218954   5.589   8.237   0.746  0.0135  0.6630 -0.9860
   22MOL    C1318955   5.466   8.278   0.693  0.4176  0.7222  0.3725
   22MOL    C1418956   5.432   8.245   0.559  0.2576  0.0306  0.0699
   22MOL    C1518957   5.519   8.168   0.478  0.3540 -0.0504 -0.0445
   22MOL    O1618958   5.374   8.347   0.772 -0.5747 -0.3799 -0.0997
   22MOL    C1718959   5.359   0.116   0.755  0.0469 -0.6010 -0.6694
   22MOL    C1818960   5.229   0.158   0.716 -0.0478 -0.2600  0.2965
   22MOL    C1918961   5.191   0.292   0.716 -0.3091 -1.2954 -0.4595
   22MOL    C2018962   5.282   0.392   0.756  0.3757  0.1072 -0.4264
   22MOL    C2118963   5.411   0.351   0.798 -0.2995  0.7515 -0.2058
   22MOL    C2218964   5.443   0.214   0.806  0.0124 -0.4791  0.4056
   22MOL    C2318965   5.245   0.535   0.743  0.2012 -0.0516  0.0622
   22MOL    C2418966   5.117   0.575   0.715  0.1958 -0.3847  0.4667
   22MOL    C2518967   5.080   0.714   0.700 -0.1415 -0.2393 -0.4252
   22MOL    C2618968   5.187   0.814   0.695  0.0855  0.1119  0.0644
   22MOL    C2718969   5.321   0.768   0.723  0.4202 -0.5480  0.2673
   22MOL    C2818970   5.348   0.635   0.741  0.2535 -0.5357 -0.1812
   22MOL    O2918971   5.151   0.941   0.671  0.2419 -0.8422  0.6505
   22MOL    H3018972   5.508   7.636   0.600 -1.2767  2.6618  0.4021
   22MOL    H3118973   5.577   7.889   0.598  0.6932 -0.1188  1.6978
   22MOL    H3218974   5.834   7.821   0.275 -0.4766 -0.6875 -1.9628
   22MOL    H3318975   5.777   7.577   0.268 -0.3773  1.9248 -1.9455
   22MOL    H3418976   5.772   8.133   0.704 -0.2894  0.2599  2.2646
   22MOL    H3518977   5.615   8.270   0.846 -0.4050  3.0875 -1.6626
   22MOL    H3618978   5.342   8.285   0.514  1.3648  0.5702 -1.7106
   22MOL    H3718979   5.484   8.152   0.377 -0.7942  2.2327 -0.0308
   22MOL    H3818980   5.161   0.084   0.676 -0.0069  0.7688 -1.7532
   22MOL    H3918981   5.093   0.317   0.677  0.2642  2.1162  0.0908
   22MOL    H4018982   5.481   0.418   0.846 -1.4441  1.5626  0.3390
   22MOL    H4118983   5.536   0.191   0.855  1.5677  0.9370 -1.7865
   22MOL    H4218984   5.037   0.504   0.702  0.8771 -0.8536 -1.3084
   22MOL    H4318985   4.980   0.744   0.673  0.4807  2.3947  0.0256
   22MOL    H4418986   5.398   0.844   0.723 -0.8493  0.8171 -1.9485
   22MOL    H4518987   5.451   0.616   0.768  0.5652  2.0630  0.5794
   22MOL    H4618988   5.611   7.484   0.423  1.5265 -0.2905 -0.5911
   22MOL    C4718989   5.106   1.021   0.770 -0.0985  0.2348 -0.4127
   22MOL    C4818990   5.169   1.022   0.901  0.1905 -0.0913 -0.2392
   22MOL    C4918991   5.113   1.100   1.007 -0.4190 -0.1495 -0.0918
   22MOL    C5018992   5.020   1.197   0.977 -0.0166 -0.1921 -0.0833
   22MOL    C5118993   4.968   1.213   0.847  0.3661  0.2267  0.2446
   22MOL    C5218994   5.002   1.115   0.749  0.2640  0.7363 -0.7776
   22MOL    S5318995   4.968   1.314   1.102 -0.2584 -0.1080  0.7850
   22MOL    O5418996   4.996   1.251   1.232 -0.2051 -0.5330 -0.4359
   22MOL    O5518997   4.833   1.353   1.064  0.0636  0.7285  0.3483
   22MOL    C5618998   5.090   1.442   1.072 -0.3779  0.9341 -0.6511
   22MOL    C5718999   5.225   1.430   1.118 -0.2437  0.5039 -0.2884
   22MOL    C5819000   5.316   1.538   1.096 -1.2245 -0.5413 -0.3825
   22MOL    C5919001   5.279   1.649   1.016 -0.3569 -0.4870  0.5856
   22MOL    C6019002   5.149   1.657   0.960 -0.0689 -0.1605 -0.2208
   22MOL    C6119003   5.054   1.554   0.998 -0.1881 -0.0231  1.1185
   22MOL    O6219004   5.356   1.760   0.991 -0.1214 -0.2170  0.0199
   22MOL    C6319005   5.485   1.741   0.939 -0.1016 -0.8983  0.6050
   22MOL    C6419006   5.601   1.748   1.019  0.5986  0.6829 -0.3242
   22MOL    C6519007   5.729   1.740   0.956  0.5294 -0.4081  0.4215
   22MOL    C6619008   5.742   1.717   0.820  0.6289  0.2547 -0.0538
   22MOL    C6719009   5.626   1.706   0.744  0.2784 -0.0873  0.4083
   22MOL    C6819010   5.497   1.712   0.799 -0.2736  0.2882 -0.3755
   22MOL    C6919011   5.871   1.686   0.759 -0.2576 -0.3281  0.2422
   22MOL    C7019012   5.980   1.777   0.775 -0.7349 -0.4385  0.3432
   22MOL    C7119013   6.111   1.743   0.737  0.4324  1.0904 -0.6200
   22MOL    C7219014   6.138   1.626   0.668  0.2685  0.2672 -0.2751
   22MOL    C7319015   6.026   1.541   0.643 -0.1308  0.2022  0.0248
   22MOL    C7419016   5.895   1.567   0.695 -0.2353  0.7992  0.1332
   22MOL    O7519017   6.265   1.584   0.621  0.2715 -0.2398  0.3814
   22MOL    H7619018   5.251   0.955   0.920  0.3291  0.0444 -0.3514
   22MOL    H7719019   5.168   1.095   1.100 -1.9432 -3.5685  0.7008
   22MOL    H7819020   4.904   1.295   0.822  0.6959  0.6733  0.8651
   22MOL    H7919021   4.951   1.110   0.653  0.0955 -0.8508 -0.6236
   22MOL    H8019022   5.255   1.345   1.179  1.6773  1.8137  0.6507
   22MOL    H8119023   5.409   1.548   1.150 -1.0424 -3.1876 -0.1276
   22MOL    H8219024   5.115   1.736   0.895  2.1047 -0.8052 -2.2158
   22MOL    H8319025   4.953   1.562   0.960 -0.0758  0.2413  0.8756
   22MOL    H8419026   5.590   1.776   1.122  4.3828 -1.7746  0.8596
   22MOL    H8519027   5.817   1.743   1.018  0.8829  1.0617 -0.1300
   22MOL    H8619028   5.647   1.701   0.638  0.2618  1.6862  0.3082
   22MOL    H8719029   5.406   1.717   0.741 -1.4301  0.1938  1.3727
   22MOL    H8819030   5.976   1.867   0.835 -1.6769 -0.7992  0.8415
   22MOL    H8919031   6.183   1.823   0.749  0.3374  1.1987 -0.7673
   22MOL    H9019032   6.043   1.453   0.582  1.8481  0.3972  0.2410
   22MOL    H9119033   5.811   1.502   0.674 -0.5222  1.1955  0.0545
   22MOL    C9219034   6.308   1.604   0.488  0.8924 -0.3175  0.6839
   22MOL    C9319035   6.425   1.537   0.448  0.0583  0.7068 -0.5833
   22MOL    C9419036   6.476   1.554   0.320  0.3009  0.2173  0.0953
   22MOL    C9519037   6.404   1.623   0.220 -0.3173  0.7687 -0.8101
   22MOL    C9619038   6.282   1.686   0.257  0.2516  0.3882 -0.2250
   22MOL    C9719039   6.244   1.682   0.394  0.7717  0.0469 -0.0336
   22MOL    S9819040   6.459   1.636   0.054  0.4118 -0.8389  0.1957
   22MOL    O9919041   6.351   1.599   8.321  0.6238  0.2239  0.0826
   22MOL   O10019042   6.593   1.569   0.051  0.2133  0.2403 -0.2759
   22MOL   C10119043   6.488   1.811   0.029  0.1493  0.1792 -0.4455
   22MOL   C10219044   6.419   1.871   8.281 -0.0317  0.1337 -0.0917
   22MOL   C10319045   6.418   2.014   8.275 -0.4825 -0.4078  0.4868
   22MOL   C10419046   6.501   2.092   0.001  0.5417  0.1894  0.3717
   22MOL   C10519047   6.576   2.025   0.095 -0.3937  0.4755 -0.1075
   22MOL   C10619048   6.570   1.888   0.111 -0.2500  0.3942 -0.5212
   22MOL   O10719049   6.514   2.225   8.360 -0.1881 -0.5656  0.8807
   22MOL   C10819050   6.433   2.308   0.069  0.2783 -0.0466 -0.1507
   22MOL   C10919051   6.295   2.283   0.107  0.4022  0.0333  0.4147
   22MOL   C11019052   6.223   2.381   0.183  0.4413  0.0233 -0.0273
   22MOL   C11119053   6.281   2.501   0.225 -0.5871 -0.0772 -0.1114
   22MOL   C11219054   6.418   2.513   0.200  0.9575  1.0263  0.2937
   22MOL   C11319055   6.488   2.424   0.116 -0.2137 -0.1033 -0.7787
   22MOL   C11419056   6.204   2.608   0.289  0.1295  0.1930  1.1056
   22MOL   C11519057   6.257   2.686   0.391 -0.2840 -0.0969 -0.1072
   22MOL   C11619058   6.193   2.803   0.431 -0.1014  0.0229  0.1736
   22MOL   C11719059   6.069   2.844   0.377  0.2139 -0.2271 -1.0708
   22MOL   C11819060   6.013   2.757   0.277 -0.5156  0.5585 -0.9208
   22MOL   C11919061   6.080   2.643   0.236 -0.2840 -0.2222 -0.2718
   22MOL   O12019062   6.010   2.960   0.430 -0.6029 -0.0869  0.5592
   22MOL   H12119063   6.482   1.477   0.516  2.8624  3.7941 -0.0913
   22MOL   H12219064   6.572   1.513   0.292 -0.1833 -1.2007  0.5073
   22MOL   H12319065   6.227   1.742   0.183 -0.3648  0.6895  0.4676
   22MOL   H12419066   6.155   1.733   0.427  0.5209 -0.6681  0.4143
   22MOL   H12519067   6.368   1.807   8.211  0.1579 -1.3543  1.0915
   22MOL   H12619068   6.354   2.072   8.210 -0.5520  1.2021  1.9775
   22MOL   H12719069   6.639   2.077   0.166 -0.8605 -0.3282  0.9144
   22MOL   H12819070   6.630   1.841   0.186 -1.2284 -2.5210 -1.4931
   22MOL   H12919071   6.234   2.204   0.064 -1.9055  0.5448  2.6249
   22MOL   H13019072   6.117   2.362   0.189  0.4186  0.4846  1.1109
   22MOL   H13119073   6.468   2.603   0.231 -0.8794  1.7383  1.2924
   22MOL   H13219074   6.591   2.445   0.094  0.2366 -0.1886  1.1600
   22MOL   H13319075   6.341   2.644   0.443  1.5286 -0.5361 -3.2756
   22MOL   H13419076   6.225   2.858   0.518 -1.6786 -0.0957  0.8420
   22MOL   H13519077   5.918   2.777   0.230 -0.9778  0.1959 -0.1637
   22MOL   H13619078   6.025   2.582   0.165 -1.6744 -0.2683  0.8286
   22MOL   C13719079   6.008   2.988   0.564  0.0987 -0.2405 -0.1602
   22MOL   C13819080   5.997   3.128   0.601 -0.3408  0.0032 -0.8487
   22MOL   C13919081   5.991   3.164   0.737  0.5034 -0.5693 -0.0542
   22MOL   C14019082   5.979   3.061   0.832  0.3617  0.1507 -0.3010
   22MOL   C14119083   5.972   2.922   0.798 -0.4337 -0.0653  0.4775
   22MOL   C14219084   5.987   2.889   0.660 -0.4279 -0.3021 -0.2586
   22MOL   S14319085   5.943   3.116   0.998 -0.0030  0.1567 -0.4270
   22MOL   O14419086   5.895   2.998   1.072 -0.0964  0.1183 -0.9315
   22MOL   O14519087   5.860   3.234   0.992  0.6465 -0.0162  0.2834
   22MOL   C14619088   6.101   3.168   1.075 -0.2657  0.2371  0.4832
   22MOL   C14719089   6.108   3.183   1.216  0.3668 -0.1553  0.5971
   22MOL   C14819090   6.229   3.225   1.277 -0.4214  0.5823  0.2341
   22MOL   C14919091   6.335   3.251   1.196 -0.4947  0.2607 -0.0039
   22MOL   C15019092   6.331   3.236   1.057  0.2107 -1.0149 -0.1790
   22MOL   C15119093   6.215   3.192   0.993  0.1121 -0.4244  0.8669
   22MOL   O15219094   6.454   3.282   1.256 -0.1673 -0.2288 -0.0938
   22MOL   C15319095   6.495   3.416   1.239  0.8127  0.0031  0.4202
   22MOL   C15419096   6.623   3.438   1.183 -0.2919 -0.0918 -1.0631
   22MOL   C15519097   6.683   3.563   1.169  0.1503 -0.5108 -0.2743
   22MOL   C15619098   6.607   3.679   1.201 -0.0677 -0.7439  0.0079
   22MOL   C15719099   6.480   3.655   1.259  0.1230 -0.0596  0.8594
   22MOL   C15819100   6.426   3.526   1.281 -0.2411  0.0718 -0.7695
   22MOL   C15919101   6.662   3.816   1.163 -0.9501 -0.5720 -0.3198
   22MOL   C16019102   6.802   3.844   1.187  0.1201 -0.5962  0.4179
   22MOL   C16119103   6.852   3.971   1.148 -0.0661  0.5583  0.0135
   22MOL   C16219104   6.765   4.073   1.101  0.4414 -0.1273 -0.9738
   22MOL   C16319105   6.628   4.041   1.082 -0.9693  0.2721 -0.8735
   22MOL   C16419106   6.578   3.916   1.109  0.0237 -0.1684 -0.7961
   22MOL   O16519107   6.812   4.194   1.067 -0.6180 -0.0642 -0.5610
   22MOL   H16619108   5.996   3.201   0.521  2.2388  0.7407 -0.2612
   22MOL   H16719109   5.991   3.271   0.755  1.9630 -0.3300 -1.4137
   22MOL   H16819110   5.950   2.848   0.875  1.6321 -0.9402  0.2517
   22MOL   H16919111   5.976   2.785   0.636  0.3235 -0.9110  1.9492
   22MOL   H17019112   6.017   3.163   1.271  0.7446 -0.1826  1.2124
   22MOL   H17119113   6.232   3.222   1.385 -0.3256 -0.5775  0.2005
   22MOL   H17219114   6.420   3.261   1.000 -1.3822  0.4235 -2.1006
   22MOL   H17319115   6.224   3.171   0.888 -0.2901 -0.5942  0.8674
   22MOL   H17419116   6.691   3.354   1.174 -1.1269 -0.9369  0.3070
   22MOL   H17519117   6.781   3.562   1.123  0.2015  2.1957 -0.3217
   22MOL   H17619118   6.415   3.736   1.286  0.7327  1.3303 -1.7031
   22MOL   H17719119   6.331   3.512   1.329 -0.5615  2.5197 -0.6513
   22MOL   H17819120   6.869   3.766   1.221  1.4868  0.6764  0.7163
   22MOL   H17919121   6.953   3.995   1.178  0.2737 -1.6428  0.7461
   22MOL   H18019122   6.561   4.121   1.052 -1.0241  0.0975 -1.2282
   22MOL   H18119123   6.471   3.909   1.099 -0.2576  0.5447  1.6306
   22MOL   C18219124   6.897   4.263   1.152  0.1229  0.9672 -0.9901
   22MOL   C18319125   7.039   4.285   1.127 -0.2042 -0.2132 -0.3871
   22MOL   C18419126   7.119   4.364   1.216  0.8409 -0.0391 -0.1821
   22MOL   C18519127   7.056   4.410   1.334  0.5379 -0.5347  0.0208
   22MOL   C18619128   6.922   4.380   1.367  0.2073  0.1718  0.8834
   22MOL   C18719129   6.848   4.305   1.277 -0.9771  0.2776  0.4819
   22MOL   S18819130   7.166   4.501   1.447 -0.1866  0.2782 -0.0742
   22MOL   O18919131   7.086   4.551   1.560 -0.5718 -0.3004  0.6533
   22MOL   O19019132   7.247   4.594   1.363 -0.1692 -0.2194 -0.2625
   22MOL   C19119133   7.268   4.367   1.515 -0.6918 -0.3465 -0.2678
   22MOL   C19219134   7.216   4.286   1.620 -0.3279  0.7707 -0.1628
   22MOL   C19319135   7.287   4.175   1.659  0.4977  0.1094  0.9062
   22MOL   C19419136   7.415   4.151   1.606  0.0476 -0.0191 -0.0189
   22MOL   C19519137   7.472   4.237   1.510  0.3156 -1.6563 -0.0410
   22MOL   C19619138   7.396   4.348   1.461  0.0037  0.1474 -0.4862
   22MOL   O19719139   7.478   4.029   1.634 -0.5990  0.4011  0.2176
   22MOL   C19819140   7.563   4.015   1.740 -0.0385  0.0882 -1.2270
   22MOL   C19919141   7.663   4.102   1.777 -0.4520  0.5855 -0.4952
   22MOL   C20019142   7.750   4.077   1.884 -0.0421  0.5910 -0.6368
   22MOL   C20119143   7.732   3.962   1.966  0.6965 -0.0602 -0.3576
   22MOL   C20219144   7.622   3.876   1.938 -1.0333  0.5879 -0.0631
   22MOL   C20319145   7.546   3.898   1.824 -0.6183 -0.6942  0.1187
   22MOL   C20419146   7.825   3.925   2.071 -0.5264 -0.5512  0.8207
   22MOL   C20519147   7.791   3.870   2.192  0.9992 -0.8741  0.0551
   22MOL   C20619148   7.886   3.816   2.280  0.2897 -0.0096  0.5897
   22MOL   C20719149   8.023   3.830   2.258 -0.1457 -0.2187  0.2633
   22MOL   C20819150   8.064   3.893   2.148 -0.0486 -0.3288  0.0667
   22MOL   C20919151   7.964   3.938   2.053 -0.2249  0.1530 -0.0121
   22MOL   O21019152   8.114   3.783   2.350  0.0110 -0.4929 -0.2660
   22MOL   H21119153   7.088   4.245   1.040  1.9047 -0.9461  1.1176
   22MOL   H21219154   7.224   4.384   1.201  0.7222 -0.5291 -1.7740
   22MOL   H21319155   6.889   4.413   1.464  1.4441  0.7682  1.1152
   22MOL   H21419156   6.745   4.277   1.295 -0.1556 -3.0332  0.2375
   22MOL   H21519157   7.115   4.305   1.654 -0.8901  1.6688 -2.2243
   22MOL   H21619158   7.242   4.105   1.728  0.4545 -1.0104 -0.2415
   22MOL   H21719159   7.569   4.226   1.463 -0.8659 -2.9760 -2.2712
   22MOL   H21819160   7.434   4.410   1.381  1.1554 -0.4747 -0.4357
   22MOL   H21919161   7.680   4.186   1.712  0.9781 -0.3521 -1.3640
   22MOL   H22019162   7.834   4.145   1.891  0.7791 -0.4048 -0.8120
   22MOL   H22119163   7.604   3.792   2.003 -0.5333  0.1925 -0.4311
   22MOL   H22219164   7.453   3.845   1.827 -1.6503  1.0844  0.3412
   22MOL   H22319165   7.686   3.859   2.217  0.7653  2.4358  0.7598
   22MOL   H22419166   7.857   3.764   2.370 -1.4177 -0.0526  0.0340
   22MOL   H22519167   8.170   3.910   2.131  0.1902 -0.1199  1.7227
   22MOL   H22619168   7.997   3.986   1.961 -0.0901  0.3275  0.1272
   22MOL   C22719169   8.084   3.797   2.482  0.2743 -0.8595 -0.4921
   22MOL   C22819170   8.027   3.918   2.527 -0.4974 -1.0869 -0.1322
   22MOL   C22919171   7.988   3.935   2.664 -0.7412 -0.2911 -0.1141
   22MOL   C23019172   8.022   3.832   2.752 -0.4008  0.8789 -0.3629
   22MOL   C23119173   8.084   3.710   2.708  0.5019  0.6056  0.5592
   22MOL   C23219174   8.116   3.699   2.575  0.6423 -0.1716  0.3314
   22MOL   S23319175   7.996   3.835   2.930 -0.0825 -0.2864  0.0613
   22MOL   O23419176   8.120   3.794   2.991 -0.6801  0.6039  0.0845
   22MOL   O23519177   7.878   3.756   2.962  0.2825  0.6736 -0.1393
   22MOL   C23619178   7.961   4.006   2.980  0.1749 -0.3268  0.1653
   22MOL   C23719179   8.053   4.111   2.951  0.3533 -0.2295 -0.1218
   22MOL   C23819180   8.019   4.241   2.992  0.5892 -0.0539 -0.2678
   22MOL   C23919181   7.898   4.262   3.058  0.0235 -0.3553 -0.5842
   22MOL   C24019182   7.808   4.160   3.092 -0.4931 -0.0924  0.9942
   22MOL   C24119183   7.842   4.033   3.045  0.3099 -0.3542  0.0202
   22MOL   O24219184   7.867   4.394   3.097 -0.3762  0.0300  0.1859
   22MOL   C24319185   7.928   4.450   3.208  0.8075  0.3176 -0.5421
   22MOL   C24419186   8.032   4.390   3.279 -0.9488 -0.2445  0.9463
   22MOL   C24519187   8.096   4.459   3.381 -0.0495 -0.5856  0.6807
   22MOL   C24619188   8.044   4.580   3.426 -0.3793 -0.0927 -0.8089
   22MOL   C24719189   7.938   4.639   3.359 -0.9360  0.1544  0.7449
   22MOL   C24819190   7.879   4.576   3.249 -0.0024  0.9052  0.5675
   22MOL   C24919191   8.089   4.643   3.546 -0.4044 -0.4154 -0.1467
   22MOL   C25019192   8.090   4.567   3.667 -0.2881 -0.0246  0.3046
   22MOL   C25119193   8.163   4.615   3.777 -0.6380 -0.1878 -0.2820
   22MOL   C25219194   8.205   4.746   3.786  0.4053 -0.5236 -0.9055
   22MOL   C25319195   8.190   4.828   3.672 -0.6114  0.1429  0.2401
   22MOL   C25419196   8.137   4.773   3.552 -0.4044 -0.1830  0.1003
   22MOL   O25519197   8.263   4.784   3.904  0.0805 -0.4032 -0.0986
   22MOL   H25619198   8.011   3.995   2.453 -0.1205 -1.5861 -0.7445
   22MOL   H25719199   7.944   4.032   2.680  0.3206  0.0731  0.6459
   22MOL   H25819200   8.099   3.626   2.773 -1.7886  0.8921  1.5083
   22MOL   H25919201   8.166   3.611   2.538  0.5408 -0.5332  1.0346
   22MOL   H26019202   8.145   4.085   2.900 -0.4454 -0.4590 -1.4820
   22MOL   H26119203   8.086   4.323   2.969 -0.6469  1.4855  1.5036
   22MOL   H26219204   7.722   4.184   3.153 -2.3405 -0.4513 -1.3799
   22MOL   H26319205   7.779   3.948   3.070 -1.4967  0.4471 -1.6768
   22MOL   H26419206   8.061   4.290   3.250 -1.7143 -0.0238 -0.6075
   22MOL   H26519207   8.183   4.425   3.434  0.3985 -0.5191 -0.0131
   22MOL   H26619208   7.893   4.731   3.395 -0.6614  1.1745 -1.4451
   22MOL   H26719209   7.794   4.607   3.190 -1.7914  2.3392  3.7821
   22MOL   H26819210   8.051   4.467   3.682  0.1464  0.0806  2.2810
   22MOL   H26919211   8.174   4.553   3.865  2.2486 -0.9012 -1.0984
   22MOL   H27019212   8.209   4.934   3.677 -0.8364  0.1660  0.6379
   22MOL   H27119213   8.127   4.825   3.458  0.7941 -1.8579 -0.9873
   22MOL   C27219214   0.033   4.768   3.917 -0.3379 -0.8248 -0.3976
   22MOL   C27319215   0.072   4.648   3.972 -0.3035  0.1627  0.1325
   22MOL   C27419216   0.208   4.633   4.010  0.0851 -0.0067 -0.0207
   22MOL   C27519217   0.301   4.734   3.976 -0.6614  0.1134 -0.5858
   22MOL   C27619218   0.262   4.864   3.928  0.9725 -0.2956 -0.1660
   22MOL   C27719219   0.120   4.879   3.902 -0.6741 -0.1360  0.4700
   22MOL   S27819220   0.480   4.712   4.004 -0.0231 -0.1158 -0.3639
   22MOL   O27919221   0.495   4.647   4.133  0.4577 -0.4889 -0.2730
   22MOL   O28019222   0.543   4.844   3.982  0.3398  0.1522  0.2801
   22MOL   C28119223   0.535   4.600   3.891 -0.5300  1.0628 -0.3633
   22MOL   C28219224   0.670   4.605   3.845 -0.1749  0.0776 -0.0490
   22MOL   C28319225   0.706   4.516   3.742  0.4320 -0.0887  1.1021
   22MOL   C28419226   0.631   4.408   3.705  0.2365  0.8203  0.1680
   22MOL   C28519227   0.494   4.403   3.749 -0.3545  0.3384  0.8985
   22MOL   C28619228   0.450   4.493   3.847 -0.3199 -0.8039 -0.7584
   22MOL   O28719229   0.687   4.323   3.605 -0.2935  0.0833 -0.4981
   22MOL   C28819230   0.646   4.195   3.609  0.0366 -0.3978 -0.2032
   22MOL   C28919231   0.533   4.157   3.536  1.2091  0.3551 -0.0109
   22MOL   C29019232   0.501   4.021   3.530 -0.2133 -0.0106  0.3679
   22MOL   C29119233   0.583   3.925   3.592 -0.7109 -0.1875 -0.1818
   22MOL   C29219234   0.700   3.964   3.669  0.3685  0.1993 -0.1634
   22MOL   C29319235   0.719   4.104   3.680  0.1760  0.1468  0.1080
   22MOL   C29419236   0.560   3.779   3.593  0.4666 -0.4131 -0.4732
   22MOL   C29519237   0.549   3.707   3.475 -0.2210 -0.5083  0.3661
   22MOL   C29619238   0.514   3.571   3.479  0.0182  0.3033 -0.4016
   22MOL   C29719239   0.491   3.509   3.605  0.0751 -0.7941 -0.5167
   22MOL   C29819240   0.500   3.581   3.725  0.2194  0.4269 -0.4362
   22MOL   C29919241   0.530   3.718   3.719  0.2278 -0.3523 -0.2335
   22MOL   O30019242   0.468   3.378   3.607 -0.2502  0.4819  0.8931
   22MOL   H30119243   0.000   4.567   3.974  0.2644 -0.3619 -0.2845
   22MOL   H30219244   0.238   4.538   4.051  1.3548  0.4679  0.1704
   22MOL   H30319245   0.337   4.941   3.918  0.7049 -0.2125 -1.5910
   22MOL   H30419246   0.082   4.977   3.878 -1.5268 -0.4193  0.6330
   22MOL   H30519247   0.742   4.678   3.878 -0.1055 -0.2540  0.5372
   22MOL   H30619248   0.805   4.514   3.699 -0.7890  1.4141 -1.9312
   22MOL   H30719249   0.423   4.328   3.719 -0.1173  0.3345  0.3249
   22MOL   H30819250   0.353   4.475   3.892 -0.1093  0.8200  0.3809
   22MOL   H30919251   0.483   4.230   3.473 -0.4281 -0.7023  0.0212
   22MOL   H31019252   0.410   3.985   3.483  1.9919 -5.1460 -0.2858
   22MOL   H31119253   0.770   3.899   3.719 -1.5132 -0.9658  0.9891
   22MOL   H31219254   0.806   4.133   3.736  0.7265  0.8659 -1.1035
   22MOL   H31319255   0.577   3.745   3.378  2.4686  1.0597  1.7037
   22MOL   H31419256   0.505   3.510   3.390  0.8223 -1.4819  0.7143
   22MOL   H31519257   0.485   3.534   3.821  0.5625  1.0592 -0.0684
   22MOL   H31619258   0.534   3.781   3.806 -0.9280 -2.2126  1.2107
   22MOL   C31719259   0.572   3.289   3.620 -0.0672 -0.1712  0.0868
   22MOL   C31819260   0.591   3.222   3.744  0.0422  0.3253 -0.8026
   22MOL   C31919261   0.696   3.130   3.765  0.0797  0.4154  0.8498
   22MOL   C32019262   0.788   3.104   3.657  0.3093 -0.1834  0.0450
   22MOL   C32119263   0.773   3.165   3.530 -0.2828 -0.6391  0.2436
   22MOL   C32219264   0.663   3.255   3.512  0.1981 -0.4995 -0.4114
   22MOL   S32319265   0.923   2.984   3.668  0.1655 -0.5227  0.1744
   22MOL   O32419266   1.024   3.042   3.760 -0.3447  0.3553  0.0666
   22MOL   O32519267   0.954   2.937   3.534 -0.4838 -0.8087 -0.2737
   22MOL   C32619268   0.853   2.844   3.758  0.0308  0.0553 -0.2034
   22MOL   C32719269   0.935   2.764   3.844 -0.2169 -0.0233  0.1101
   22MOL   C32819270   0.881   2.657   3.907  0.5087  0.0425 -0.1739
   22MOL   C32919271   0.745   2.625   3.895 -0.6063 -0.0822 -0.2301
   22MOL   C33019272   0.662   2.704   3.813 -0.3734 -0.0587 -0.0314
   22MOL   C33119273   0.714   2.811   3.741  0.1612 -0.2554  0.5605
   22MOL   O33219274   0.695   2.525   3.970  0.8285 -0.6042 -0.5584
   22MOL   C33319275   0.636   2.426   3.899  0.3753  0.0864  0.3877
   22MOL   C33419276   0.699   2.323   3.830  0.3534  0.0043  0.5785
   22MOL   C33519277   0.625   2.225   3.768  0.1929 -0.1796 -0.6290
   22MOL   C33619278   0.486   2.222   3.769  0.1314 -0.2363 -0.1496
   22MOL   C33719279   0.418   2.334   3.832  0.1656 -0.5114 -0.0837
   22MOL   C33819280   0.497   2.430   3.905  0.3625  0.5164 -0.2750
   22MOL   C33919281   0.404   2.122   3.694  0.7864 -0.5001  0.1216
   22MOL   C34019282   0.269   2.131   3.694  0.1312 -0.2307 -0.5464
   22MOL   C34119283   0.199   2.045   3.612  0.4517 -0.1488  0.6188
   22MOL   C34219284   0.258   1.968   3.511 -0.7017 -0.6502 -0.5571
   22MOL   C34319285   0.401   1.959   3.512 -0.4840  0.0413 -0.2800
   22MOL   C34419286   0.472   2.028   3.613 -0.3118 -0.4122 -0.5120
   22MOL   O34519287   0.173   1.894   3.434  0.5409  0.2824  0.0911
   22MOL   H34619288   0.527   3.247   3.827 -1.3161  0.0100 -1.7507
   22MOL   H34719289   0.700   3.068   3.853 -1.7366  0.2170  0.8200
   22MOL   H34819290   0.849   3.153   3.455  1.0157  2.0449  1.0610
   22MOL   H34919291   0.655   3.305   3.416 -1.1937  1.1106  0.5106
   22MOL   H35019292   1.041   2.783   3.838 -0.4054  1.7633  1.8277
   22MOL   H35119293   0.950   2.588   3.954  0.6196 -0.4653 -1.0672
   22MOL   H35219294   0.560   2.679   3.791 -0.4290 -1.0902  1.3385
   22MOL   H35319295   0.655   2.874   3.676 -0.1318 -1.1362 -0.0382
   22MOL   H35419296   0.805   2.302   3.835  0.5725  0.6740 -0.9996
   22MOL   H35519297   0.687   2.158   3.711 -1.2057 -1.3128 -0.8431
   22MOL   H35619298   0.312   2.351   3.830  0.7623  3.6083 -2.0313
   22MOL   H35719299   0.438   2.499   3.963  0.9063  0.6867  0.0724
   22MOL   H35819300   0.199   2.192   3.749  0.4778  1.7713 -2.2413
   22MOL   H35919301   0.091   2.044   3.610  0.4518 -0.4754  0.7473
   22MOL   H36019302   0.450   1.888   3.447 -1.5121 -2.4748  1.5701
   22MOL   H36119303   0.580   2.026   3.616 -0.3739 -1.2678  2.3076
   22MOL   C36219304   0.164   1.755   3.457 -0.8470  0.4772 -0.6766
   22MOL   C36319305   0.162   1.704   3.586  0.2929 -0.2848 -0.5237
   22MOL   C36419306   0.148   1.566   3.606 -0.0188 -0.6427 -0.3908
   22MOL   C36519307   0.145   1.472   3.498  0.0382 -0.2230 -0.5967
   22MOL   C36619308   0.156   1.528   3.371  0.2818 -0.8057  0.4693
   22MOL   C36719309   0.159   1.663   3.349  0.3770  1.0220 -0.4896
   22MOL   S36819310   0.161   1.293   3.527 -0.0143  0.1610  0.1905
   22MOL   O36919311   0.289   1.266   3.592  0.2842 -0.4482  0.3398
   22MOL   O37019312   0.133   1.223   3.399  0.9601  0.0114  0.0517
   22MOL   C37119313   0.022   1.244   3.642  0.1664 -0.0719 -0.3213
   22MOL   C37219314   0.044   1.134   3.723  0.3488  0.3796  0.3314
   22MOL   C37319315   8.310   1.101   3.818  0.8773 -0.2528  0.1001
   22MOL   C37419316   8.192   1.177   3.837 -0.2475  0.4153 -0.2673
   22MOL   C37519317   8.174   1.291   3.753  0.7113  0.5952  0.1853
   22MOL   C37619318   8.275   1.322   3.664  0.1642 -0.2993  0.8912
   22MOL   O37719319   8.097   1.135   3.925  0.2572  0.6193 -0.4777
   22MOL   C37819320   7.964   1.132   3.898 -0.2631  0.5219  0.1398
   22MOL   C37919321   7.873   1.162   3.997  0.2628  0.0204 -0.4589
   22MOL   C38019322   7.734   1.149   3.979 -1.0695 -0.1449  0.1423
   22MOL   C38119323   7.684   1.104   3.857  0.1029  0.4329  0.1175
   22MOL   C38219324   7.779   1.067   3.756 -0.0397 -0.7053  0.4681
   22MOL   C38319325   7.917   1.076   3.777  0.3308  1.3285  0.8247
   22MOL   C38419326   7.540   1.083   3.842  0.2851  0.2501 -0.4249
   22MOL   C38519327   7.439   1.165   3.895  0.0745  0.0807  0.5398
   22MOL   C38619328   7.307   1.128   3.872 -0.0258  0.1174 -0.1561
   22MOL   C38719329   7.268   1.017   3.798 -0.9744  0.0827 -0.1997
   22MOL   C38819330   7.378   0.941   3.746  0.7769  0.6406 -0.0792
   22MOL   C38919331   7.508   0.973   3.769  0.1084 -0.3880 -0.0526
   22MOL   O39019332   7.137   1.000   3.768  0.2186  0.1530  0.3673
   22MOL   H39119333   0.156   1.772   3.670 -1.8036 -1.1467  0.0658
   22MOL   H39219334   0.152   1.530   3.708 -0.8584  1.7384  0.5021
   22MOL   H39319335   0.154   1.465   3.283  2.1896  0.8493 -0.8023
   22MOL   H39419336   0.157   1.695   3.246 -0.6654 -0.2011 -0.8659
   22MOL   H39519337   0.125   1.071   3.686  0.3985 -0.0479  1.1528
   22MOL   H39619338   8.306   1.009   3.875  0.0732 -1.3197 -1.6661
   22MOL   H39719339   8.081   1.345   3.758 -0.5811 -1.6858  1.7836
   22MOL   H39819340   8.267   1.403   3.592  0.6598 -0.6713  0.4088
   22MOL   H39919341   7.902   1.209   4.090  1.3499 -1.2956 -0.1230
   22MOL   H40019342   7.671   1.154   4.067  0.1827 -0.1173  1.0495
   22MOL   H40119343   7.741   1.027   3.663 -0.2335 -1.3704  0.8247
   22MOL   H40219344   7.991   1.037   3.709  1.7543  4.3539  0.5778
   22MOL   H40319345   7.471   1.250   3.953 -0.6613 -1.3350  3.1064
   22MOL   H40419346   7.220   1.174   3.916  0.4927  1.8041 -0.8583
   22MOL   H40519347   7.362   0.850   3.691  2.4079 -0.2706  0.9212
   22MOL   H40619348   7.583   0.906   3.729  2.9625  1.9079  1.2723
   22MOL   C40719349   7.088   0.873   3.753 -0.1837  0.1329  0.1455
   22MOL   C40819350   7.001   0.839   3.644 -0.8490 -0.5435  0.0300
   22MOL   C40919351   6.937   0.714   3.646 -0.1722 -0.8300  0.4407
   22MOL   C41019352   6.978   0.617   3.740 -0.3278 -0.0163 -0.6666
   22MOL   C41119353   7.068   0.648   3.851 -0.4685  1.4172 -0.9165
   22MOL   C41219354   7.117   0.776   3.853  0.2838 -0.3377 -0.0723
   22MOL   S41319355   6.893   0.461   3.746 -0.0228  0.1344  0.3221
   22MOL   O41419356   6.979   0.363   3.816 -0.6388 -0.2458  0.2638
   22MOL   O41519357   6.847   0.433   3.608 -0.3004 -0.2434  0.2451
   22MOL   C41619358   6.752   0.494   3.852  0.0836 -0.5496  0.4280
   22MOL   C41719359   6.751   0.441   3.981 -0.1459 -0.4555  0.4993
   22MOL   C41819360   6.628   0.454   4.057  0.2047  0.3449  0.3357
   22MOL   C41919361   6.518   0.523   4.001 -1.1610 -0.0312  0.5891
   22MOL   C42019362   6.532   0.583   3.877 -0.4196  0.6206  0.1924
   22MOL   C42119363   6.649   0.573   3.800 -0.9997 -0.3855  0.1268
   22MOL   O42219364   6.402   0.514   4.071  0.0679 -0.4607  0.3626
   22MOL   C42319365   6.348   0.632   4.116 -0.2991 -0.2194  0.4901
   22MOL   C42419366   6.213   0.646   4.118  0.8305 -0.7888 -0.6819
   22MOL   C42519367   6.149   0.774   4.142 -0.1230  0.6477 -0.4356
   22MOL   C42619368   6.224   0.874   4.202  0.1316 -0.1040 -0.1406
   22MOL   C42719369   6.367   0.859   4.201 -0.5806  0.2336  0.5898
   22MOL   C42819370   6.429   0.739   4.157 -0.1501 -0.2588  0.0339
   22MOL   C42919371   6.165   1.003   4.248 -0.6911 -1.2464  0.5207
   22MOL   C43019372   6.050   0.998   4.329  0.2174 -0.0060 -0.1724
   22MOL   C43119373   5.995   1.120   4.377  0.8019 -0.6174 -0.2475
   22MOL   C43219374   6.054   1.245   4.334 -0.5410 -0.4117  0.3222
   22MOL   C43319375   6.148   1.245   4.226 -0.1154  1.3445 -0.5481
   22MOL   C43419376   6.207   1.124   4.191 -0.2815  0.9491 -0.2357
   22MOL   O43519377   6.012   1.368   4.382  0.0732  0.4621  0.4082
   22MOL   H43619378   6.984   0.911   3.566  2.5806 -1.2316 -1.4245
   22MOL   H43719379   6.860   0.688   3.575 -1.5880  0.9431  1.2980
   22MOL   H43819380   7.088   0.577   3.929  1.3969  1.4957 -1.3133
   22MOL   H43919381   7.191   0.797   3.929  0.0025 -1.2046  0.4403
   22MOL   H44019382   6.829   0.381   4.025  1.1917  0.6216 -0.3462
   22MOL   H44119383   6.622   0.397   4.148  0.3106  2.5722  1.7721
   22MOL   H44219384   6.443   0.637   3.846 -1.5357  0.4268  2.8856
   22MOL   H44319385   6.660   0.624   3.706 -0.3074  0.8607  0.8628
   22MOL   H44419386   6.151   0.567   4.080  0.3137 -0.0980 -1.3039
   22MOL   H44519387   6.044   0.786   4.123 -0.6231 -0.5881  1.4350
   22MOL   H44619388   6.430   0.938   4.240 -0.8426  0.1580  1.1709
   22MOL   H44719389   6.537   0.734   4.152 -0.2205 -0.9385 -0.9784
   22MOL   H44819390   6.014   0.903   4.365  0.5984  0.1209  0.5589
   22MOL   H44919391   5.915   1.126   4.450  1.0175  1.8532 -0.1702
   22MOL   H45019392   6.189   1.335   4.184 -1.0737  1.0011 -2.2521
   22MOL   H45119393   6.293   1.127   4.127 -0.2620 -0.4058 -0.2930
   22MOL   C45219394   5.901   1.430   4.332  0.3487 -0.0634 -0.2984
   22MOL   C45319395   5.837   1.534   4.404  0.8313  0.2027 -0.1218
   22MOL   C45419396   5.729   1.609   4.352 -0.0345  0.5272 -0.0437
   22MOL   C45519397   5.667   1.562   4.233  0.1178 -1.1627  0.3767
   22MOL   C45619398   5.721   1.450   4.167  0.9223 -0.1061 -0.3220
   22MOL   C45719399   5.842   1.393   4.210  0.0232  0.2975  0.1525
   22MOL   S45819400   5.526   1.648   4.153 -0.2988 -0.4374  0.1859
   22MOL   O45919401   5.405   1.565   4.192  0.2944  0.4391  0.7132
   22MOL   O46019402   5.566   1.679   4.016 -0.6327  0.1484 -0.4683
   22MOL   C46119403   5.516   1.803   4.236 -0.0930  0.0644  0.0594
   22MOL   C46219404   5.610   1.901   4.200  0.0878 -0.2932  0.2441
   22MOL   C46319405   5.611   2.025   4.270 -0.5735 -1.0803 -0.1119
   22MOL   C46419406   5.527   2.040   4.383  0.5262 -0.8304  0.4365
   22MOL   C46519407   5.416   1.949   4.410 -0.4020  0.3841 -0.2248
   22MOL   C46619408   5.412   1.832   4.333 -0.1975  0.0640 -0.6629
   22MOL   O46719409   5.543   2.149   4.466  0.1119 -0.4323 -0.1230
   22MOL   C46819410   5.580   2.122   4.595 -0.0712  0.0913 -0.1261
   22MOL   C46919411   5.491   2.173   4.697 -0.0215  0.1763 -0.2257
   22MOL   C47019412   5.514   2.121   4.827  0.3421  0.2117  0.0477
   22MOL   C47119413   5.622   2.031   4.859 -0.6212 -0.3303 -0.0810
   22MOL   C47219414   5.717   2.012   4.753 -0.4986 -0.1755 -0.3004
   22MOL   C47319415   5.692   2.046   4.620 -0.1252  0.1861  0.1059
   22MOL   C47419416   5.631   1.966   4.987 -0.1217  1.2554 -0.4964
   22MOL   C47519417   5.700   1.849   4.999  1.1281  0.0728  1.0093
   22MOL   C47619418   5.720   1.790   5.124  0.1929  0.0308  0.0432
   22MOL   C47719419   5.659   1.840   5.239  0.1332  0.0850 -0.5673
   22MOL   C47819420   5.573   1.950   5.224  0.2428 -0.3453  0.6146
   22MOL   C47919421   5.568   2.019   5.102 -0.3539 -0.1599 -0.7328
   22MOL   O48019422   5.688   1.769   5.353  0.5510  0.1683  0.1717
   22MOL   H48119423   5.884   1.564   4.496  1.0136 -1.7254  0.4234
   22MOL   H48219424   5.688   1.690   4.411  2.6280  2.1896 -0.3819
   22MOL   H48319425   5.687   1.412   4.072  1.9924 -1.6664 -0.0947
   22MOL   H48419426   5.879   1.312   4.149 -2.1691 -1.0529  0.5739
   22MOL   H48519427   5.682   1.867   4.126  0.6609  1.9724 -0.2730
   22MOL   H48619428   5.685   2.099   4.241 -2.0256  0.3888 -0.1751
   22MOL   H48719429   5.346   1.970   4.490  0.6722 -1.9630  1.3911
   22MOL   H48819430   5.340   1.761   4.371  0.5879 -1.0370 -1.2088
   22MOL   H48919431   5.399   2.227   4.680 -1.0053 -1.5367 -0.4918
   22MOL   H49019432   5.448   2.154   4.906  0.5118 -1.6711  1.0006
   22MOL   H49119433   5.806   1.951   4.763  0.8525  1.7530 -0.1177
   22MOL   H49219434   5.753   2.012   4.538  4.2925  1.2060  2.7924
   22MOL   H49319435   5.756   1.814   4.913  3.0627  0.6467  2.0090
   22MOL   H49419436   5.770   1.695   5.129 -1.5980 -0.8712  1.4565
   22MOL   H49519437   5.523   1.991   5.310 -0.6028 -0.9597  0.4233
   22MOL   H49619438   5.505   2.107   5.097  0.2089  0.5275  3.2163
   22MOL   C49719439   5.806   1.803   5.414  0.3942  0.2844  0.0262
   22MOL   C49819440   5.892   1.702   5.455 -0.0580 -0.0952  1.0735
   22MOL   C49919441   6.000   1.732   5.537 -0.2838  0.0878  0.4983
   22MOL   C50019442   6.020   1.866   5.580  0.0133 -1.0598  0.2129
   22MOL   C50119443   5.939   1.972   5.533  0.2533  0.5411 -0.3898
   22MOL   C50219444   5.824   1.937   5.456  0.4203 -0.6752 -0.1889
   22MOL   S50319445   6.136   1.901   5.706  0.5093  0.0748 -0.2128
   22MOL   O50419446   6.242   1.807   5.686  0.5195  0.0931 -0.5211
   22MOL   O50519447   6.058   1.890   5.828 -0.0280 -0.0528 -0.2237
   22MOL   C50619448   6.188   2.070   5.691 -0.1583 -0.0446  0.5285
   22MOL   C50719449   6.198   2.142   5.810 -0.2999  0.5256 -0.2293
   22MOL   C50819450   6.257   2.268   5.822  0.1941  0.3830  0.2262
   22MOL   C50919451   6.299   2.333   5.705 -0.0442  0.5152 -0.0293
   22MOL   C51019452   6.290   2.260   5.580 -0.1743 -0.5214 -0.5276
   22MOL   C51119453   6.230   2.134   5.569  0.0398  0.0551  0.4832
   22MOL   O51219454   6.343   2.459   5.715 -0.0804 -0.8663 -0.0011
   22MOL   C51319455   6.311   2.545   5.620  0.5027  0.2474  0.5936
   22MOL   C51419456   6.401   2.579   5.513  0.1790 -0.2857 -0.9116
   22MOL   C51519457   6.346   2.654   5.406  0.0186  0.3473  0.1175
   22MOL   C51619458   6.210   2.696   5.396 -0.4331 -0.3076 -0.9901
   22MOL   C51719459   6.127   2.667   5.510 -0.5431  0.3601  0.0959
   22MOL   C51819460   6.176   2.595   5.619 -0.3427  0.2053  0.1290
   22MOL   C51919461   6.154   2.773   5.282 -0.1122  0.2989 -0.2511
   22MOL   C52019462   6.201   2.751   5.149 -0.9255  0.0110 -0.1607
   22MOL   C52119463   6.156   2.830   5.047  0.0533 -0.0064 -0.0337
   22MOL   C52219464   6.056   2.934   5.074 -0.2645 -0.3706  0.0497
   22MOL   C52319465   6.001   2.952   5.198  0.3507 -0.5265 -0.0331
   22MOL   C52419466   6.054   2.868   5.299  0.1950 -0.0778 -0.0664
   22MOL   O52519467   6.010   3.011   4.969  0.9563 -0.2973 -0.8424
   22MOL   H52619468   5.881   1.600   5.421 -0.5843 -0.0719  1.1683
   22MOL   H52719469   6.067   1.656   5.572  1.3354  1.2404 -0.0419
   22MOL   H52819470   5.959   2.069   5.577 -0.6946 -0.6706  2.8749
   22MOL   H52919471   5.763   2.019   5.419  1.9049 -0.3595 -2.0353
   22MOL   H53019472   6.173   2.091   5.902 -0.4211 -1.5024 -1.3707
   22MOL   H53119473   6.263   2.318   5.918 -1.4279  0.5938  0.2323
   22MOL   H53219474   6.312   2.309   5.486  0.3137  2.2622  0.9790
   22MOL   H53319475   6.209   2.091   5.472 -1.9542 -1.0194  1.3604
   22MOL   H53419476   6.504   2.547   5.515  0.0837 -0.5266  0.8184
   22MOL   H53519477   6.417   2.678   5.328 -0.3855 -1.4356 -0.8315
   22MOL   H53619478   6.023   2.698   5.511 -0.7352 -0.3341  1.4057
   22MOL   H53719479   6.115   2.579   5.706 -2.7836  0.3806 -1.5154
   22MOL   H53819480   6.276   2.676   5.127 -0.1551 -0.0113  2.2864
   22MOL   H53919481   6.210   2.817   4.955 -0.7308  0.4445 -0.5690
   22MOL   H54019482   5.916   3.017   5.218 -0.6386 -1.4600 -1.1462
   22MOL   H54119483   6.006   2.868   5.396  1.8993  0.7038  0.7996
   22MOL   C54219484   6.044   3.146   4.952 -0.2035  0.3063 -0.3736
   22MOL   C54319485   6.092   3.191   4.828  0.7042 -0.1724  0.5045
   22MOL   C54419486   6.142   3.319   4.817  0.3843 -0.5314 -0.2723
   22MOL   C54519487   6.132   3.409   4.926  0.1929 -0.6768 -0.1219
   22MOL   C54619488   6.072   3.371   5.043 -0.3436 -0.3615 -0.4783
   22MOL   C54719489   6.015   3.240   5.057  0.3877 -0.6607  0.0103
   22MOL   S54819490   6.195   3.577   4.900 -0.4145 -0.6211 -0.2783
   22MOL   O54919491   6.331   3.568   4.839  0.7533  0.0280 -0.3612
   22MOL   O55019492   6.173   3.637   5.035  0.2659  0.3686  0.2644
   22MOL   C55119493   6.082   3.661   4.781  0.1537 -0.4682 -0.0350
   22MOL   C55219494   5.958   3.695   4.840  0.6847  0.3069  0.5493
   22MOL   C55319495   5.860   3.761   4.764 -0.9139 -0.0422  0.1366
   22MOL   C55419496   5.899   3.804   4.633 -0.3097 -0.7071  0.2459
   22MOL   C55519497   6.028   3.783   4.583 -0.1332 -0.1169 -0.1115
   22MOL   C55619498   6.118   3.704   4.651 -0.0971 -0.4438 -0.1507
   22MOL   O55719499   5.813   3.867   4.549 -0.2623 -0.2433  0.1440
   22MOL   C55819500   5.711   3.943   4.597  0.9164 -0.1832 -0.0736
   22MOL   C55919501   5.577   3.906   4.579  0.0029 -0.5316 -0.2267
   22MOL   C56019502   5.475   3.990   4.629  0.2244  0.1104 -0.3513
   22MOL   C56119503   5.504   4.114   4.690 -0.3565 -0.3206  0.0872
   22MOL   C56219504   5.641   4.158   4.699 -0.1888  0.6280 -0.4035
   22MOL   C56319505   5.742   4.068   4.658 -0.7752  0.3721  0.1789
   22MOL   C56419506   5.394   4.200   4.737 -0.7046  0.5815 -0.4106
   22MOL   C56519507   5.371   4.327   4.692 -0.5416  0.2762 -0.4253
   22MOL   C56619508   5.261   4.407   4.731 -0.1093 -1.2034 -0.2590
   22MOL   C56719509   5.181   4.352   4.834  0.2774 -0.2701  0.0865
   22MOL   C56819510   5.195   4.219   4.876  0.4916 -0.5214 -0.6652
   22MOL   C56919511   5.300   4.140   4.817  0.0151  0.1865 -0.5938
   22MOL   O57019512   5.101   4.444   4.907  0.9174 -0.3128 -0.9533
   22MOL   H57119513   6.105   3.115   4.753  0.5545 -0.2101  0.5164
   22MOL   H57219514   6.191   3.343   4.724 -0.1901 -2.1183 -1.0049
   22MOL   H57319515   6.072   3.450   5.117  0.0571 -2.4827  1.8304
   22MOL   H57419516   5.957   3.215   5.145 -0.3173 -1.1172 -0.5766
   22MOL   H57519517   5.939   3.666   4.942  1.4303  0.2561  0.6757
   22MOL   H57619518   5.764   3.789   4.806 -0.2365  0.6490  1.2582
   22MOL   H57719519   6.064   3.826   4.491 -2.4828 -1.9261 -1.9353
   22MOL   H57819520   6.220   3.689   4.620  0.3067 -0.4972  1.1468
   22MOL   H57919521   5.549   3.820   4.519 -0.3265 -0.4181 -0.2376
   22MOL   H58019522   5.373   3.955   4.627  0.7204 -1.6014  2.1698
   22MOL   H58119523   5.662   4.252   4.745 -1.7441  0.3785  0.8644
   22MOL   H58219524   5.848   4.087   4.669 -0.8421 -0.5489  2.7223
   22MOL   H58319525   5.445   4.359   4.620 -1.5321  0.5614 -1.3370
   22MOL   H58419526   5.250   4.507   4.691  0.4379 -1.1030 -0.1654
   22MOL   H58519527   5.135   4.171   4.952  0.1361 -1.0726 -1.2787
   22MOL   H58619528   5.313   4.044   4.865 -0.2957 -0.3262 -1.5215
   22MOL   C58719529   4.979   4.486   4.860 -0.3228  0.8470 -0.2917
   22MOL   C58819530   4.916   4.405   4.768  0.4537  0.4577 -0.2257
   22MOL   C58919531   4.783   4.428   4.735 -0.1819 -0.4553  0.0658
   22MOL   C59019532   4.724   4.546   4.774 -0.8339  0.5918 -0.3195
   22MOL   C59119533   4.783   4.635   4.864 -0.1930  0.6442  0.1042
   22MOL   C59219534   4.915   4.603   4.908  0.3069  0.0520  0.0830
   22MOL   S59319535   4.552   4.571   4.731 -0.5056 -0.0593 -0.0548
   22MOL   O59419536   4.482   4.645   4.835  0.4527 -0.3038  0.3560
   22MOL   O59519537   4.508   4.438   4.694 -0.6391  0.0712  0.5423
   22MOL   C59619538   4.568   4.678   4.586  0.3591 -0.4323  0.1892
   22MOL   C59719539   4.597   4.813   4.613 -0.8133 -0.3407  0.6313
   22MOL   C59819540   4.590   4.900   4.501  0.7795 -0.2455  0.5415
   22MOL   C59919541   4.546   4.854   4.370  0.1804 -0.1831 -0.1303
   22MOL   C60019542   4.516   4.720   4.349 -0.1897  0.0610  0.7018
   22MOL   C60119543   4.523   4.633   4.457 -0.1485 -0.5661  0.2772
   22MOL   O60219544   4.534   4.947   4.270  0.0597  0.6482 -0.1621
   22MOL   C60319545   4.609   5.055   4.262 -0.5775  0.4267 -0.9054
   22MOL   C60419546   4.746   5.043   4.215 -0.3897  0.3246  0.1911
   22MOL   C60519547   4.830   5.154   4.213 -0.1659  0.8600  0.1260
   22MOL   C60619548   4.782   5.278   4.266  0.2097 -0.7080 -0.1507
   22MOL   C60719549   4.650   5.286   4.318 -0.6776 -0.0040 -0.1477
   22MOL   C60819550   4.565   5.175   4.315 -0.5303  0.2711  0.5133
   22MOL   C60919551   4.868   5.400   4.263 -1.2490 -0.1675 -0.2251
   22MOL   C61019552   5.005   5.393   4.302 -0.4863  0.9622 -0.0121
   22MOL   C61119553   5.093   5.504   4.281  0.6442  0.6109  0.2656
   22MOL   C61219554   5.045   5.618   4.218  0.1187 -0.5336 -0.5604
   22MOL   C61319555   4.913   5.627   4.187  0.9435 -0.3846 -0.2534
   22MOL   C61419556   4.818   5.524   4.219 -0.3265  0.1633 -0.6525
   22MOL   O61519557   5.120   5.725   4.189 -0.8732 -0.2736 -0.1229
   22MOL   H61619558   4.976   4.328   4.722 -2.4308 -0.1946 -3.0877
   22MOL   H61719559   4.725   4.350   4.689  3.8156 -2.6867 -1.3864
   22MOL   H61819560   4.723   4.718   4.898 -3.6756 -2.1143  0.9060
   22MOL   H61919561   4.957   4.656   4.992 -2.1457  1.9109  0.2026
   22MOL   H62019562   4.626   4.854   4.708 -0.2867 -0.6461  0.6055
   22MOL   H62119563   4.615   5.005   4.509  0.6526 -0.0840 -0.9983
   22MOL   H62219564   4.479   4.684   4.254 -0.8711  1.7576  0.3203
   22MOL   H62319565   4.498   4.528   4.445 -3.7450  0.2406  0.1297
   22MOL   H62419566   4.783   4.946   4.187 -0.6258  0.1238  0.5883
   22MOL   H62519567   4.930   5.146   4.173 -0.1661 -2.0604  0.5508
   22MOL   H62619568   4.621   5.379   4.365  1.1240  0.2635  0.4439
   22MOL   H62719569   4.464   5.185   4.352  0.0564 -0.0415  2.2522
   22MOL   H62819570   5.046   5.314   4.363  0.6926  1.7497  0.2313
   22MOL   H62919571   5.195   5.497   4.316  1.1804  0.4598 -1.2714
   22MOL   H63019572   4.877   5.717   4.140  0.9041 -0.9575 -1.3517
   22MOL   H63119573   4.715   5.547   4.196 -0.3606  0.2406 -0.4243
   22MOL   C63219574   5.108   5.833   4.270 -0.3443  0.3871  0.3574
   22MOL   C63319575   5.034   5.942   4.227 -0.0732 -0.5096  0.1022
   22MOL   C63419576   5.033   6.053   4.314  0.0155 -0.1028 -0.5129
   22MOL   C63519577   5.097   6.056   4.436  0.4409  1.4475 -0.1368
   22MOL   C63619578   5.150   5.933   4.487  1.1557  0.6398 -0.2538
   22MOL   C63719579   5.169   5.829   4.396 -0.8349 -0.3660  0.9638
   22MOL   S63819580   5.083   6.200   4.542 -0.3679 -0.3028  0.4402
   22MOL   O63919581   5.004   6.185   4.663 -0.1487  0.9352 -0.3914
   22MOL   O64019582   5.056   6.320   4.460  0.8086 -0.0636  0.5449
   22MOL   C64119583   5.250   6.202   4.599  0.2510 -0.0235 -0.1210
   22MOL   C64219584   5.284   6.211   4.734 -0.0427  0.0999  0.8711
   22MOL   C64319585   5.417   6.206   4.782  0.6891  0.4978 -0.1794
   22MOL   C64419586   5.520   6.190   4.686  0.2482 -0.1954  0.1310
   22MOL   C64519587   5.491   6.184   4.548 -0.2233  0.5684 -0.5914
   22MOL   C64619588   5.353   6.198   4.509 -0.0539 -0.2995  0.5723
   22MOL   O64719589   5.651   6.178   4.725  0.2326  0.1343  0.1634
   22MOL   C64819590   5.701   6.084   4.815 -0.1567 -1.0330  0.5366
   22MOL   C64919591   5.639   5.962   4.839 -0.3357  0.4779 -0.3913
   22MOL   C65019592   5.691   5.877   4.939 -0.3442 -0.0968 -0.1041
   22MOL   C65119593   5.797   5.910   5.021 -0.3425 -0.8906  0.1884
   22MOL   C65219594   5.857   6.034   5.000 -0.0125  0.1357  0.0128
   22MOL   C65319595   5.811   6.119   4.899  0.4379 -0.0715 -0.2499
   22MOL   C65419596   5.839   5.815   5.124  0.0655 -1.0800  0.1317
   22MOL   C65519597   5.893   5.858   5.248 -0.0668  0.1149 -0.8587
   22MOL   C65619598   5.939   5.764   5.344 -0.6281 -0.5904 -0.1995
   22MOL   C65719599   5.925   5.630   5.319 -0.2749 -0.9044 -0.6060
   22MOL   C65819600   5.863   5.588   5.199 -0.2473 -0.1043 -0.2924
   22MOL   C65919601   5.814   5.681   5.108  0.4573  0.6382  0.3200
   22MOL   O66019602   5.985   5.542   5.403 -0.0807 -0.5159  1.1398
   22MOL   H66119603   4.973   5.930   4.138  1.3607 -0.7934 -0.8466
   22MOL   H66219604   4.961   6.128   4.282 -0.4232 -0.6529 -0.8249
   22MOL   H66319605   5.200   5.934   4.583 -0.1473  0.8275  0.4280
   22MOL   H66419606   5.233   5.747   4.424 -0.6479 -0.9789 -1.2322
   22MOL   H66519607   5.199   6.214   4.801 -1.3857  1.5303 -0.8493
   22MOL   H66619608   5.432   6.216   4.889 -0.0770  2.0907 -0.2035
   22MOL   H66719609   5.579   6.166   4.488  0.5710 -0.3362  0.8152
   22MOL   H66819610   5.333   6.210   4.404  1.0193 -2.5648  0.0742
   22MOL   H66919611   5.546   5.932   4.793 -1.4379 -0.0131  2.0690
   22MOL   H67019612   5.634   5.786   4.950 -3.3158  1.8754  1.4482
   22MOL   H67119613   5.924   6.076   5.073  0.7869  0.0270 -0.6427
   22MOL   H67219614   5.847   6.220   4.886  0.9367 -0.4939 -2.3685
   22MOL   H67319615   5.887   5.961   5.279 -1.5044 -0.1076 -0.3319
   22MOL   H67419616   5.989   5.797   5.434 -2.2690  2.2322 -0.2443
   22MOL   H67519617   5.855   5.485   5.167 -1.3531 -0.5654  1.3773
   22MOL   H67619618   5.775   5.640   5.017 -1.2699  0.7066  1.0066
   22MOL   C67719619   5.910   5.441   5.451 -0.1653  0.2204  0.7343
   22MOL   C67819620   5.812   5.458   5.544 -0.4373  0.1317  0.1927
   22MOL   C67919621   5.758   5.341   5.608  0.0248 -0.9964  0.1033
   22MOL   C68019622   5.777   5.217   5.541  0.0802  0.8293  0.6687
   22MOL   C68119623   5.871   5.204   5.437 -0.6351 -0.5021 -0.3446
   22MOL   C68219624   5.939   5.319   5.401  0.2988 -0.2040 -0.5900
   22MOL   S68319625   5.694   5.077   5.601 -0.1745  0.0184  0.3190
   22MOL   O68419626   5.588   5.125   5.691 -0.2629 -0.1993 -0.3759
   22MOL   O68519627   5.784   4.972   5.645 -0.0957  0.2602  0.6708
   22MOL   C68619628   5.608   5.010   5.449  0.7529 -0.4451  0.4584
   22MOL   C68719629   5.532   5.097   5.363  0.3247  0.4498 -1.2720
   22MOL   C68819630   5.469   5.046   5.242  0.4935  0.6817  0.0110
   22MOL   C68919631   5.468   4.905   5.222 -0.1992  0.4313  0.3868
   22MOL   C69019632   5.527   4.822   5.313 -0.4101 -0.6959  0.8428
   22MOL   C69119633   5.608   4.872   5.421 -0.8116  0.7178  0.1129
   22MOL   O69219634   5.403   4.849   5.117  0.2010  0.3718  0.3128
   22MOL   C69319635   5.286   4.780   5.150 -0.6761 -0.3148  0.5505
   22MOL   C69419636   5.178   4.849   5.211 -0.2552 -0.3489  0.0433
   22MOL   C69519637   5.066   4.779   5.254 -0.1461 -0.0527 -0.4372
   22MOL   C69619638   5.064   4.641   5.240 -0.1666  0.7308 -0.3239
   22MOL   C69719639   5.168   4.572   5.171 -0.0582  0.4224  1.4075
   22MOL   C69819640   5.281   4.643   5.127  0.2841  0.2782 -0.1289
   22MOL   C69919641   4.966   4.559   5.313 -0.9512 -0.0526 -0.6434
   22MOL   C70019642   4.860   4.488   5.253 -0.1304 -0.0615  0.8458
   22MOL   C70119643   4.752   4.450   5.325  0.1828  0.0678 -0.7145
   22MOL   C70219644   4.736   4.486   5.464  0.3044 -0.1953  0.1783
   22MOL   C70319645   4.850   4.541   5.529  0.2113 -1.0764 -0.2017
   22MOL   C70419646   4.964   4.584   5.456  0.7493 -0.8506 -0.0751
   22MOL   O70519647   4.620   4.474   5.528 -0.3832 -0.2301  0.8479
   22MOL   H70619648   5.783   5.555   5.584  0.2823  0.6671 -0.5755
   22MOL   H70719649   5.697   5.354   5.695  0.4437  0.9041  0.1320
   22MOL   H70819650   5.909   5.116   5.387 -0.7291 -1.0279  0.5107
   22MOL   H70919651   6.002   5.302   5.316  1.0990  1.4836 -0.3515
   22MOL   H71019652   5.525   5.201   5.390 -0.0798  0.4700 -1.4416
   22MOL   H71119653   5.414   5.115   5.179 -1.9225  1.3581  2.7425
   22MOL   H71219654   5.526   4.715   5.298  2.6145 -0.9012  1.6493
   22MOL   H71319655   5.662   4.804   5.486 -0.8924 -0.1327 -0.6992
   22MOL   H71419656   5.180   4.951   5.246 -0.7435 -0.1144 -0.6090
   22MOL   H71519657   4.988   4.831   5.309  0.6668 -0.8006  1.4711
   22MOL   H71619658   5.157   4.465   5.157 -4.3826  1.0823 -1.1791
   22MOL   H71719659   5.368   4.600   5.079  0.3211  0.2544 -0.0394
   22MOL   H71819660   4.861   4.463   5.148 -0.8213 -1.3112  1.1282
   22MOL   H71919661   4.663   4.405   5.284  0.5068  0.2511 -1.6334
   22MOL   H72019662   4.836   4.565   5.633 -1.6004  2.9183 -1.2525
   22MOL   H72119663   5.037   4.647   5.504  0.9744  0.3378 -1.9124
   22MOL   C72219664   4.572   4.350   5.540 -0.5817  0.5266  0.1951
   22MOL   C72319665   4.606   4.281   5.659 -0.1831 -0.1385 -0.2321
   22MOL   C72419666   4.544   4.157   5.681 -0.6403  0.6317 -0.5494
   22MOL   C72519667   4.445   4.107   5.594 -0.1712  0.1504 -0.2229
   22MOL   C72619668   4.414   4.179   5.471  0.3174  0.3910  0.3048
   22MOL   C72719669   4.490   4.293   5.441  0.3568 -0.1092  0.7179
   22MOL   S72819670   4.354   3.962   5.635  0.1000  0.0886 -0.2271
   22MOL   O72919671   4.213   3.981   5.597  0.0570 -0.3861  0.4390
   22MOL   O73019672   4.391   3.925   5.772  0.2768  0.2748  0.0857
   22MOL   C73119673   4.410   3.853   5.513 -0.2123 -0.3281 -0.1303
   22MOL   C73219674   4.496   3.747   5.551 -0.6723  0.1625 -0.8040
   22MOL   C73319675   4.543   3.654   5.452 -0.3395  0.1712  0.4715
   22MOL   C73419676   4.496   3.662   5.318 -0.2444  0.5278 -0.0748
   22MOL   C73519677   4.405   3.764   5.288  0.1465  0.0484 -0.1183
   22MOL   C73619678   4.362   3.857   5.383  0.1730 -0.2610 -0.0714
   22MOL   O73719679   4.539   3.577   5.218 -0.0760  0.1762  0.0107
   22MOL   C73819680   4.669   3.594   5.181 -0.1607 -0.2722 -0.5465
   22MOL   C73919681   4.761   3.492   5.216  0.0181 -0.0530  0.0976
   22MOL   C74019682   4.892   3.504   5.175 -0.3620  0.3315  0.3878
   22MOL   C74119683   4.936   3.613   5.097  0.0566  0.6359 -0.3042
   22MOL   C74219684   4.847   3.722   5.067  0.3049 -0.3728  0.5594
   22MOL   C74319685   4.707   3.704   5.102  0.1146 -0.1140 -0.6838
   22MOL   C74419686   5.074   3.617   5.056 -0.8056 -0.3219 -0.9842
   22MOL   C74519687   5.106   3.658   4.927  0.3898  0.5266  0.1966
   22MOL   C74619688   5.236   3.696   4.888  0.7143  0.2301  0.0889
   22MOL   C74719689   5.341   3.679   4.984 -0.0710 -0.8222 -0.1987
   22MOL   C74819690   5.314   3.631   5.113 -0.2365  0.4351 -0.0805
   22MOL   C74919691   5.179   3.607   5.151 -0.0346  0.2249 -0.2805
   22MOL   O75019692   5.463   3.697   4.932  0.0468 -0.2349  0.0625
   22MOL   H75119693   4.671   4.326   5.733 -1.9606 -0.1776  1.4212
   22MOL   H75219694   4.568   4.094   5.765 -1.2715 -0.3886 -1.1272
   22MOL   H75319695   4.349   4.160   5.387  0.5705  0.9178 -0.0169
   22MOL   H75419696   4.472   4.347   5.349  0.5898  0.0905  0.7890
   22MOL   H75519697   4.524   3.735   5.655 -1.7882 -3.0354 -0.8094
   22MOL   H75619698   4.604   3.573   5.489  0.9080  1.6585  1.7388
   22MOL   H75719699   4.368   3.775   5.187 -3.3556  1.5397  1.2539
   22MOL   H75819700   4.297   3.940   5.360 -0.0885 -0.3279  0.4047
   22MOL   H75919701   4.732   3.409   5.279  0.3562  0.2489  0.6596
   22MOL   H76019702   4.955   3.421   5.205 -0.7228 -0.2033 -0.3153
   22MOL   H76119703   4.895   3.812   5.031 -2.1192 -0.1870 -2.3851
   22MOL   H76219704   4.625   3.773   5.086  1.5019  1.6132 -0.5292
   22MOL   H76319705   5.024   3.670   4.858  1.0325 -0.6862 -0.8100
   22MOL   H76419706   5.252   3.727   4.786 -1.3193 -1.7198 -0.8650
   22MOL   H76519707   5.399   3.627   5.179  1.8377 -0.5593 -2.7064
   22MOL   H76619708   5.157   3.587   5.255  0.5978  0.1233 -0.1681
   22MOL   C76719709   5.564   3.760   5.003 -0.6189  0.1357 -0.4186
   22MOL   C76819710   5.669   3.683   5.068 -0.1820  0.7771 -0.8578
   22MOL   C76919711   5.764   3.751   5.143 -0.1446  0.2861 -0.2227
   22MOL   C77019712   5.774   3.891   5.155  0.4339 -0.2360  0.5294
   22MOL   C77119713   5.670   3.960   5.085 -0.3508 -0.0433 -0.9253
   22MOL   C77219714   5.567   3.900   5.013 -0.0028 -0.1439  0.4657
   22MOL   S77319715   5.905   3.970   5.253  0.1735 -0.3212  0.0312
   22MOL   O77419716   5.941   3.881   5.364  0.0717 -0.0931 -0.1741
   22MOL   O77519717   5.865   4.110   5.280  0.4774  0.1286  0.0887
   22MOL   C77619718   6.047   3.975   5.134  0.3792 -0.3407  0.3297
   22MOL   C77719719   6.169   3.925   5.184  0.0643 -0.0651  0.1871
   22MOL   C77819720   6.284   3.928   5.108  0.5256  0.0418  1.1810
   22MOL   C77919721   6.279   3.973   4.978 -0.6325 -0.1848  0.0329
   22MOL   C78019722   6.156   4.021   4.925  0.0582 -0.2140 -0.1428
   22MOL   C78119723   6.040   4.026   5.002  0.2827 -0.9558  0.2322
   22MOL   O78219724   6.387   3.973   4.893 -0.2913  0.0503  0.4046
   22MOL   C78319725   6.497   4.041   4.939  0.0718 -0.2275 -0.0639
   22MOL   C78419726   6.506   4.182   4.930 -0.1485  0.4408 -0.5888
   22MOL   C78519727   6.600   4.251   5.007 -0.1391 -0.4224  0.2385
   22MOL   C78619728   6.696   4.184   5.084  0.0562 -0.2097  0.4181
   22MOL   C78719729   6.693   4.046   5.077  0.4592  0.7095  0.2547
   22MOL   C78819730   6.598   3.972   5.001  0.2967 -0.9425  0.9398
   22MOL   C78919731   6.778   4.253   5.182  0.4542 -0.2412 -0.1801
   22MOL   C79019732   6.718   4.330   5.288 -0.4606 -0.7732 -0.7805
   22MOL   C79119733   6.802   4.384   5.395  0.5457  0.2180  0.5527
   22MOL   C79219734   6.941   4.362   5.392  0.7821  0.4549  0.2700
   22MOL   C79319735   6.996   4.288   5.286  0.0477 -0.3480 -0.5887
   22MOL   C79419736   6.917   4.233   5.185  0.4589 -0.3772  0.0362
   22MOL   O79519737   7.022   4.416   5.492  0.1451 -0.6103 -0.1709
   22MOL   H79619738   5.662   3.575   5.065 -0.0887  0.7453  0.0268
   22MOL   H79719739   5.840   3.700   5.201  0.0195 -0.6044 -1.2169
   22MOL   H79819740   5.669   4.067   5.095  1.0645 -0.2199  1.5974
   22MOL   H79919741   5.491   3.973   4.992  0.5647  0.4091  0.3357
   22MOL   H80019742   6.185   3.884   5.282 -1.1287 -1.1217 -0.0379
   22MOL   H80119743   6.376   3.886   5.145  0.4308 -0.0997  1.2595
   22MOL   H80219744   6.131   4.054   4.825  2.6927  0.1372 -0.7100
   22MOL   H80319745   5.947   4.057   4.958  1.6289  1.0790 -1.2783
   22MOL   H80419746   6.419   4.239   4.899  0.4472  1.4995 -0.3185
   22MOL   H80519747   6.591   4.358   5.004 -0.0558 -0.3969  0.8048
   22MOL   H80619748   6.748   3.977   5.140 -1.4150  1.2551  2.5135
   22MOL   H80719749   6.600   3.865   5.015  1.2528 -0.8027  1.9735
   22MOL   H80819750   6.610   4.331   5.287 -0.4628  0.8892 -0.4431
   22MOL   H80919751   6.756   4.431   5.480 -0.5189 -0.6156  0.4466
   22MOL   H81019752   7.099   4.258   5.273 -0.1841 -0.7812 -1.4400
   22MOL   H81119753   6.961   4.160   5.119 -0.2544 -1.0755  0.3223
   22MOL   C81219754   6.964   4.468   5.607  0.1898 -0.1722  0.0299
   22MOL   C81319755   6.967   4.607   5.619 -0.0922 -0.2574  0.0404
   22MOL   C81419756   6.891   4.661   5.725  0.1151  0.1563 -0.8205
   22MOL   C81519757   6.816   4.579   5.815  0.6139 -0.5190 -0.0343
   22MOL   C81619758   6.820   4.438   5.798  0.3787 -0.0869 -0.0764
   22MOL   C81719759   6.888   4.385   5.693  0.1461  0.5570 -0.1477
   22MOL   S81819760   6.728   4.667   5.954  0.0303 -0.5847  0.1679
   22MOL   O81919761   6.783   4.808   5.967  0.1301 -0.2779 -0.0680
   22MOL   O82019762   6.734   4.577   6.066  0.0821  0.9624  0.1973
   22MOL   C82119763   6.565   4.682   5.891  0.2584 -0.2693  0.1685
   22MOL   C82219764   6.533   4.669   5.756  0.1632 -0.7116 -0.6741
   22MOL   C82319765   6.400   4.679   5.725 -0.1362  0.2100 -0.1319
   22MOL   C82419766   6.297   4.707   5.811 -0.1583  0.2073 -0.5500
   22MOL   C82519767   6.329   4.726   5.949  0.2205 -0.1425 -0.1519
   22MOL   C82619768   6.467   4.720   5.989 -0.5872 -0.3387 -0.2455
   22MOL   O82719769   6.166   4.723   5.769  0.1278 -0.0891  0.3597
   22MOL   C82819770   6.086   4.613   5.737  0.3360  0.6063 -0.0605
   22MOL   C82919771   6.112   4.486   5.790  0.1658 -0.5115 -0.2037
   22MOL   C83019772   6.023   4.379   5.765  0.0937  0.0654 -0.2576
   22MOL   C83119773   5.913   4.398   5.687 -0.3902 -0.2309  0.4152
   22MOL   C83219774   5.883   4.523   5.640  0.6823 -0.2992 -0.4610
   22MOL   C83319775   5.969   4.632   5.664  0.2116 -0.1903  0.2961
   22MOL   C83419776   5.824   4.289   5.674 -1.3158 -0.3459 -0.1217
   22MOL   C83519777   5.781   4.214   5.783 -0.1826 -0.3006 -0.2277
   22MOL   C83619778   5.684   4.111   5.773  0.3071 -0.9124  0.6855
   22MOL   C83719779   5.632   4.081   5.648  0.4317  0.0539  0.8476
   22MOL   C83819780   5.680   4.149   5.534  0.0601  0.4330 -0.4360
   22MOL   C83919781   5.776   4.251   5.545 -0.0657 -0.4602 -0.5137
   22MOL   O84019782   5.529   3.996   5.636 -0.5109  0.5241  0.3108
   22MOL   H84119783   7.025   4.677   5.560  2.3089 -1.5606  0.8037
   22MOL   H84219784   6.883   4.768   5.741 -1.0874  0.2109 -1.7552
   22MOL   H84319785   6.771   4.373   5.868 -0.3106  0.9329  0.3885
   22MOL   H84419786   6.874   4.280   5.675 -2.0510  0.8855 -0.4256
   22MOL   H84519787   6.602   4.658   5.674  1.5525  2.0476  0.0534
   22MOL   H84619788   6.382   4.669   5.619 -1.4363  2.3609 -0.1443
   22MOL   H84719789   6.252   4.742   6.024  1.3216  2.4142  0.4666
   22MOL   H84819790   6.496   4.747   6.090  1.6910 -2.9592 -0.1247
   22MOL   H84919791   6.192   4.460   5.857 -0.2348 -1.3799 -0.0476
   22MOL   H85019792   6.048   4.284   5.809  1.1362 -0.0180 -1.0282
   22MOL   H85119793   5.792   4.544   5.585 -0.6501  0.1033  1.8213
   22MOL   H85219794   5.942   4.733   5.635  1.0181  0.0615  0.4268
   22MOL   H85319795   5.812   4.249   5.880 -1.0311 -0.1310 -0.0055
   22MOL   H85419796   5.659   4.060   5.864  1.0173 -2.1422  0.1947
   22MOL   H85519797   5.640   4.127   5.437 -0.2270 -3.6783  0.5040
   22MOL   H85619798   5.809   4.302   5.455  0.7017 -2.7631 -1.5760
   22MOL   C85719799   5.404   4.044   5.682 -0.4168  0.5553  0.5006
   22MOL   C85819800   5.336   4.136   5.606  0.2351 -0.3593 -0.0643
   22MOL   C85919801   5.225   4.209   5.658 -0.7422  0.0751  0.1093
   22MOL   C86019802   5.181   4.161   5.787  0.3074  0.6887 -0.2545
   22MOL   C86119803   5.248   4.057   5.860  0.2473 -0.1316 -0.2829
   22MOL   C86219804   5.367   4.012   5.811  0.0708  0.1225  0.1251
   22MOL   S86319805   5.041   4.248   5.843 -0.3634 -0.0673 -0.0593
   22MOL   O86419806   4.985   4.168   5.954 -0.2249 -0.3474  0.0944
   22MOL   O86519807   4.962   4.286   5.721  0.2223  0.6153 -0.6274
   22MOL   C86619808   5.114   4.392   5.921 -0.5364 -0.6938  0.1855
   22MOL   C86719809   5.216   4.385   6.020 -0.3610 -0.3947  0.6139
   22MOL   C86819810   5.276   4.504   6.077  0.2827 -0.1797  0.1023
   22MOL   C86919811   5.236   4.626   6.023 -0.2191 -0.2747 -0.1099
   22MOL   C87019812   5.142   4.637   5.923  0.5657  0.0353 -0.0059
   22MOL   C87119813   5.067   4.520   5.884  0.3812 -0.1055 -0.4839
   22MOL   O87219814   5.286   4.749   6.062 -0.1155 -0.0907  0.0581
   22MOL   C87319815   5.342   4.776   6.183 -0.1448 -0.3932 -0.1316
   22MOL   C87419816   5.295   4.738   6.307 -0.1952 -0.4113 -0.4705
   22MOL   C87519817   5.371   4.750   6.424  0.2246  0.3041 -0.4782
   22MOL   C87619818   5.496   4.809   6.423  0.1140 -0.3974 -0.1584
   22MOL   C87719819   5.545   4.848   6.297 -0.2641  0.4425  0.8140
   22MOL   C87819820   5.467   4.839   6.180 -0.0240  0.7861 -0.1997
   22MOL   C87919821   5.578   4.814   6.548  0.9501 -0.1273 -0.2512
   22MOL   C88019822   5.699   4.752   6.555  0.3545 -0.4764  0.7440
   22MOL   C88119823   5.772   4.744   6.675  0.3685  0.8123  0.3693
   22MOL   C88219824   5.725   4.810   6.790 -0.1835  0.1355  0.7443
   22MOL   C88319825   5.598   4.876   6.785  0.3811 -0.6127  0.0992
   22MOL   C88419826   5.530   4.878   6.664 -0.0346  0.3993 -0.4826
   22MOL   O88519827   5.791   4.797   6.904 -0.4794 -0.5622 -0.2650
   22MOL   H88619828   5.372   4.190   5.519 -0.1014  2.2311  1.3285
   22MOL   H88719829   5.180   4.292   5.606 -1.3033 -0.5983 -0.4810
   22MOL   H88819830   5.217   4.036   5.961 -0.2838 -0.5231 -0.5229
   22MOL   H88919831   5.423   3.943   5.873  0.6164  2.3441  2.2011
   22MOL   H89019832   5.249   4.292   6.064 -0.9815 -1.3442 -0.9021
   22MOL   H89119833   5.361   4.505   6.143  1.3012 -0.6160 -1.1805
   22MOL   H89219834   5.112   4.736   5.894  0.3390 -0.2682 -0.8020
   22MOL   H89319835   4.987   4.527   5.812  1.1670 -0.0191 -1.3554
   22MOL   H89419836   5.205   4.678   6.313 -0.8097  0.5984  0.8296
   22MOL   H89519837   5.336   4.701   6.513  1.8421 -0.2287 -0.1147
   22MOL   H89619838   5.642   4.896   6.286  0.8998 -2.4171 -2.0911
   22MOL   H89719839   5.515   4.879   6.092  1.5360 -0.8173 -0.0896
   22MOL   H89819840   5.743   4.711   6.465 -1.8039  1.0606 -1.0666
   22MOL   H89919841   5.865   4.689   6.677  0.1762  0.5086  0.7683
   22MOL   H90019842   5.555   4.920   6.874 -0.7280 -1.1186 -0.1856
   22MOL   H90119843   5.431   4.920   6.663 -0.9282 -1.7057 -1.2782
   22MOL   H90219844   5.859   4.732   6.914 -0.4520 -0.6124 -0.7606
   23MOL     C119845   3.779   7.730   6.531  0.6308 -0.3940  0.2597
   23MOL     C219846   3.902   7.674   6.571 -0.0758  0.6011 -0.1543
   23MOL     C319847   3.936   7.540   6.532  0.2762  0.0745  0.1040
   23MOL     C419848   3.848   7.463   6.458 -0.3346  1.2850  0.3248
   23MOL     C519849   3.723   7.517   6.428  0.1695  0.1959 -0.1120
   23MOL     C619850   3.683   7.650   6.469 -0.1717  0.3134 -0.3557
   23MOL     S719851   3.882   7.293   6.403 -0.1624  0.2504  0.0055
   23MOL     O819852   3.859   7.286   6.261 -0.1499  0.1146 -0.1255
   23MOL     O919853   3.804   7.205   6.493  0.4749  0.3631 -0.3112
   23MOL    C1019854   4.055   7.267   6.451 -0.7817  0.4460  0.7196
   23MOL    C1119855   4.150   7.274   6.345  0.7824  0.1644  0.1075
   23MOL    C1219856   4.284   7.250   6.383 -0.1999  0.0084  0.2453
   23MOL    C1319857   4.318   7.208   6.514 -0.5452 -0.0305 -0.2670
   23MOL    C1419858   4.220   7.195   6.617  0.0417 -0.2462 -0.0025
   23MOL    C1519859   4.083   7.217   6.583  0.3241  0.7289  0.4457
   23MOL    O1619860   4.450   7.185   6.540 -0.1053  0.3697  0.1222
   23MOL    C1719861   4.496   7.058   6.523 -0.6288 -0.2217  0.9112
   23MOL    C1819862   4.617   7.025   6.591 -0.4051  0.4746 -0.1504
   23MOL    C1919863   4.675   6.903   6.566 -0.5931  0.0563  0.1633
   23MOL    C2019864   4.608   6.803   6.489 -0.1817 -0.2229 -0.0672
   23MOL    C2119865   4.479   6.831   6.438  0.6854 -0.4772 -0.0679
   23MOL    C2219866   4.428   6.959   6.452 -0.2709  0.4337 -0.4269
   23MOL    C2319867   4.663   6.673   6.478 -0.3560 -0.1606  0.2140
   23MOL    C2419868   4.789   6.644   6.420  0.1215 -0.5233  0.0224
   23MOL    C2519869   4.825   6.512   6.407  0.6748  0.1495  0.4303
   23MOL    C2619870   4.746   6.402   6.449 -0.0020  0.0818  0.6066
   23MOL    C2719871   4.616   6.429   6.499 -0.6113 -0.5389 -0.2518
   23MOL    C2819872   4.575   6.569   6.508 -1.0276 -0.7845 -0.1619
   23MOL    O2919873   4.794   6.278   6.430  0.1632  0.0022 -0.3481
   23MOL    H3019874   3.975   7.717   6.637 -0.6867 -0.3593  1.1804
   23MOL    H3119875   4.035   7.506   6.558 -1.0363 -2.5776  1.7013
   23MOL    H3219876   3.659   7.445   6.380 -0.0910  0.5020 -0.2225
   23MOL    H3319877   3.586   7.691   6.446 -0.3257  1.3381  1.9998
   23MOL    H3419878   4.121   7.298   6.244  1.7421 -2.6225 -0.8902
   23MOL    H3519879   4.358   7.254   6.304 -0.9632 -0.4843 -0.5120
   23MOL    H3619880   4.239   7.161   6.718  1.5262 -0.9937 -0.5288
   23MOL    H3719881   3.996   7.189   6.640  0.4678 -1.5891 -0.3911
   23MOL    H3819882   4.664   7.102   6.651  1.9221 -0.1731 -1.0748
   23MOL    H3919883   4.769   6.888   6.616 -2.1046 -0.8584  2.7983
   23MOL    H4019884   4.424   6.758   6.380 -0.6575 -1.5135  2.3896
   23MOL    H4119885   4.334   6.976   6.401 -1.0256 -0.4855  0.6332
   23MOL    H4219886   4.854   6.722   6.382  0.7348 -0.7808  0.5401
   23MOL    H4319887   4.917   6.488   6.356  0.0127  0.1475 -0.7834
   23MOL    H4419888   4.546   6.351   6.524 -0.0979 -0.9339 -0.0479
   23MOL    H4519889   4.480   6.595   6.553 -1.6573  2.8797 -3.3950
   23MOL    H4619890   3.768   7.832   6.566 -1.4591  0.3890 -2.5348
   23MOL    C4719891   4.774   6.192   6.535  0.3888  1.1366  0.3872
   23MOL    C4819892   4.865   6.185   6.642  0.0936 -0.3571 -0.1624
   23MOL    C4919893   4.840   6.097   6.746  0.0415  0.0050  0.2671
   23MOL    C5019894   4.720   6.028   6.761  0.4606 -0.0706 -0.6545
   23MOL    C5119895   4.633   6.028   6.649 -0.0219  0.4588 -0.2739
   23MOL    C5219896   4.667   6.101   6.533 -0.1616  0.1219 -0.2861
   23MOL    S5319897   4.680   5.932   6.900 -0.3225  0.4283 -0.5001
   23MOL    O5419898   4.730   5.797   6.873  0.2444 -0.0416  0.7764
   23MOL    O5519899   4.535   5.952   6.930  0.4344  0.0177  0.0814
   23MOL    C5619900   4.776   5.991   7.036  0.1865  0.8049 -1.0284
   23MOL    C5719901   4.738   6.109   7.108 -0.0205 -0.6929  0.3586
   23MOL    C5819902   4.822   6.165   7.211 -0.2029 -0.2686 -0.0719
   23MOL    C5919903   4.941   6.101   7.245  0.1018  0.4969  0.6414
   23MOL    C6019904   4.969   5.980   7.184  0.3311 -0.0339  0.5042
   23MOL    C6119905   4.886   5.920   7.085 -0.0191  0.4733 -0.6369
   23MOL    O6219906   5.025   6.159   7.339 -0.4012 -0.5386  0.6557
   23MOL    C6319907   5.009   6.139   7.477  0.7272  0.6439 -0.1632
   23MOL    C6419908   5.110   6.103   7.562 -0.3213 -0.0695 -0.2062
   23MOL    C6519909   5.098   6.104   7.707  0.5305  0.4766 -0.2467
   23MOL    C6619910   4.986   6.164   7.767  0.5585  0.5097  0.6257
   23MOL    C6719911   4.873   6.193   7.676  0.8742 -0.1102  0.1184
   23MOL    C6819912   4.894   6.188   7.536 -0.1683 -0.0010 -0.3071
   23MOL    C6919913   4.977   6.180   7.912 -0.1261 -0.0851 -0.1264
   23MOL    C7019914   4.914   6.293   7.961 -0.5177 -0.7273 -0.7961
   23MOL    C7119915   4.878   6.310   8.096 -0.1920  0.3956  0.6702
   23MOL    C7219916   4.908   6.210   8.190  0.3820  0.3073  0.6779
   23MOL    C7319917   4.975   6.093   8.142  0.2523 -0.1002  0.4024
   23MOL    C7419918   5.011   6.081   8.006  0.2703 -0.2521  0.2522
   23MOL    O7519919   4.860   6.226   8.315 -0.0360  0.6822 -0.1420
   23MOL    H7619920   4.947   6.255   6.652  1.0274 -1.5333  0.6576
   23MOL    H7719921   4.919   6.079   6.817  1.1696 -1.6877 -1.3703
   23MOL    H7819922   4.540   5.973   6.653 -0.5994  1.2290 -2.7142
   23MOL    H7919923   4.602   6.096   6.447 -0.4948 -1.6555  0.0571
   23MOL    H8019924   4.652   6.161   7.069 -0.7443 -1.6930  0.6067
   23MOL    H8119925   4.785   6.249   7.267  1.2121  0.9666 -0.9549
   23MOL    H8219926   5.057   5.933   7.224  0.4722 -0.4622 -0.3044
   23MOL    H8319927   4.912   5.824   7.045 -0.0845 -0.2174  0.9575
   23MOL    H8419928   5.211   6.088   7.526  0.3883 -2.0992  2.4579
   23MOL    H8519929   5.183   6.065   7.760  0.4023 -0.0926 -0.4601
   23MOL    H8619930   4.785   6.230   7.726  1.1658 -1.6905  1.8539
   23MOL    H8719931   4.817   6.222   7.468 -1.8579 -1.0884  1.0135
   23MOL    H8819932   4.888   6.366   7.886  2.5072  1.0305 -0.2315
   23MOL    H8919933   4.818   6.397   8.116 -0.3787  0.4906 -0.2797
   23MOL    H9019934   5.000   6.011   8.208 -1.8657  0.5352  2.0577
   23MOL    H9119935   5.061   5.991   7.974 -2.7431 -1.8989  0.0460
   23MOL    C9219936   4.725   6.190   8.330 -0.2786 -0.5801  0.0423
   23MOL    C9319937   4.689   6.060   8.353  0.4210  0.2172 -0.1859
   23MOL    C9419938   4.551   6.030   0.013  0.1106 -0.1486  0.5483
   23MOL    C9519939   4.456   6.131   8.359  0.4770 -0.0308 -0.4542
   23MOL    C9619940   4.497   6.261   8.335  0.1058 -0.1313 -0.2947
   23MOL    C9719941   4.633   6.291   8.322  0.2404  0.3283 -0.2490
   23MOL    S9819942   4.286   6.087   0.009  0.0548 -0.4065  0.0226
   23MOL    O9919943   4.206   6.211   0.010 -0.0563 -0.4596  0.2288
   23MOL   O10019944   4.276   5.986   0.117  0.1106 -0.0326 -0.1282
   23MOL   C10119945   4.258   5.992   8.224  0.5656 -0.2015 -0.1938
   23MOL   C10219946   4.337   6.010   8.110  0.4587 -0.3804 -0.5263
   23MOL   C10319947   4.317   5.930   7.999 -0.1605 -0.1357  0.0343
   23MOL   C10419948   4.219   5.835   7.999 -0.1395 -0.6297  0.3204
   23MOL   C10519949   4.126   5.826   8.101  0.1067  0.5556  0.8577
   23MOL   C10619950   4.146   5.909   8.214 -0.0703 -0.0537 -0.1454
   23MOL   O10719951   4.209   5.751   7.897  0.9986  0.0447 -0.1410
   23MOL   C10819952   4.108   5.772   7.806  0.2204 -0.1269 -0.1673
   23MOL   C10919953   3.996   5.689   7.800  0.2373  0.1217  0.3931
   23MOL   C11019954   3.906   5.701   7.696  0.0315 -1.2253 -0.3069
   23MOL   C11119955   3.921   5.811   7.611 -0.2047  0.3314  0.3663
   23MOL   C11219956   4.037   5.888   7.615  0.3027  0.7172  0.1392
   23MOL   C11319957   4.126   5.878   7.717 -0.0766  0.7547  0.6279
   23MOL   C11419958   3.820   5.840   7.513 -0.6904  0.9406  0.4080
   23MOL   C11519959   3.811   5.761   7.396 -0.0178  0.2729 -0.2039
   23MOL   C11619960   3.737   5.802   7.282 -0.0455 -0.3903 -0.2227
   23MOL   C11719961   3.661   5.917   7.287 -0.1745  0.5477  0.7028
   23MOL   C11819962   3.656   5.986   7.411 -1.1487 -0.3423 -0.3855
   23MOL   C11919963   3.739   5.953   7.518  0.1529  0.6134 -1.0778
   23MOL   O12019964   3.576   5.954   7.183  0.3108 -0.2345  0.2438
   23MOL   H12119965   4.766   5.985   8.355 -0.2080 -0.4189  0.5409
   23MOL   H12219966   4.529   5.932   0.054  2.3706 -0.6357  0.6615
   23MOL   H12319967   4.420   6.336   8.322  0.5992  0.3279 -0.5890
   23MOL   H12419968   4.671   6.391   8.304 -1.0971  0.5773 -1.8369
   23MOL   H12519969   4.418   6.079   8.093 -1.5460  1.5670 -2.5578
   23MOL   H12619970   4.387   5.938   7.918  1.9735 -1.6314  1.6962
   23MOL   H12719971   4.043   5.756   8.097  0.8218 -0.2285 -0.4037
   23MOL   H12819972   4.087   5.902   8.304  0.5893 -2.3009  0.1456
   23MOL   H12919973   3.972   5.612   7.871 -2.3846 -0.5630 -1.1696
   23MOL   H13019974   3.820   5.637   7.688 -0.2207 -0.8796 -0.3443
   23MOL   H13119975   4.062   5.966   7.545  0.8447 -0.3203 -0.8249
   23MOL   H13219976   4.216   5.938   7.714  0.0035  0.6639  1.1485
   23MOL   H13319977   3.871   5.671   7.385  0.3464  0.6706 -1.5403
   23MOL   H13419978   3.725   5.746   7.190  0.3590  2.7060 -2.2307
   23MOL   H13519979   3.589   6.067   7.435 -0.0018  0.7492 -0.8653
   23MOL   H13619980   3.733   6.010   7.609 -0.5540 -1.7330  0.4017
   23MOL   C13719981   3.635   6.030   7.080  0.0851  0.7119  0.1122
   23MOL   C13819982   3.639   6.175   7.101 -0.0360 -0.1143 -0.3352
   23MOL   C13919983   3.715   6.254   7.013  0.0455 -0.6926  0.2461
   23MOL   C14019984   3.771   6.201   6.895  0.0634 -0.3002 -0.1677
   23MOL   C14119985   3.748   6.064   6.860 -1.1601 -0.1146  0.2763
   23MOL   C14219986   3.690   5.981   6.955 -0.2087  0.2806 -0.3861
   23MOL   S14319987   3.875   6.311   6.795  0.5764 -0.6127 -0.3150
   23MOL   O14419988   3.792   6.425   6.741  0.0618 -0.0615 -0.5704
   23MOL   O14519989   3.948   6.227   6.702 -0.6937  0.0830 -0.5714
   23MOL   C14619990   3.996   6.380   6.905  0.4141  0.3019  0.6645
   23MOL   C14719991   4.099   6.299   6.956  1.2219 -0.4014 -0.0783
   23MOL   C14819992   4.203   6.360   7.031 -0.7625 -0.0698  0.1568
   23MOL   C14919993   4.203   6.502   7.053 -0.0619  0.5965  0.0642
   23MOL   C15019994   4.095   6.580   7.007  0.2389 -0.0915 -0.2196
   23MOL   C15119995   3.991   6.519   6.937 -0.2543 -0.1499  0.9939
   23MOL   O15219996   4.315   6.562   7.109  0.9766  0.2661  0.5430
   23MOL   C15319997   4.442   6.532   7.055  0.3009 -0.2345  0.2225
   23MOL   C15419998   4.546   6.514   7.141 -0.3681 -0.4848 -0.2834
   23MOL   C15519999   4.680   6.494   7.099  0.2050 -1.0736  0.5622
   23MOL   C15620000   4.705   6.481   6.960 -0.1789  0.0831  0.2391
   23MOL   C15720001   4.593   6.492   6.870  0.1082 -0.2159 -0.2394
   23MOL   C15820002   4.466   6.527   6.915  0.0003  0.5924 -0.0718
   23MOL   C15920003   4.843   6.457   6.912  0.2257 -0.3325 -0.1014
   23MOL   C16020004   4.873   6.516   6.786 -0.2190 -0.5974  0.4177
   23MOL   C16120005   5.001   6.506   6.733 -0.1422 -0.3153  0.7980
   23MOL   C16220006   5.101   6.425   6.798  0.4455 -0.0097 -0.5695
   23MOL   C16320007   5.071   6.362   6.921  0.2132  0.1767 -0.2928
   23MOL   C16420008   4.948   6.391   6.984 -0.5588  0.3643  0.2069
   23MOL   O16520009   5.225   6.403   6.737 -0.2269  0.6295  0.0876
   23MOL   H16620010   3.581   6.212   7.185 -2.0475 -1.0556 -1.2860
   23MOL   H16720011   3.725   6.360   7.025  2.6324 -0.6642 -1.5866
   23MOL   H16820012   3.790   6.031   6.767 -2.0522  1.4153 -0.6826
   23MOL   H16920013   3.687   5.874   6.942 -0.8925  0.0743  1.2381
   23MOL   H17020014   4.099   6.194   6.930 -1.1726 -0.7227  1.0562
   23MOL   H17120015   4.291   6.301   7.051 -0.3714  1.1139  2.1094
   23MOL   H17220016   4.104   6.688   7.005 -1.3378  0.0425 -0.6671
   23MOL   H17320017   3.912   6.579   6.894  0.7165 -0.4016 -1.2554
   23MOL   H17420018   4.543   6.509   7.249 -0.6763 -0.6809 -0.3026
   23MOL   H17520019   4.761   6.476   7.168 -0.2558  1.1407  1.7141
   23MOL   H17620020   4.619   6.479   6.766 -0.3545  1.6483 -0.6203
   23MOL   H17720021   4.386   6.558   6.850 -0.0013  1.7198  0.4657
   23MOL   H17820022   4.802   6.574   6.730  0.8801  0.9714  0.6320
   23MOL   H17920023   5.025   6.545   6.635  0.5119  1.3565  1.6150
   23MOL   H18020024   5.148   6.299   6.962  0.7662  0.2388 -1.2336
   23MOL   H18120025   4.938   6.360   7.087  0.2814  0.5738  0.3612
   23MOL   C18220026   5.240   6.418   6.599 -0.4597  0.2103 -0.0546
   23MOL   C18320027   5.196   6.325   6.505 -0.5417 -1.1745 -0.5596
   23MOL   C18420028   5.195   6.359   6.370 -0.5353 -0.0819 -0.6648
   23MOL   C18520029   5.258   6.484   6.324 -0.5836 -0.2179  0.6595
   23MOL   C18620030   5.311   6.571   6.421  0.0969  0.2549  0.0969
   23MOL   C18720031   5.315   6.531   6.552 -0.1452 -0.8085 -0.6517
   23MOL   S18820032   5.255   6.531   6.146 -0.3879 -0.0652 -0.1883
   23MOL   O18920033   5.389   6.562   6.102 -0.2818  0.2748  0.2407
   23MOL   O19020034   5.150   6.636   6.142  0.2600 -0.4164 -0.3252
   23MOL   C19120035   5.197   6.390   6.060 -0.8373  0.1016  0.5572
   23MOL   C19220036   5.297   6.297   6.012  0.4580 -0.3381  1.0680
   23MOL   C19320037   5.257   6.191   5.930 -0.0806 -0.0360 -0.6624
   23MOL   C19420038   5.123   6.159   5.919  0.0144  0.4210 -0.1920
   23MOL   C19520039   5.023   6.234   5.985  0.6559  0.0666 -0.0606
   23MOL   C19620040   5.060   6.353   6.051  0.9946 -0.0838  0.0748
   23MOL   O19720041   5.102   6.047   5.844  0.3276  0.4768 -0.5392
   23MOL   C19820042   5.003   5.951   5.876 -0.2437 -0.4599  0.8544
   23MOL   C19920043   4.934   5.892   5.767 -0.2074 -0.1912 -0.4528
   23MOL   C20020044   4.839   5.794   5.786  0.1929 -0.1898  0.0198
   23MOL   C20120045   4.821   5.738   5.915 -0.0482 -0.1926  0.3137
   23MOL   C20220046   4.889   5.799   6.028  0.2206 -0.3233 -0.4727
   23MOL   C20320047   4.980   5.900   6.005 -0.2432  0.7558 -0.1948
   23MOL   C20420048   4.731   5.624   5.937 -0.0877 -0.4915  0.5485
   23MOL   C20520049   4.740   5.541   6.045 -0.3578 -0.6373 -0.5511
   23MOL   C20620050   4.648   5.436   6.076 -0.2096 -0.2494 -0.4784
   23MOL   C20720051   4.542   5.406   5.982  1.1387 -0.2945 -0.3388
   23MOL   C20820052   4.533   5.484   5.866 -0.0001 -0.1550 -0.2074
   23MOL   C20920053   4.623   5.590   5.848 -0.2011  0.0266  0.3577
   23MOL   O21020054   4.454   5.301   6.004 -0.0662 -0.0597  0.2736
   23MOL   H21120055   5.145   6.236   6.537 -1.1669 -0.5176  0.2950
   23MOL   H21220056   5.160   6.280   6.305  0.6986 -0.0165 -1.4343
   23MOL   H21320057   5.362   6.664   6.397 -0.6942  0.4500 -0.8515
   23MOL   H21420058   5.356   6.608   6.615 -0.9325 -0.7824 -0.1725
   23MOL   H21520059   5.402   6.320   6.023  0.3966  0.0754  0.7668
   23MOL   H21620060   5.325   6.131   5.870 -0.5571 -0.4795 -0.7617
   23MOL   H21720061   4.918   6.209   5.985 -0.4880  4.5540 -0.1101
   23MOL   H21820062   4.989   6.425   6.088 -0.2870 -0.7873 -0.9536
   23MOL   H21920063   4.956   5.929   5.668 -1.2471  2.7441  0.3466
   23MOL   H22020064   4.809   5.733   5.702  1.3907 -0.7109 -0.0482
   23MOL   H22120065   4.878   5.767   6.130  0.4847  1.5734  0.1683
   23MOL   H22220066   5.031   5.944   6.090  0.5327  0.1510 -0.3386
   23MOL   H22320067   4.805   5.559   6.129 -0.7285 -0.7112 -0.2463
   23MOL   H22420068   4.670   5.371   6.160 -1.0635  0.1342  0.0597
   23MOL   H22520069   4.464   5.458   5.787 -0.2165  3.6041 -1.3168
   23MOL   H22620070   4.613   5.629   5.747 -2.3696 -2.6383 -0.5336
   23MOL   C22720071   4.487   5.176   5.970  0.4368  0.2299  0.0540
   23MOL   C22820072   4.600   5.107   6.029  0.5241 -0.0319  0.3091
   23MOL   C22920073   4.629   4.975   5.997 -0.2525  0.7201  0.4951
   23MOL   C23020074   4.559   4.911   5.897  0.3456  0.6185  0.4975
   23MOL   C23120075   4.452   4.976   5.830  0.5475 -0.2233  0.4683
   23MOL   C23220076   4.412   5.106   5.870  0.4991  0.4912  0.1343
   23MOL   S23320077   4.588   4.733   5.885  0.0322 -0.3125 -0.1975
   23MOL   O23420078   4.734   4.709   5.888  0.6549 -0.0963  0.2802
   23MOL   O23520079   4.518   4.691   5.762  0.0405  0.1152  0.1479
   23MOL   C23620080   4.498   4.656   6.021 -0.2476  0.4299  0.3944
   23MOL   C23720081   4.558   4.577   6.117 -0.2866  0.1256 -0.0864
   23MOL   C23820082   4.486   4.517   6.220 -1.0389  0.7973 -0.3845
   23MOL   C23920083   4.346   4.536   6.225  0.7683 -0.5251  0.3121
   23MOL   C24020084   4.276   4.611   6.125  0.4913 -0.1848  0.4727
   23MOL   C24120085   4.356   4.667   6.025  0.1177  0.0954  0.5242
   23MOL   O24220086   4.285   4.495   6.343 -0.2331  0.6840  0.3325
   23MOL   C24320087   4.232   4.369   6.358 -0.9871  0.0595 -0.5803
   23MOL   C24420088   4.309   4.255   6.350 -0.5458 -0.0907  0.1316
   23MOL   C24520089   4.258   4.134   6.383  0.0092  0.6387  0.4707
   23MOL   C24620090   4.126   4.123   6.415 -0.4238  0.1030 -0.1348
   23MOL   C24720091   4.043   4.234   6.419  0.7737  0.0303  0.3500
   23MOL   C24820092   4.101   4.364   6.400 -0.1343 -0.0317 -0.2153
   23MOL   C24920093   4.085   3.984   6.451 -0.0798 -0.0382 -0.0862
   23MOL   C25020094   3.984   3.957   6.545 -0.1482  0.6979 -0.5966
   23MOL   C25120095   3.937   3.831   6.570 -0.2934 -0.0995  0.1436
   23MOL   C25220096   3.999   3.722   6.505  0.1485 -0.3454  0.5620
   23MOL   C25320097   4.096   3.738   6.407 -0.5918 -0.5095  0.1785
   23MOL   C25420098   4.128   3.870   6.378 -0.0350 -0.0305  0.6207
   23MOL   O25520099   3.961   3.589   6.526  0.5790 -0.0261  0.1872
   23MOL   H25620100   4.647   5.166   6.106 -2.0449 -0.3718  2.2183
   23MOL   H25720101   4.708   4.918   6.044  0.6762 -0.8639 -2.8545
   23MOL   H25820102   4.395   4.922   5.756 -1.6421  1.3064  1.0048
   23MOL   H25920103   4.336   5.159   5.815 -2.7809  1.5548  5.3956
   23MOL   H26020104   4.662   4.554   6.096  0.8250  4.1089  0.6629
   23MOL   H26120105   4.541   4.472   6.300 -0.1443  2.5008 -0.0106
   23MOL   H26220106   4.169   4.628   6.127  0.1960 -1.7616 -0.3641
   23MOL   H26320107   4.311   4.732   5.951 -2.0063 -2.3425 -0.4209
   23MOL   H26420108   4.412   4.269   6.319 -0.2601 -2.3818 -0.0309
   23MOL   H26520109   4.324   4.050   6.374  0.9889  1.3491  1.0008
   23MOL   H26620110   3.942   4.224   6.456 -0.1263  0.4999 -1.8819
   23MOL   H26720111   4.033   4.448   6.401 -1.3103 -0.9318 -2.4148
   23MOL   H26820112   3.923   4.039   6.581 -1.2957 -0.2255 -0.4089
   23MOL   H26920113   3.856   3.819   6.641 -1.6625 -1.3049 -1.5711
   23MOL   H27020114   4.141   3.650   6.363  0.1557  0.0374 -0.1496
   23MOL   H27120115   4.196   3.883   6.295 -1.4499 -1.2151 -0.7838
   23MOL   C27220116   3.838   3.544   6.484 -0.6457 -0.6477  0.0145
   23MOL   C27320117   3.826   3.482   6.360  0.3307 -0.0498  0.2812
   23MOL   C27420118   3.707   3.422   6.317  0.3690 -0.2174 -0.3426
   23MOL   C27520119   3.600   3.418   6.408 -0.5021  0.8199 -0.2555
   23MOL   C27620120   3.615   3.467   6.537  0.2040 -0.2216 -0.0328
   23MOL   C27720121   3.730   3.534   6.578 -0.6799 -0.0702  0.5917
   23MOL   S27820122   3.443   3.336   6.369  0.2824 -0.5529 -0.1068
   23MOL   O27920123   3.357   3.441   6.310  0.2246 -0.0470 -0.0074
   23MOL   O28020124   3.399   3.269   6.494 -0.3002 -0.0494  0.2349
   23MOL   C28120125   3.469   3.208   6.239 -0.5071  0.0580  0.7394
   23MOL   C28220126   3.479   3.254   6.106 -0.7464 -0.7164 -0.0400
   23MOL   C28320127   3.504   3.160   6.003  0.3469  0.7382  0.2904
   23MOL   C28420128   3.501   3.022   6.027 -0.0150 -0.2718  0.3509
   23MOL   C28520129   3.486   2.980   6.165  0.1037  0.6570 -0.2238
   23MOL   C28620130   3.480   3.070   6.271  0.3250 -0.2052 -0.1022
   23MOL   O28720131   3.529   2.932   5.929 -0.5872 -0.3306  0.3146
   23MOL   C28820132   3.428   2.915   5.837  1.0385 -0.0153 -0.5240
   23MOL   C28920133   3.449   2.951   5.703  0.1980  0.5065  0.4486
   23MOL   C29020134   3.352   2.912   5.609  0.5312  0.1876 -0.0033
   23MOL   C29120135   3.228   2.848   5.644  0.3545 -0.3283 -0.1346
   23MOL   C29220136   3.207   2.821   5.777  0.7657  0.1082  0.0039
   23MOL   C29320137   3.304   2.858   5.870  0.4389  0.0360 -0.0162
   23MOL   C29420138   3.132   2.803   5.544  0.5092  0.0678 -0.7763
   23MOL   C29520139   3.043   2.696   5.576  0.2188 -0.3835 -0.2790
   23MOL   C29620140   2.931   2.673   5.496 -0.3028  0.8267 -0.1258
   23MOL   C29720141   2.928   2.732   5.367 -0.6953 -0.4842 -0.1006
   23MOL   C29820142   3.025   2.822   5.329 -0.0364  0.1508 -0.1531
   23MOL   C29920143   3.115   2.871   5.424  0.0386  0.2435  0.4570
   23MOL   O30020144   2.815   2.716   5.288 -0.0811  0.5631 -0.1385
   23MOL   H30120145   3.906   3.475   6.289 -0.9509  0.6065 -1.2554
   23MOL   H30220146   3.695   3.381   6.218 -2.8713  1.7691 -0.8182
   23MOL   H30320147   3.532   3.452   6.604 -0.9602 -0.7812 -1.6009
   23MOL   H30420148   3.753   3.577   6.675  3.2339 -0.8290  0.0895
   23MOL   H30520149   3.466   3.360   6.093 -1.5885 -0.4650  2.4279
   23MOL   H30620150   3.514   3.193   5.901  1.3157 -2.0263 -0.5539
   23MOL   H30720151   3.481   2.873   6.180  1.6637  0.3512 -1.7075
   23MOL   H30820152   3.458   3.043   6.373  0.7225  0.4277  0.1584
   23MOL   H30920153   3.539   2.993   5.661 -0.4556  1.3145 -0.1349
   23MOL   H31020154   3.372   2.936   5.505  2.0405  2.4440  0.7650
   23MOL   H31120155   3.110   2.780   5.800 -0.4317  2.1591 -1.1974
   23MOL   H31220156   3.294   2.828   5.974  1.9545  3.8835  1.3297
   23MOL   H31320157   3.056   2.634   5.664 -0.6064 -1.1194 -0.6638
   23MOL   H31420158   2.857   2.598   5.515  0.2438  0.1231 -0.7706
   23MOL   H31520159   3.025   2.872   5.233  1.4034  1.7774  0.6671
   23MOL   H31620160   3.180   2.952   5.394 -3.8022  2.6822 -1.6070
   23MOL   C31720161   2.833   2.682   5.155 -0.3881  0.7205 -0.3388
   23MOL   C31820162   2.841   2.780   5.054 -0.0243  0.3243 -1.0357
   23MOL   C31920163   2.851   2.738   4.918  0.3451  0.1670  0.5117
   23MOL   C32020164   2.834   2.597   4.894 -0.5842 -0.2797  0.1081
   23MOL   C32120165   2.827   2.504   5.001 -0.5680  0.1880 -0.0127
   23MOL   C32220166   2.828   2.547   5.134  1.0063  0.3874  0.2755
   23MOL   S32320167   2.847   2.519   4.735 -0.3819 -0.1210 -0.1096
   23MOL   O32420168   2.711   2.485   4.691  0.3630 -0.9390 -0.3326
   23MOL   O32520169   2.948   2.414   4.759 -0.0656  0.0632 -0.4103
   23MOL   C32620170   2.917   2.646   4.627  0.3265 -0.1439  0.3746
   23MOL   C32720171   3.053   2.645   4.597  0.0483 -0.1088  0.0150
   23MOL   C32820172   3.107   2.753   4.530  0.0589  0.2039 -0.3705
   23MOL   C32920173   3.030   2.869   4.500  0.4495  0.2498  0.1755
   23MOL   C33020174   2.890   2.862   4.510 -0.0693  0.7219 -0.6157
   23MOL   C33120175   2.834   2.747   4.580  0.4234  0.0426  0.1321
   23MOL   O33220176   3.080   2.974   4.438 -0.1102  0.0612  0.0889
   23MOL   C33320177   3.144   3.069   4.510  0.3781 -0.7657 -0.0637
   23MOL   C33420178   3.274   3.050   4.556  0.3989 -0.2025  0.1927
   23MOL   C33520179   3.332   3.149   4.632  0.8739 -0.4783 -0.4727
   23MOL   C33620180   3.266   3.275   4.655  0.0494 -0.4386  0.0035
   23MOL   C33720181   3.137   3.289   4.612  0.3990 -0.5088 -0.0219
   23MOL   C33820182   3.083   3.192   4.524  0.2078  0.2286 -0.2057
   23MOL   C33920183   3.329   3.375   4.744 -0.6404  0.0757  0.0966
   23MOL   C34020184   3.468   3.418   4.735  0.0831  0.6303  0.3427
   23MOL   C34120185   3.527   3.495   4.835 -0.0815  0.4387  0.5661
   23MOL   C34220186   3.445   3.554   4.935 -0.3334 -0.7204 -0.0991
   23MOL   C34320187   3.311   3.511   4.948  0.1078 -0.3041  0.1188
   23MOL   C34420188   3.254   3.424   4.849 -0.1954 -0.1301 -0.3964
   23MOL   O34520189   3.495   3.640   5.033 -0.1944  0.5132  0.0657
   23MOL   H34620190   2.826   2.884   5.083 -2.1679 -0.5774  1.3181
   23MOL   H34720191   2.867   2.813   4.842  1.7849  0.3476  0.9677
   23MOL   H34820192   2.823   2.397   4.993 -2.1412  0.0843  1.6769
   23MOL   H34920193   2.817   2.473   5.213 -0.3006 -0.3684 -0.5980
   23MOL   H35020194   3.108   2.562   4.638 -0.1440  0.4198  1.3968
   23MOL   H35120195   3.214   2.751   4.511  0.5291 -3.1990  2.2153
   23MOL   H35220196   2.832   2.945   4.472  0.4354  1.2154 -0.3203
   23MOL   H35320197   2.727   2.740   4.592  0.6432 -0.2381  2.1860
   23MOL   H35420198   3.325   2.963   4.517  0.9040  1.3250 -2.5995
   23MOL   H35520199   3.431   3.123   4.666  0.8868  1.0793  0.7374
   23MOL   H35620200   3.085   3.381   4.634  0.8039 -0.6238  1.4297
   23MOL   H35720201   2.985   3.208   4.483 -0.5057 -1.7205  0.6687
   23MOL   H35820202   3.534   3.376   4.661 -1.6330 -1.6458  0.0476
   23MOL   H35920203   3.630   3.524   4.824 -0.6221  1.9463 -0.5738
   23MOL   H36020204   3.245   3.546   5.026 -0.1704  1.4342 -0.8667
   23MOL   H36120205   3.152   3.390   4.862 -0.1835 -0.6251 -1.5772
   23MOL   C36220206   3.631   3.662   5.062  0.8058 -0.5331 -0.3517
   23MOL   C36320207   3.713   3.557   5.104  0.4921 -0.1179  0.7874
   23MOL   C36420208   3.846   3.577   5.137  0.0216  0.1889  0.1020
   23MOL   C36520209   3.904   3.699   5.113 -0.4780 -1.2897  0.0891
   23MOL   C36620210   3.827   3.805   5.063  0.8800 -0.0818 -0.1207
   23MOL   C36720211   3.689   3.792   5.041  0.1755  0.8906 -0.5276
   23MOL   S36820212   4.079   3.727   5.143  0.1258 -0.1528  0.4502
   23MOL   O36920213   4.104   3.871   5.173 -0.0152  0.1004  0.4478
   23MOL   O37020214   4.149   3.661   5.034  0.9601 -0.1126  0.7831
   23MOL   C37120215   4.117   3.626   5.290 -0.0734  0.1910 -0.1115
   23MOL   C37220216   4.176   3.502   5.276 -0.4067 -0.1303 -0.2302
   23MOL   C37320217   4.215   3.426   5.384  0.3128  0.1306 -0.0757
   23MOL   C37420218   4.193   3.484   5.512 -0.5600 -0.7150 -0.0121
   23MOL   C37520219   4.138   3.615   5.533  0.8393 -0.1928 -0.3352
   23MOL   C37620220   4.095   3.685   5.421 -0.2781  0.1894 -0.5006
   23MOL   O37720221   4.253   3.413   5.609 -0.2291 -0.9351 -0.3598
   23MOL   C37820222   4.273   3.452   5.737 -0.6852  0.8772 -0.1767
   23MOL   C37920223   4.157   3.449   5.823  0.1959  0.5741  0.2486
   23MOL   C38020224   4.177   3.485   5.958  0.3048  0.4185  0.2603
   23MOL   C38120225   4.305   3.507   6.013  0.5204 -0.5729 -0.4346
   23MOL   C38220226   4.416   3.505   5.932 -0.5386 -0.1874  0.2621
   23MOL   C38320227   4.399   3.478   5.797 -0.5385 -0.1301  0.1352
   23MOL   C38420228   4.316   3.501   6.161  0.3625 -0.1106 -0.0982
   23MOL   C38520229   4.393   3.590   6.234 -0.1410  0.5585 -0.1955
   23MOL   C38620230   4.412   3.576   6.369  0.0272  0.7371 -0.3689
   23MOL   C38720231   4.350   3.473   6.444 -0.4147 -0.5438 -0.3846
   23MOL   C38820232   4.275   3.381   6.374  0.8113 -1.5413 -0.1565
   23MOL   C38920233   4.250   3.397   6.234 -0.2548  0.9287 -0.1886
   23MOL   O39020234   4.375   3.458   6.575  0.5179  0.4557 -0.2026
   23MOL   H39120235   3.671   3.460   5.130  0.5351  0.2881  2.4452
   23MOL   H39220236   3.909   3.500   5.180 -1.3833 -0.4273  1.0894
   23MOL   H39320237   3.863   3.904   5.042  0.2694  0.4102  1.0984
   23MOL   H39420238   3.626   3.869   5.000 -0.5463  0.6048  0.0412
   23MOL   H39520239   4.194   3.462   5.177 -0.8154  3.3113 -1.7478
   23MOL   H39620240   4.259   3.330   5.362  0.9307  0.7289 -1.4709
   23MOL   H39720241   4.128   3.653   5.634 -1.0271  0.8517 -0.9020
   23MOL   H39820242   4.070   3.788   5.439  3.9271  0.6778  3.4473
   23MOL   H39920243   4.059   3.415   5.794  0.7443 -1.5958  0.8474
   23MOL   H40020244   4.091   3.478   6.022 -0.6047  0.3357 -0.9448
   23MOL   H40120245   4.514   3.522   5.973 -0.0094 -2.3568 -0.0049
   23MOL   H40220246   4.486   3.477   5.733  0.1780 -0.2897  1.0884
   23MOL   H40320247   4.441   3.668   6.176 -0.6224  0.1874 -1.1146
   23MOL   H40420248   4.476   3.639   6.429  2.0172 -2.4596  0.9961
   23MOL   H40520249   4.228   3.301   6.429 -1.6673  0.7689  1.1870
   23MOL   H40620250   4.188   3.325   6.183 -1.0686  1.1494  0.4649
   23MOL   C40720251   4.275   3.485   6.662  0.7055  0.0329  0.4296
   23MOL   C40820252   4.270   3.612   6.729  0.9942  0.1682  0.0981
   23MOL   C40920253   4.165   3.645   6.824  0.4891  0.2080 -1.0327
   23MOL   C41020254   4.067   3.548   6.842  0.2549 -0.0160  0.7622
   23MOL   C41120255   4.063   3.423   6.774  0.3738 -0.5847  0.6146
   23MOL   C41220256   4.166   3.392   6.687 -0.8111 -0.5330  0.2544
   23MOL   S41320257   3.931   3.593   6.945 -0.1290  0.0952 -0.0598
   23MOL   O41420258   3.850   3.476   6.987 -0.0252 -0.1237  0.0537
   23MOL   O41520259   3.863   3.717   6.895 -0.2896 -0.1297  0.1445
   23MOL   C41620260   4.016   3.634   7.096  0.0497  0.7642 -0.1140
   23MOL   C41720261   4.063   3.768   7.122  0.1633  0.4775 -0.0457
   23MOL   C41820262   4.149   3.791   7.229 -0.1844  0.2366 -0.0635
   23MOL   C41920263   4.197   3.677   7.301 -0.5694 -0.2651 -0.1816
   23MOL   C42020264   4.152   3.550   7.276  0.1563  0.6665 -0.6178
   23MOL   C42120265   4.058   3.521   7.173 -0.1368 -0.7020  0.0446
   23MOL   O42220266   4.280   3.706   7.405 -0.0537 -0.6789  0.0047
   23MOL   C42320267   4.405   3.648   7.405 -0.2754  0.2897 -0.2735
   23MOL   C42420268   4.478   3.642   7.288 -0.6012 -0.1348 -0.4983
   23MOL   C42520269   4.613   3.600   7.281  0.4464  0.0098 -0.4513
   23MOL   C42620270   4.683   3.575   7.403  0.1455  0.3923 -0.1760
   23MOL   C42720271   4.601   3.581   7.522 -0.6820  0.0683 -1.0304
   23MOL   C42820272   4.464   3.617   7.524  0.4003 -0.3935  0.0763
   23MOL   C42920273   4.832   3.569   7.413  0.1044  0.0712 -0.0587
   23MOL   C43020274   4.920   3.646   7.333  0.1507 -0.0942 -0.1168
   23MOL   C43120275   5.058   3.653   7.358 -0.0560  0.7027 -0.6504
   23MOL   C43220276   5.114   3.572   7.460 -0.0221 -0.6327  0.4998
   23MOL   C43320277   5.032   3.489   7.539  0.2925 -0.9749 -0.3097
   23MOL   C43420278   4.890   3.495   7.519 -0.5839 -0.3704 -0.5196
   23MOL   O43520279   5.250   3.557   7.469  0.4321  0.3071 -0.1691
   23MOL   H43620280   4.335   3.691   6.695  2.3667 -0.6948  0.6545
   23MOL   H43720281   4.157   3.741   6.873  2.3765 -1.3050  2.4085
   23MOL   H43820282   3.971   3.372   6.799 -1.2326  2.4163  1.2150
   23MOL   H43920283   4.162   3.298   6.635  0.0087 -0.8888  0.8175
   23MOL   H44020284   4.038   3.848   7.055 -0.5751 -1.0570 -1.6604
   23MOL   H44120285   4.171   3.895   7.248 -2.2829  1.0897 -1.9979
   23MOL   H44220286   4.185   3.465   7.333  0.5982  1.6699  0.6471
   23MOL   H44320287   4.030   3.417   7.163  0.4160 -0.9929  1.4125
   23MOL   H44420288   4.435   3.677   7.195 -1.5631  0.2093  0.0722
   23MOL   H44520289   4.662   3.585   7.186 -0.9427 -0.9237 -1.0365
   23MOL   H44620290   4.650   3.589   7.618 -0.9274  2.3284 -1.0738
   23MOL   H44720291   4.406   3.630   7.615  1.8042  0.3436  0.8860
   23MOL   H44820292   4.886   3.707   7.251  0.6993 -1.9427 -1.7218
   23MOL   H44920293   5.120   3.709   7.290  2.0745 -0.0801  0.6185
   23MOL   H45020294   5.074   3.421   7.612 -1.5668 -2.8679 -0.9500
   23MOL   H45120295   4.841   3.427   7.587 -0.1820 -1.1123 -0.9690
   23MOL   C45220296   5.308   3.434   7.437 -0.6710  0.4679 -0.3920
   23MOL   C45320297   5.236   3.328   7.373 -0.1091 -0.1316  0.4045
   23MOL   C45420298   5.303   3.209   7.348 -0.1551  0.8519 -0.7536
   23MOL   C45520299   5.438   3.201   7.373 -0.7349 -0.2257 -0.2511
   23MOL   C45620300   5.509   3.306   7.423 -0.3566 -1.0023 -0.2128
   23MOL   C45720301   5.446   3.425   7.456 -0.1813 -0.2319 -0.0202
   23MOL   S45820302   5.522   3.050   7.337  0.0635  0.1730  0.1466
   23MOL   O45920303   5.438   2.974   7.241  0.0364  0.6805  0.3417
   23MOL   O46020304   5.575   3.001   7.462  0.6381 -0.7198  0.2529
   23MOL   C46120305   5.666   3.090   7.242 -0.3835  0.0711 -0.1180
   23MOL   C46220306   5.795   3.062   7.293  0.4162  0.9459 -0.3819
   23MOL   C46320307   5.904   3.095   7.217 -0.3375 -0.9132 -0.6242
   23MOL   C46420308   5.887   3.172   7.095  0.0584  0.5319 -0.1773
   23MOL   C46520309   5.757   3.193   7.041 -0.1856 -0.0519 -0.7819
   23MOL   C46620310   5.647   3.151   7.116 -0.1836 -0.4592 -0.5054
   23MOL   O46720311   6.002   3.220   7.033 -0.2617 -0.7518  0.4871
   23MOL   C46820312   6.004   3.243   6.902  0.3025 -0.9166 -0.5293
   23MOL   C46920313   6.046   3.146   6.807  0.3911 -0.0167  0.4269
   23MOL   C47020314   6.065   3.182   6.664 -0.0334  0.9363  0.3310
   23MOL   C47120315   6.019   3.308   6.617  0.0122  0.8585  0.1510
   23MOL   C47220316   5.981   3.397   6.718  0.2946  0.1095 -0.4884
   23MOL   C47320317   5.976   3.373   6.857  0.2940  0.5557  0.3216
   23MOL   C47420318   6.001   3.341   6.476  0.1644  0.1138  0.6802
   23MOL   C47520319   5.880   3.399   6.434 -0.2956  0.6174  0.5951
   23MOL   C47620320   5.846   3.428   6.298  0.0069 -0.4132 -0.2531
   23MOL   C47720321   5.940   3.393   6.197 -0.6659 -0.3165 -0.4088
   23MOL   C47820322   6.070   3.349   6.234 -0.0367 -0.1722 -0.1748
   23MOL   C47920323   6.092   3.318   6.374 -0.3248 -0.5253  0.2924
   23MOL   O48020324   5.925   3.428   6.065 -0.1180 -0.3222 -0.7258
   23MOL   H48120325   5.131   3.342   7.357 -0.2255  1.0855  2.0644
   23MOL   H48220326   5.253   3.117   7.322  1.1536 -0.0946  0.0123
   23MOL   H48320327   5.615   3.294   7.436 -0.2880  1.5904  2.4888
   23MOL   H48420328   5.506   3.506   7.495  0.0867 -0.2529 -0.3898
   23MOL   H48520329   5.817   3.028   7.393 -0.8724 -0.3914 -0.5352
   23MOL   H48620330   5.994   3.065   7.268 -1.3884  0.4931  2.1518
   23MOL   H48720331   5.748   3.248   6.948  1.1054  2.6134  0.6296
   23MOL   H48820332   5.540   3.157   7.101 -0.1590 -0.3830 -0.6516
   23MOL   H48920333   6.073   3.052   6.852 -1.9467 -1.1286 -0.3722
   23MOL   H49020334   6.105   3.110   6.593 -1.2123 -0.3112  0.9067
   23MOL   H49120335   5.962   3.497   6.682  2.4094  0.9051  0.5548
   23MOL   H49220336   5.950   3.452   6.926 -0.6058  1.1916 -0.7141
   23MOL   H49320337   5.805   3.403   6.511 -0.9187 -0.1311  0.0245
   23MOL   H49420338   5.752   3.472   6.266 -1.3011 -1.9834  1.3536
   23MOL   H49520339   6.148   3.328   6.162  1.4057  0.4005  1.1831
   23MOL   H49620340   6.188   3.277   6.400  0.6880  0.3743 -1.9007
   23MOL   C49720341   5.940   3.335   5.964 -0.0613 -0.5424  0.2445
   23MOL   C49820342   5.865   3.212   5.969 -0.6846  0.5011 -0.2705
   23MOL   C49920343   5.887   3.119   5.867  0.6573 -0.4548  0.1116
   23MOL   C50020344   5.986   3.144   5.762 -0.2005  0.7624  0.0444
   23MOL   C50120345   6.063   3.261   5.766  0.4075 -0.3963 -0.2850
   23MOL   C50220346   6.034   3.359   5.863  0.6595 -0.0855  0.8244
   23MOL   S50320347   6.017   3.029   5.630 -0.1649 -0.0197 -0.1411
   23MOL   O50420348   5.990   3.114   5.517  0.1474 -0.2259  0.4789
   23MOL   O50520349   5.934   2.908   5.657 -0.0237  0.4603  0.1461
   23MOL   C50620350   6.196   3.000   5.634  0.7178 -0.9196  0.5742
   23MOL   C50720351   6.279   3.076   5.551  0.1941 -0.1586 -0.5432
   23MOL   C50820352   6.416   3.048   5.555  0.0892  0.6488 -0.5464
   23MOL   C50920353   6.476   2.953   5.644  0.1538  0.0039  0.0738
   23MOL   C51020354   6.390   2.879   5.727 -0.1666  0.1115  0.3689
   23MOL   C51120355   6.249   2.903   5.722 -0.3376 -0.1941 -0.0432
   23MOL   O51220356   6.602   2.922   5.612  0.4153  0.1036 -0.3471
   23MOL   C51320357   6.680   2.893   5.718  0.5303  0.0254  0.0801
   23MOL   C51420358   6.681   2.964   5.841  0.1209  0.5522  0.3345
   23MOL   C51520359   6.766   2.920   5.947  0.5233  0.3857 -0.7415
   23MOL   C51620360   6.857   2.814   5.925 -0.4968 -0.5067  0.6375
   23MOL   C51720361   6.869   2.761   5.796 -0.9170  0.1787 -0.2819
   23MOL   C51820362   6.785   2.801   5.694  0.4727  0.2293 -0.0362
   23MOL   C51920363   6.937   2.755   6.031 -0.4475  0.7465 -0.3566
   23MOL   C52020364   7.070   2.698   6.006  0.0714  0.4164 -0.6779
   23MOL   C52120365   7.162   2.662   6.108  0.0756 -0.3966 -0.4794
   23MOL   C52220366   7.109   2.666   6.239 -0.1133 -0.1338  0.2824
   23MOL   C52320367   6.977   2.705   6.267 -0.2200  0.5079 -0.5718
   23MOL   C52420368   6.889   2.751   6.164  0.1902  0.3339 -0.4760
   23MOL   O52520369   7.186   2.622   6.337 -0.6150 -0.0407 -0.1954
   23MOL   H52620370   5.790   3.188   6.043 -0.9083 -2.1978 -1.3120
   23MOL   H52720371   5.826   3.030   5.861 -0.7237  0.5851 -2.0630
   23MOL   H52820372   6.145   3.279   5.697 -0.1736  1.8522 -0.4431
   23MOL   H52920373   6.095   3.449   5.867 -0.4324  0.7442 -0.7341
   23MOL   H53020374   6.239   3.158   5.494 -1.4310  0.6333  1.6792
   23MOL   H53120375   6.482   3.109   5.495  1.7235 -0.2650  0.2713
   23MOL   H53220376   6.431   2.809   5.798 -0.5612  0.4872  0.9808
   23MOL   H53320377   6.181   2.852   5.790 -1.1152  1.4151  0.4201
   23MOL   H53420378   6.621   3.051   5.861  0.0347  1.0212 -1.8570
   23MOL   H53520379   6.753   2.961   6.046 -0.6921 -3.3305  0.6972
   23MOL   H53620380   6.932   2.676   5.772 -0.9451  0.0432  0.1271
   23MOL   H53720381   6.796   2.759   5.595 -1.0719 -0.9001  0.2429
   23MOL   H53820382   7.117   2.691   5.909  0.7621 -0.6130 -0.2804
   23MOL   H53920383   7.260   2.624   6.086 -0.4596 -1.4852 -1.0653
   23MOL   H54020384   6.946   2.692   6.369  1.9413  2.4671  0.3736
   23MOL   H54120385   6.784   2.762   6.188 -0.3901 -2.5084 -1.4551
   23MOL   C54220386   7.131   2.512   6.396  0.0295  0.5659  0.3620
   23MOL   C54320387   7.098   2.392   6.323  0.2790 -0.0423  0.2450
   23MOL   C54420388   7.007   2.298   6.379  0.0428 -0.0397  0.2360
   23MOL   C54520389   6.955   2.329   6.505  0.2264 -0.2207 -0.1930
   23MOL   C54620390   6.988   2.442   6.575  0.7218 -0.5337  0.1871
   23MOL   C54720391   7.084   2.532   6.529 -0.6623  0.1630 -0.7183
   23MOL   S54820392   6.810   2.240   6.571  0.2988 -0.0377  0.2071
   23MOL   O54920393   6.847   2.204   6.708 -0.6690  0.1263 -0.4662
   23MOL   O55020394   6.780   2.130   6.472 -0.4359 -0.2179  0.0164
   23MOL   C55120395   6.670   2.353   6.571  0.6661 -0.1983  0.7402
   23MOL   C55220396   6.554   2.320   6.650 -0.5775  0.5134  0.3754
   23MOL   C55320397   6.438   2.404   6.642  0.6847 -0.7060  0.4309
   23MOL   C55420398   6.421   2.500   6.543  1.2924 -0.1993 -0.3211
   23MOL   C55520399   6.527   2.525   6.458 -0.7206 -0.0377  0.6856
   23MOL   C55620400   6.649   2.454   6.475  0.0106 -0.2699 -0.1012
   23MOL   O55720401   6.300   2.564   6.529 -0.0521  0.0179  0.5040
   23MOL   C55820402   6.208   2.498   6.458  0.0167 -1.5974  0.3990
   23MOL   C55920403   6.100   2.430   6.519  0.2604  0.1780  0.0482
   23MOL   C56020404   6.009   2.353   6.440  0.0317  0.0054  0.2192
   23MOL   C56120405   6.022   2.342   6.303 -0.2669 -0.5595  0.5237
   23MOL   C56220406   6.128   2.417   6.242 -0.0104  0.5740 -0.3161
   23MOL   C56320407   6.215   2.488   6.322 -0.0423  0.0295 -0.5525
   23MOL   C56420408   5.935   2.258   6.229 -0.2331  0.2423 -0.1007
   23MOL   C56520409   5.993   2.167   6.140  0.5491 -0.4774 -0.2066
   23MOL   C56620410   5.912   2.067   6.078  0.2099 -0.1291  0.0966
   23MOL   C56720411   5.770   2.065   6.090 -0.1748 -0.1358 -0.6554
   23MOL   C56820412   5.710   2.166   6.162 -0.0429  0.1188 -0.0495
   23MOL   C56920413   5.794   2.263   6.232 -0.1891 -0.3408  0.4101
   23MOL   O57020414   5.690   1.965   6.039  0.1370  0.4868  0.4475
   23MOL   H57120415   7.127   2.396   6.219 -1.9724  1.9462 -0.3549
   23MOL   H57220416   6.974   2.212   6.323  0.1168 -0.5267  0.9428
   23MOL   H57320417   6.940   2.460   6.670 -0.1552 -0.9366 -0.1729
   23MOL   H57420418   7.120   2.620   6.579  0.0226  0.3467 -1.5137
   23MOL   H57520419   6.563   2.233   6.715 -3.4766  0.4463  0.7506
   23MOL   H57620420   6.352   2.376   6.701 -0.9914  1.3912 -0.9572
   23MOL   H57720421   6.520   2.592   6.373 -1.1665  0.2927  0.9834
   23MOL   H57820422   6.728   2.479   6.405 -0.1365 -2.2188 -0.9964
   23MOL   H57920423   6.090   2.423   6.626  0.2831  0.3726  0.0631
   23MOL   H58020424   5.923   2.307   6.486 -1.0783 -1.0950 -2.8307
   23MOL   H58120425   6.151   2.405   6.137  0.0735  1.4529 -0.4073
   23MOL   H58220426   6.302   2.530   6.273  0.5145 -1.5571 -0.9262
   23MOL   H58320427   6.100   2.154   6.136  0.6511 -0.2156  1.1736
   23MOL   H58420428   5.963   1.988   6.026  2.3783 -0.2464  2.3231
   23MOL   H58520429   5.603   2.169   6.176 -0.0878 -2.1458  0.3131
   23MOL   H58620430   5.748   2.338   6.294 -0.2226  1.2026 -1.4456
   23MOL   C58720431   5.744   1.839   6.054 -0.3614 -0.9510  0.1997
   23MOL   C58820432   5.755   1.778   6.183 -0.4309  0.0214 -0.1304
   23MOL   C58920433   5.811   1.646   6.198  0.6339 -0.3518 -0.4977
   23MOL   C59020434   5.844   1.573   6.086  0.1971 -0.4996  0.0366
   23MOL   C59120435   5.827   1.623   5.956 -0.0934 -0.2627 -0.5565
   23MOL   C59220436   5.772   1.753   5.943 -0.3991  0.1556  0.8133
   23MOL   S59320437   5.917   1.412   6.121  0.1249  0.6225  0.3099
   23MOL   O59420438   5.816   1.306   6.097  0.7869  0.1055  0.2219
   23MOL   O59520439   5.969   1.410   6.257 -0.7854  0.4649 -0.1287
   23MOL   C59620440   6.049   1.398   6.004 -0.2958  0.7741 -0.0433
   23MOL   C59720441   6.036   1.299   5.907  0.1204 -0.0321  0.4383
   23MOL   C59820442   6.141   1.289   5.807 -0.1138  0.1019 -0.0301
   23MOL   C59920443   6.254   1.372   5.809  0.4822 -0.0553  0.4274
   23MOL   C60020444   6.259   1.478   5.905  0.4233 -0.4642  0.5133
   23MOL   C60120445   6.156   1.491   6.005  0.5865  0.4556 -0.1206
   23MOL   O60220446   6.355   1.344   5.729 -0.4734  0.3277  0.1018
   23MOL   C60320447   6.388   1.437   5.635 -0.0149  0.5639  0.1855
   23MOL   C60420448   6.526   1.458   5.601 -0.6395 -0.2595  0.2206
   23MOL   C60520449   6.556   1.563   5.512 -0.6896  0.4884  0.5139
   23MOL   C60620450   6.455   1.638   5.445  0.1103  0.0714  0.0046
   23MOL   C60720451   6.321   1.606   5.471 -0.2551  0.1387  0.8442
   23MOL   C60820452   6.284   1.505   5.563 -0.8242 -0.5149 -0.7370
   23MOL   C60920453   6.494   1.753   5.361  0.1729 -0.0565  0.2050
   23MOL   C61020454   6.417   1.868   5.367 -0.1784 -0.4321  0.3537
   23MOL   C61120455   6.451   1.980   5.289 -0.7042  0.3823  0.3342
   23MOL   C61220456   6.555   1.972   5.202 -0.1679 -0.2347 -0.1918
   23MOL   C61320457   6.637   1.856   5.197 -0.2182 -0.3537  0.1724
   23MOL   C61420458   6.608   1.749   5.277  0.0987 -0.2696 -0.0306
   23MOL   O61520459   6.593   2.089   5.145 -0.4304  0.0461 -0.6387
   23MOL   H61620460   5.746   1.836   6.274 -0.3438  0.6586 -0.5222
   23MOL   H61720461   5.817   1.607   6.299  0.3211  1.6563  0.3291
   23MOL   H61820462   5.863   1.568   5.871 -1.1482  1.9516 -2.4927
   23MOL   H61920463   5.770   1.796   5.844 -0.1473 -0.7434  0.4174
   23MOL   H62020464   5.948   1.237   5.896  0.3841 -0.1841 -0.9216
   23MOL   H62120465   6.146   1.208   5.736  0.7752  0.4957 -0.4206
   23MOL   H62220466   6.344   1.545   5.909 -0.6505  0.8182  4.2142
   23MOL   H62320467   6.161   1.555   6.092 -0.9590 -0.5837  0.7611
   23MOL   H62420468   6.604   1.396   5.644 -0.2388  0.0741 -0.0182
   23MOL   H62520469   6.661   1.583   5.495 -0.5858 -1.6807 -1.8534
   23MOL   H62620470   6.251   1.662   5.411 -0.9308  0.1050  1.6034
   23MOL   H62720471   6.182   1.473   5.575 -0.9200  0.0751  0.0572
   23MOL   H62820472   6.335   1.882   5.436  0.8112  2.2922  1.0404
   23MOL   H62920473   6.384   2.064   5.300  0.4463  1.2326  0.9626
   23MOL   H63020474   6.719   1.854   5.127 -0.0877 -1.0533  0.3439
   23MOL   H63120475   6.669   1.659   5.276  2.0190  1.0126 -0.3975
   23MOL   C63220476   6.664   2.171   5.226 -0.2020  0.2814 -0.2670
   23MOL   C63320477   6.794   2.136   5.269  0.1230  0.3581 -0.2815
   23MOL   C63420478   6.874   2.223   5.338  0.1730  0.1090 -0.7807
   23MOL   C63520479   6.818   2.351   5.376 -0.4154 -0.7292  0.1900
   23MOL   C63620480   6.683   2.382   5.343  0.5427 -0.2583 -0.0019
   23MOL   C63720481   6.602   2.291   5.271  0.3970  0.1523  0.2819
   23MOL   S63820482   6.929   2.461   5.468 -0.2188  0.1660 -0.0487
   23MOL   O63920483   6.884   2.596   5.436  0.6645 -0.4356  0.4030
   23MOL   O64020484   7.072   2.425   5.449  0.1470 -0.2185 -0.6934
   23MOL   C64120485   6.904   2.436   5.642 -0.0705  0.1570  0.3995
   23MOL   C64220486   6.784   2.478   5.705  0.4942 -0.0761 -0.6167
   23MOL   C64320487   6.762   2.462   5.845 -0.1319  0.7212  0.7766
   23MOL   C64420488   6.868   2.410   5.925  0.2551 -1.0858  0.5856
   23MOL   C64520489   6.991   2.376   5.860  0.1010 -0.3938  0.1383
   23MOL   C64620490   7.009   2.383   5.722  0.0593  0.4174  0.7746
   23MOL   O64720491   6.859   2.403   6.060  0.0398  0.3014  0.8687
   23MOL   C64820492   6.760   2.334   6.117  0.1118  0.6352 -0.1734
   23MOL   C64920493   6.779   2.189   6.116  0.3448 -0.1174  0.0453
   23MOL   C65020494   6.668   2.100   6.147 -0.0796 -0.4221  0.7321
   23MOL   C65120495   6.542   2.152   6.170 -0.5515 -1.0148  0.2958
   23MOL   C65220496   6.526   2.293   6.174  0.3232 -0.1578 -0.1042
   23MOL   C65320497   6.633   2.389   6.148  1.2081  1.0032  0.4935
   23MOL   C65420498   6.427   2.062   6.195 -0.2370 -0.7551  1.0596
   23MOL   C65520499   6.375   1.980   6.095  0.0811 -0.3053  0.3395
   23MOL   C65620500   6.256   1.902   6.117  0.4005 -1.0623 -0.4028
   23MOL   C65720501   6.185   1.925   6.239 -0.0851 -0.8384 -0.3176
   23MOL   C65820502   6.229   2.026   6.334 -1.0272  0.4209  0.0940
   23MOL   C65920503   6.356   2.087   6.316  0.1284 -0.6412  0.5399
   23MOL   O66020504   6.080   1.849   6.265  0.2743  0.7216 -0.1313
   23MOL   H66120505   6.844   2.041   5.260  1.0185  0.7793  0.2510
   23MOL   H66220506   6.976   2.196   5.361 -0.5387 -2.4314 -0.4564
   23MOL   H66320507   6.636   2.473   5.377  0.8309  0.3075 -1.0912
   23MOL   H66420508   6.501   2.310   5.237  0.3425 -0.9520 -0.2178
   23MOL   H66520509   6.713   2.539   5.652  0.9776  1.2586  0.2360
   23MOL   H66620510   6.665   2.485   5.886 -1.1055 -1.1857 -0.3686
   23MOL   H66720511   7.072   2.335   5.919  0.9445  0.8946 -0.0817
   23MOL   H66820512   7.099   2.351   5.674 -0.8616 -0.4076 -0.4235
   23MOL   H66920513   6.878   2.153   6.092  0.3682  0.2049 -0.3347
   23MOL   H67020514   6.683   1.993   6.158 -4.3310 -1.3364 -1.4276
   23MOL   H67120515   6.431   2.336   6.199 -0.4163 -1.3352 -0.8374
   23MOL   H67220516   6.620   2.496   6.150 -0.0692  0.8677 -0.3294
   23MOL   H67320517   6.423   1.965   6.000  2.4850 -1.7170  1.7393
   23MOL   H67420518   6.222   1.836   6.038 -0.9810  0.0580 -0.7846
   23MOL   H67520519   6.178   2.041   6.428  1.4632  0.9074  1.4138
   23MOL   H67620520   6.386   2.155   6.395 -0.4572  0.8994 -0.5545
   23MOL   C67720521   6.096   1.765   6.368  1.0515 -0.4542  0.1281
   23MOL   C67820522   6.003   1.771   6.475 -0.2602 -0.0728 -0.1577
   23MOL   C67920523   6.007   1.676   6.579  0.3979 -0.3141  0.9468
   23MOL   C68020524   6.104   1.576   6.567 -0.5060 -0.0414 -0.1977
   23MOL   C68120525   6.193   1.574   6.458 -0.0125  0.0481  0.2737
   23MOL   C68220526   6.196   1.670   6.360 -0.5166 -0.1315  0.2449
   23MOL   S68320527   6.114   1.445   6.687 -0.1372 -0.1978  0.2038
   23MOL   O68420528   6.033   1.468   6.803 -0.2227 -0.2806  0.0482
   23MOL   O68520529   6.257   1.418   6.704 -0.1424  0.0131 -0.4717
   23MOL   C68620530   6.044   1.304   6.603  0.7531  0.8421  0.2504
   23MOL   C68720531   5.915   1.303   6.546 -0.3197 -0.5149  0.0079
   23MOL   C68820532   5.861   1.187   6.496  0.4882 -0.3799  0.9471
   23MOL   C68920533   5.941   1.072   6.484  0.0484 -0.2940  0.7315
   23MOL   C69020534   6.064   1.073   6.546 -0.3395  0.4203 -0.7276
   23MOL   C69120535   6.126   1.187   6.600  0.2155 -0.3533  0.4081
   23MOL   O69220536   5.903   0.953   6.434  0.4252  0.2462  0.2131
   23MOL   C69320537   5.899   0.938   6.298 -0.5600 -0.1897  0.3443
   23MOL   C69420538   5.802   0.847   6.244 -0.9552  0.1649 -0.0996
   23MOL   C69520539   5.774   0.841   6.105 -0.4230 -0.1995  0.9446
   23MOL   C69620540   5.844   0.920   6.010 -0.3100  0.4969  0.4814
   23MOL   C69720541   5.954   0.996   6.064  0.1279  0.1269  0.7106
   23MOL   C69820542   5.978   1.009   6.203 -0.1707  0.4279 -0.1117
   23MOL   C69920543   5.823   0.918   5.864  0.2367  0.9578 -0.4119
   23MOL   C70020544   5.696   0.889   5.809  0.5330  0.6295 -0.0339
   23MOL   C70120545   5.684   0.869   5.668  0.5560  0.0042 -0.6875
   23MOL   C70220546   5.794   0.875   5.584  0.3064 -0.5114  0.0324
   23MOL   C70320547   5.916   0.910   5.638  0.3107  0.2252  0.7286
   23MOL   C70420548   5.934   0.937   5.774  0.8731  0.2112  0.1932
   23MOL   O70520549   5.782   0.858   5.449 -0.1382 -0.2511  0.8588
   23MOL   H70620550   5.934   1.854   6.483 -2.2859 -1.4234 -2.8462
   23MOL   H70720551   5.954   1.674   6.673  2.5652  1.1025  2.2440
   23MOL   H70820552   6.255   1.487   6.438 -1.8257 -0.8882 -1.5715
   23MOL   H70920553   6.255   1.665   6.269  0.4050  0.0693  0.8246
   23MOL   H71020554   5.844   1.385   6.546 -0.4104 -0.5928 -0.1785
   23MOL   H71120555   5.758   1.182   6.465  0.7842  2.1878 -0.5997
   23MOL   H71220556   6.118   0.980   6.549  1.1065  1.2670  1.4228
   23MOL   H71320557   6.224   1.179   6.645  1.5265  2.6783 -1.7925
   23MOL   H71420558   5.744   0.787   6.313  3.9271 -2.3245  2.0967
   23MOL   H71520559   5.692   0.777   6.073 -0.7374  0.4170  0.5013
   23MOL   H71620560   6.013   1.052   5.993 -0.0987  1.2180  1.3772
   23MOL   H71720561   6.056   1.077   6.231  0.9291 -1.6288  1.9521
   23MOL   H71820562   5.613   0.879   5.878  0.7016 -1.8481 -0.1538
   23MOL   H71920563   5.589   0.840   5.625 -0.2712 -1.4551  2.0181
   23MOL   H72020564   6.003   0.910   5.573 -1.5733 -2.3265 -1.9208
   23MOL   H72120565   6.034   0.959   5.809  0.7368  0.7938  0.2079
   23MOL   C72220566   5.837   0.958   5.368 -0.3268  0.3733 -0.3965
   23MOL   C72320567   5.899   0.917   5.250  0.0074 -0.1204  0.0677
   23MOL   C72420568   5.962   1.008   5.170 -0.2711  0.1634  0.0499
   23MOL   C72520569   5.972   1.146   5.200  0.5111 -0.3884 -0.2316
   23MOL   C72620570   5.920   1.194   5.319 -0.0331 -0.1896 -0.2702
   23MOL   C72720571   5.850   1.097   5.398 -0.1358  0.0490 -1.0600
   23MOL   S72820572   6.030   1.269   5.081 -0.6096 -0.0254  0.4411
   23MOL   O72920573   6.141   1.211   5.001 -0.4296 -0.1485  0.0583
   23MOL   O73020574   6.053   1.399   5.148 -0.1864  0.6975 -0.0309
   23MOL   C73120575   5.884   1.285   4.976  0.0993 -1.2603 -0.5457
   23MOL   C73220576   5.782   1.372   5.016  0.1922 -0.3774  0.4062
   23MOL   C73320577   5.675   1.405   4.922 -0.0639 -0.1399 -0.0340
   23MOL   C73420578   5.672   1.337   4.795  0.2996  0.1550  0.2583
   23MOL   C73520579   5.775   1.253   4.755 -0.2864  0.0215  0.1571
   23MOL   C73620580   5.881   1.230   4.844 -0.0460  0.2271 -0.5429
   23MOL   O73720581   5.571   1.345   4.699  0.7665  0.0900 -0.2032
   23MOL   C73820582   5.473   1.434   4.701 -0.7722 -0.2830 -0.5998
   23MOL   C73920583   5.345   1.389   4.746  0.1158  0.4255  0.6262
   23MOL   C74020584   5.242   1.478   4.749  0.5775 -0.5096 -0.0995
   23MOL   C74120585   5.258   1.610   4.712 -0.0610  0.2871 -0.3893
   23MOL   C74220586   5.387   1.659   4.684  0.2025 -0.5444 -0.3257
   23MOL   C74320587   5.492   1.569   4.665 -0.2678  0.0897 -0.9894
   23MOL   C74420588   5.154   1.712   4.729  0.1746  0.2874  0.1215
   23MOL   C74520589   5.074   1.719   4.847 -0.2907 -0.6808 -1.1465
   23MOL   C74620590   4.974   1.810   4.864  0.2829  0.0186 -1.0618
   23MOL   C74720591   4.959   1.912   4.775  0.5791 -0.1374 -0.1689
   23MOL   C74820592   5.039   1.917   4.659  0.6417  0.1230 -0.3825
   23MOL   C74920593   5.127   1.811   4.637 -0.0639 -0.2192 -0.9288
   23MOL   O75020594   4.867   2.012   4.800 -0.0897  0.1130  0.2316
   23MOL   H75120595   5.901   0.812   5.222 -0.9656 -1.0654  3.3355
   23MOL   H75220596   6.009   0.982   5.076  0.5571  2.0209 -0.0631
   23MOL   H75320597   5.924   1.300   5.341  2.2942 -0.6192  1.5397
   23MOL   H75420598   5.809   1.122   5.495 -1.0712 -2.8039 -0.6713
   23MOL   H75520599   5.802   1.422   5.109 -2.3307  2.4639 -0.5104
   23MOL   H75620600   5.603   1.483   4.943 -2.4907 -2.5636  0.8418
   23MOL   H75720601   5.785   1.207   4.658 -0.2911 -0.4649  0.3839
   23MOL   H75820602   5.962   1.160   4.829 -0.9302 -0.5822 -1.6189
   23MOL   H75920603   5.332   1.285   4.771 -3.0606  0.7077  0.3012
   23MOL   H76020604   5.141   1.450   4.775  1.1823 -1.6775  1.0653
   23MOL   H76120605   5.402   1.765   4.674  1.7041 -0.7955 -0.8826
   23MOL   H76220606   5.590   1.605   4.636  0.2317 -0.6107 -0.1942
   23MOL   H76320607   5.083   1.644   4.924  1.5924 -0.4361 -1.1036
   23MOL   H76420608   4.900   1.808   4.943  2.2806 -0.0059  0.8520
   23MOL   H76520609   5.035   2.002   4.594  0.7742  0.3846 -0.0505
   23MOL   H76620610   5.183   1.801   4.544  0.4972  0.5574 -0.6807
   23MOL   C76720611   4.738   1.995   4.750 -0.3436 -0.4641 -0.4202
   23MOL   C76820612   4.707   2.018   4.612 -0.1678  0.2331 -0.3270
   23MOL   C76920613   4.577   2.013   4.571  0.5595 -0.0590  0.0266
   23MOL   C77020614   4.469   1.995   4.667 -0.2223 -0.2085 -0.5127
   23MOL   C77120615   4.497   1.974   4.803 -0.1205 -0.1734 -0.9129
   23MOL   C77220616   4.629   1.975   4.840 -0.5293 -0.2582  0.1240
   23MOL   S77320617   4.292   2.022   4.616  0.2807  0.4374 -0.0228
   23MOL   O77420618   4.284   2.010   4.470  0.2872  0.2561 -0.1073
   23MOL   O77520619   4.251   2.147   4.687 -0.8134  0.6709  0.4655
   23MOL   C77620620   4.188   1.897   4.691 -0.5477  0.4236  0.5463
   23MOL   C77720621   4.213   1.766   4.653  0.4666  0.5738  0.5602
   23MOL   C77820622   4.140   1.658   4.713 -0.0325  0.2073  0.6161
   23MOL   C77920623   4.037   1.687   4.803  0.0583 -0.1335 -0.6222
   23MOL   C78020624   4.006   1.823   4.836  0.1066  0.4807 -0.6061
   23MOL   C78120625   4.082   1.923   4.777  1.0841 -0.1237 -0.2707
   23MOL   O78220626   3.952   1.590   4.851  0.0408 -0.0263  0.6567
   23MOL   C78320627   3.982   1.457   4.821 -0.3353  0.2970  0.0474
   23MOL   C78420628   3.895   1.404   4.723 -0.3515  1.3332 -0.1703
   23MOL   C78520629   3.895   1.261   4.727  0.8743  0.6618 -0.0036
   23MOL   C78620630   3.994   1.181   4.794 -1.2934  0.4329 -0.7634
   23MOL   C78720631   4.087   1.252   4.871 -0.7870  0.1148  0.7247
   23MOL   C78820632   4.079   1.387   4.892  0.4710  0.4447 -0.0046
   23MOL   C78920633   3.979   1.030   4.802  0.3430  0.2077 -0.4397
   23MOL   C79020634   4.042   0.956   4.899  0.3229  0.1790 -0.3681
   23MOL   C79120635   4.021   0.819   4.921  0.0133  0.2044  0.3197
   23MOL   C79220636   3.943   0.745   4.838  0.3778  0.4936 -0.1086
   23MOL   C79320637   3.885   0.813   4.726  0.3771 -1.1906  0.3288
   23MOL   C79420638   3.892   0.956   4.716  0.2572  0.3363  0.3247
   23MOL   O79520639   3.922   0.609   4.856  0.7694  0.0818  0.2784
   23MOL   H79620640   4.779   2.044   4.535  1.0336 -0.3235  0.6016
   23MOL   H79720641   4.558   2.040   4.468  2.4906 -2.4784 -1.0141
   23MOL   H79820642   4.416   1.959   4.873  0.1017  0.8170 -0.4299
   23MOL   H79920643   4.658   1.960   4.943  0.7644  0.3443 -0.1458
   23MOL   H80020644   4.292   1.750   4.582  0.2242  0.9695  0.2042
   23MOL   H80120645   4.161   1.562   4.669 -0.3400  0.1797  0.5256
   23MOL   H80220646   3.921   1.851   4.896 -0.1681  0.2149 -0.8662
   23MOL   H80320647   4.067   2.025   4.808  0.0501 -1.1410  2.7142
   23MOL   H80420648   3.836   1.472   4.664  0.4649  1.7655 -0.5072
   23MOL   H80520649   3.817   1.212   4.670  1.8458  0.1563 -0.9174
   23MOL   H80620650   4.165   1.199   4.923 -0.9730  0.4697  1.3790
   23MOL   H80720651   4.154   1.435   4.954  0.6739  0.8017 -0.5277
   23MOL   H80820652   4.109   1.006   4.968  0.1837 -0.1858  0.0278
   23MOL   H80920653   4.065   0.768   5.006  0.4171  0.3088  0.1731
   23MOL   H81020654   3.823   0.758   4.657  1.5074  0.2591 -1.8978
   23MOL   H81120655   3.843   1.010   4.636 -1.1414 -0.1126  0.8688
   23MOL   C81220656   3.810   0.562   4.914 -0.4021 -0.0586 -0.4381
   23MOL   C81320657   3.769   0.433   4.874 -0.5593  0.2210  0.6252
   23MOL   C81420658   3.670   0.365   4.956 -0.3847 -0.1184  0.3418
   23MOL   C81520659   3.613   0.427   5.068 -0.9296  0.4701  0.5672
   23MOL   C81620660   3.649   0.560   5.102  0.2055 -0.1166 -0.9287
   23MOL   C81720661   3.755   0.627   5.031  0.3369  0.1225 -0.1628
   23MOL   S81820662   3.492   0.345   5.167  0.3684 -0.5739  0.0592
   23MOL   O81920663   3.429   0.444   5.255 -0.0138  0.5627 -0.2086
   23MOL   O82020664   3.543   0.221   5.225  0.0587 -0.3813  0.1782
   23MOL   C82120665   3.353   0.294   5.062 -0.7669 -0.4058  0.5492
   23MOL   C82220666   3.263   0.203   5.122 -0.0685  0.6883 -0.0755
   23MOL   C82320667   3.164   0.146   5.044  0.4682  0.1133 -0.0133
   23MOL   C82420668   3.146   0.194   4.911 -0.2838  0.6239 -0.2090
   23MOL   C82520669   3.234   0.287   4.851 -0.0859  0.2756 -0.3598
   23MOL   C82620670   3.336   0.338   4.932  0.2292 -0.0254 -0.2568
   23MOL   O82720671   3.039   0.147   4.845  0.0817  0.6967  0.4225
   23MOL   C82820672   3.067   0.058   4.744  0.4675  0.2198 -0.0965
   23MOL   C82920673   3.021   0.096   4.619 -0.0674  0.7626 -0.0494
   23MOL   C83020674   3.059   0.026   4.505 -0.0710 -0.6818 -0.1749
   23MOL   C83120675   3.129   8.273   4.518  0.3135  0.1550  0.0537
   23MOL   C83220676   3.170   8.231   4.647  0.2614  0.1613  0.7338
   23MOL   C83320677   3.139   8.304   4.763  0.0058 -0.1920  0.3827
   23MOL   C83420678   3.164   8.192   4.394 -0.2161  0.0399  0.4183
   23MOL   C83520679   3.284   8.115   4.387  0.8755  0.3476 -0.5257
   23MOL   C83620680   3.309   8.035   4.275  0.0297  0.4961  0.3745
   23MOL   C83720681   3.213   8.045   4.165 -0.2167 -0.7292 -0.1195
   23MOL   C83820682   3.099   8.128   4.170 -0.3992 -0.3050  0.5924
   23MOL   C83920683   3.072   8.189   4.286  0.3468 -0.6794  0.5855
   23MOL   O84020684   3.235   7.975   4.047 -0.0004 -0.3234  0.2740
   23MOL   H84120685   3.818   0.385   4.791  2.1083 -0.1126  2.3131
   23MOL   H84220686   3.639   0.263   4.938  0.3772  0.1399 -2.6424
   23MOL   H84320687   3.607   0.605   5.191  0.0337  0.0737 -1.1056
   23MOL   H84420688   3.790   0.726   5.057 -2.0976  1.5479 -2.1124
   23MOL   H84520689   3.259   0.179   5.228 -0.7701 -1.4122 -0.5498
   23MOL   H84620690   3.108   0.067   5.093 -1.1365  1.6043  0.6137
   23MOL   H84720691   3.240   0.317   4.747  0.4258  1.9766  0.1377
   23MOL   H84820692   3.396   0.424   4.904 -0.9855  1.5275  1.8048
   23MOL   H84920693   2.959   0.184   4.606 -0.9946 -0.0292 -1.0800
   23MOL   H85020694   3.029   0.061   4.408  2.2938 -1.0199 -1.0543
   23MOL   H85120695   3.209   8.130   4.642 -0.3160  0.0112 -1.0030
   23MOL   H85220696   3.167   8.270   4.862 -0.8161  1.9327  1.3803
   23MOL   H85320697   3.358   8.127   4.465  0.7613  1.7689 -0.6318
   23MOL   H85420698   3.409   7.993   4.269  0.0856  0.8332 -1.2630
   23MOL   H85520699   3.029   8.119   4.089  0.3485  1.4133 -0.2570
   23MOL   H85620700   2.978   8.242   4.292  0.3890 -0.6681  1.1583
   23MOL   C85720701   3.309   8.025   3.946 -0.3813  0.8580 -0.0930
   23MOL   C85820702   3.263   7.998   3.814 -1.0795 -0.5211  0.0227
   23MOL   C85920703   3.334   8.051   3.704  0.4694  0.3843  0.4561
   23MOL   C86020704   3.457   8.123   3.718 -0.7872  0.6702 -0.7020
   23MOL   C86120705   3.496   8.149   3.852 -0.0968  0.6392  0.8105
   23MOL   C86220706   3.431   8.093   3.965 -0.4363 -0.2198 -0.7244
   23MOL   S86320707   3.551   8.179   3.583 -0.2138 -0.1452 -0.0845
   23MOL   O86420708   3.696   8.147   3.615 -0.0442  0.1598  0.0182
   23MOL   O86520709   3.512   8.319   3.563 -0.0945  0.0218 -0.0707
   23MOL   C86620710   3.515   8.088   3.432  0.0069 -0.4625 -0.2936
   23MOL   C86720711   3.462   8.149   3.313 -0.2143  0.4124 -0.2333
   23MOL   C86820712   3.433   8.062   3.205  1.3571 -0.0572 -0.7140
   23MOL   C86920713   3.461   7.923   3.209 -0.5690 -0.4085  0.2005
   23MOL   C87020714   3.526   7.875   3.324 -0.0359 -0.5015  0.0868
   23MOL   C87120715   3.551   7.950   3.436  0.2094  0.3140  0.4732
   23MOL   O87220716   3.444   7.840   3.099  0.0550 -0.0878 -0.4874
   23MOL   C87320717   3.533   7.850   2.998 -0.1230  0.2991 -0.8169
   23MOL   C87420718   3.650   7.775   2.990  1.0624 -0.5785  0.0289
   23MOL   C87520719   3.756   7.803   2.906 -0.0512 -0.0814  0.1637
   23MOL   C87620720   3.740   7.905   2.811 -0.4760  0.0527 -0.2793
   23MOL   C87720721   3.614   7.976   2.810  0.1320 -0.5904 -0.1852
   23MOL   C87820722   3.521   7.957   2.910  0.1464  0.4960  0.0693
   23MOL   C87920723   3.849   7.947   2.725  0.1385  0.6401  0.1751
   23MOL   C88020724   3.906   8.074   2.741  0.6877 -0.2809 -0.0022
   23MOL   C88120725   4.024   8.110   2.667 -0.2144  0.4783 -0.5219
   23MOL   C88220726   4.090   8.010   2.593  0.1504 -0.1385 -0.8207
   23MOL   C88320727   4.030   7.884   2.575  0.5852  0.4109  0.3322
   23MOL   C88420728   3.904   7.855   2.636 -0.4356 -0.2679  0.7564
   23MOL   O88520729   4.209   8.047   2.542 -0.3826 -0.0027 -0.1363
   23MOL   H88620730   3.168   7.952   3.794 -2.3471  1.2582  1.6939
   23MOL   H88720731   3.291   8.036   3.606  1.4584 -3.1066  0.4880
   23MOL   H88820732   3.592   8.197   3.865  0.4168  0.5662 -2.2835
   23MOL   H88920733   3.466   8.117   4.064 -0.9400  0.1379 -0.6305
   23MOL   H89020734   3.436   8.253   3.306  1.4103  1.1101  3.1790
   23MOL   H89120735   3.375   8.094   3.120  0.7922 -1.0575 -0.7115
   23MOL   H89220736   3.563   7.774   3.331 -1.4211 -1.0802 -0.6060
   23MOL   H89320737   3.584   7.908   3.530  0.0006  2.7029  1.6407
   23MOL   H89420738   3.684   7.703   3.064  0.8929  0.5137  1.1797
   23MOL   H89520739   3.848   7.746   2.911 -1.6342 -2.5250  4.1182
   23MOL   H89620740   3.588   8.050   2.736 -0.5615  1.7323  2.3231
   23MOL   H89720741   3.438   8.026   2.916 -1.0956 -0.9216 -0.6243
   23MOL   H89820742   3.869   8.143   2.815  0.8714  0.6857 -0.7970
   23MOL   H89920743   4.071   8.206   2.681  1.5910 -0.5850  1.0062
   23MOL   H90020744   4.074   7.801   2.522 -1.7518 -0.2669 -0.6307
   23MOL   H90120745   3.866   7.754   2.650 -1.7699 -0.1802 -1.9027
   23MOL   H90220746   4.214   8.140   2.523  0.7578  0.4044  1.9604
   24MOL     C120747   2.305   2.370   8.136 -0.7826  0.8990 -0.3426
   24MOL     C220748   2.400   2.305   8.218  0.0101  0.1248  0.1183
   24MOL     C320749   2.523   2.269   8.167 -1.4541 -0.4025  0.0890
   24MOL     C420750   2.550   2.291   8.031  0.0129  0.5336 -0.9469
   24MOL     C520751   2.453   2.357   7.952 -0.1045 -0.6534 -0.6081
   24MOL     C620752   2.333   2.396   8.007 -0.4500  0.4863 -0.3583
   24MOL     S720753   2.707   2.227   7.958  0.4501  0.1516 -0.0965
   24MOL     O820754   2.729   2.095   8.022  0.1622 -0.1714  0.4400
   24MOL     O920755   2.806   2.336   7.956  0.2739  0.5216  0.1279
   24MOL    C1020756   2.669   2.189   7.789 -0.4149 -1.0661  0.4211
   24MOL    C1120757   2.765   2.214   7.693  0.5307 -0.6875  0.1503
   24MOL    C1220758   2.739   2.198   7.557  0.4168  0.2870  0.5859
   24MOL    C1320759   2.616   2.143   7.512 -0.1864 -0.4935 -0.5054
   24MOL    C1420760   2.515   2.116   7.609 -0.0984  0.1200  0.3327
   24MOL    C1520761   2.546   2.136   7.749 -0.5023  0.0785  0.6831
   24MOL    O1620762   2.584   2.133   7.380  0.1666 -0.3052  0.5522
   24MOL    C1720763   2.617   2.245   7.305  0.1271 -0.7621 -0.7335
   24MOL    C1820764   2.717   2.224   7.208  0.0096 -0.1066  0.4317
   24MOL    C1920765   2.777   2.338   7.154  0.4825 -0.2680 -0.4490
   24MOL    C2020766   2.734   2.469   7.183 -0.1146  0.3584  0.0335
   24MOL    C2120767   2.628   2.487   7.267 -0.0350 -0.5987  0.2229
   24MOL    C2220768   2.573   2.375   7.328 -0.0112  0.8021 -0.1348
   24MOL    C2320769   2.802   2.585   7.128  0.6620  0.0502 -0.5778
   24MOL    C2420770   2.734   2.686   7.053  0.2316  0.4043 -0.0868
   24MOL    C2520771   2.787   2.806   7.021 -0.4931 -0.5050  0.4104
   24MOL    C2620772   2.924   2.818   7.034  0.1485  0.0815  0.4462
   24MOL    C2720773   2.998   2.726   7.118  0.1689 -0.8925  0.3834
   24MOL    C2820774   2.939   2.614   7.172  0.0547  0.1609  0.2624
   24MOL    O2920775   2.986   2.927   6.972 -0.6535  0.0454 -0.5014
   24MOL    H3020776   2.392   2.266   8.319 -1.4972  0.3014  0.0765
   24MOL    H3120777   2.599   2.232   8.234 -0.1941  0.0921 -1.0521
   24MOL    H3220778   2.482   2.374   7.849  0.0213  0.6087 -0.3692
   24MOL    H3320779   2.253   2.440   7.949 -1.0877 -1.3095 -0.8924
   24MOL    H3420780   2.857   2.258   7.728 -0.2596  1.9990 -1.0135
   24MOL    H3520781   2.816   2.206   7.482 -0.0585  1.4210  0.2033
   24MOL    H3620782   2.414   2.087   7.581 -0.0491  2.3478 -2.4003
   24MOL    H3720783   2.474   2.119   7.827 -2.0130 -0.2722 -0.7758
   24MOL    H3820784   2.762   2.131   7.177  0.7060  0.8081 -1.4017
   24MOL    H3920785   2.864   2.324   7.092  2.4243 -0.0124  2.1439
   24MOL    H4020786   2.594   2.586   7.291 -0.6118 -0.5163 -0.9204
   24MOL    H4120787   2.502   2.390   7.408  0.2998  3.7147 -0.3572
   24MOL    H4220788   2.631   2.667   7.027  0.8442 -4.0245  0.4380
   24MOL    H4320789   2.726   2.870   6.959  0.7123  1.3132  1.0669
   24MOL    H4420790   3.099   2.746   7.149 -1.1445  3.0551  2.3503
   24MOL    H4520791   3.000   2.546   7.230  0.6485  0.8125  0.4163
   24MOL    H4620792   2.206   2.381   8.179 -1.5313 -1.5223 -1.3172
   24MOL    C4720793   2.945   3.052   6.995 -0.0635 -0.0525  0.6479
   24MOL    C4820794   2.951   3.139   6.885  0.1108 -0.6476 -0.2924
   24MOL    C4920795   2.922   3.279   6.904  0.1202  1.0090 -0.1070
   24MOL    C5020796   2.863   3.322   7.024 -0.4121  0.2741  0.7101
   24MOL    C5120797   2.843   3.232   7.127  0.7994  0.0041 -0.1020
   24MOL    C5220798   2.896   3.100   7.115 -0.1078 -0.1306  0.7706
   24MOL    S5320799   2.797   3.487   7.033 -0.5796  0.1010 -0.3840
   24MOL    O5420800   2.772   3.516   7.174  0.0211  0.2654 -0.2597
   24MOL    O5520801   2.683   3.484   6.944  0.0810  0.1286 -0.6542
   24MOL    C5620802   2.909   3.613   6.970 -0.4875  0.3349  0.5662
   24MOL    C5720803   3.045   3.582   6.944 -0.3860 -0.3420 -0.1112
   24MOL    C5820804   3.129   3.687   6.898 -0.2069 -0.7499  0.8010
   24MOL    C5920805   3.078   3.815   6.872  0.0645  0.1617  1.5289
   24MOL    C6020806   2.940   3.838   6.894  1.0042  0.5105 -0.8238
   24MOL    C6120807   2.855   3.739   6.947 -0.0443 -0.5106  0.8886
   24MOL    O6220808   3.163   3.919   6.840 -0.3990  0.3355  0.0283
   24MOL    C6320809   3.264   3.951   6.933  0.1089  0.5776 -0.1446
   24MOL    C6420810   3.395   3.915   6.903  0.7652 -0.5208  0.8841
   24MOL    C6520811   3.506   3.923   6.995  0.1076  0.6216  0.4621
   24MOL    C6620812   3.478   3.973   7.124  0.5206 -0.5614 -0.2460
   24MOL    C6720813   3.346   4.023   7.149 -0.1559  0.4249  0.4057
   24MOL    C6820814   3.239   4.007   7.059  0.7555  0.1975  0.2490
   24MOL    C6920815   3.587   3.987   7.224  1.0022 -0.2609  0.2949
   24MOL    C7020816   3.581   4.093   7.321  0.1239 -0.2482  1.0333
   24MOL    C7120817   3.679   4.110   7.415  0.3769  0.1281 -0.4945
   24MOL    C7220818   3.792   4.026   7.422  0.2935  1.0896  0.0170
   24MOL    C7320819   3.806   3.924   7.328  0.4310 -1.0603 -0.1286
   24MOL    C7420820   3.703   3.904   7.232  0.3204 -0.1030 -0.0311
   24MOL    O7520821   3.884   4.043   7.527  0.9660  0.2987 -0.3030
   24MOL    H7620822   2.995   3.106   6.792  0.4705 -0.6182 -0.1338
   24MOL    H7720823   2.924   3.341   6.816  1.1312  0.3442 -0.5664
   24MOL    H7820824   2.784   3.263   7.212  2.5901 -0.2856  1.2769
   24MOL    H7920825   2.893   3.041   7.206 -1.8497  1.1506  1.5843
   24MOL    H8020826   3.088   3.484   6.935  0.3641 -0.0606  0.3804
   24MOL    H8120827   3.232   3.674   6.869 -0.1712  2.1393 -0.5275
   24MOL    H8220828   2.903   3.935   6.866  0.0905  1.0284  1.9856
   24MOL    H8320829   2.753   3.766   6.969 -0.5251  2.1310 -3.8707
   24MOL    H8420830   3.414   3.871   6.806  0.6159  0.8379  0.2324
   24MOL    H8520831   3.602   3.886   6.962 -0.7005 -0.4646 -0.7341
   24MOL    H8620832   3.329   4.064   7.247  1.8969 -0.2374  1.0542
   24MOL    H8720833   3.138   4.042   7.073  0.6496  0.6636 -1.5082
   24MOL    H8820834   3.496   4.161   7.314  1.1003  0.7840 -1.8047
   24MOL    H8920835   3.666   4.194   7.482  2.1234 -0.4587  0.5926
   24MOL    H9020836   3.895   3.865   7.339  1.9002  1.4107  1.9451
   24MOL    H9120837   3.710   3.816   7.169  1.2023  0.3532 -0.5809
   24MOL    C9220838   4.021   4.045   7.498  0.7176  0.3200  0.1615
   24MOL    C9320839   4.112   3.969   7.570  0.6921 -0.3400  0.3310
   24MOL    C9420840   4.249   3.982   7.559  0.4274 -0.5151  0.1703
   24MOL    C9520841   4.297   4.075   7.465  0.7245 -0.2606 -0.1841
   24MOL    C9620842   4.204   4.159   7.390 -0.0632  0.6646  1.1010
   24MOL    C9720843   4.066   4.138   7.403  0.2416  0.1906 -0.0822
   24MOL    S9820844   4.471   4.085   7.432  0.4475 -0.4307  0.1267
   24MOL    O9920845   4.517   4.227   7.433  0.3819 -0.3018  0.6272
   24MOL   O10020846   4.498   3.999   7.315 -0.3080  0.2767  0.0255
   24MOL   C10120847   4.557   4.011   7.569  0.2215 -0.8157 -0.3302
   24MOL   C10220848   4.646   3.907   7.549  0.6640 -0.1888 -0.0453
   24MOL   C10320849   4.725   3.860   7.656 -0.2667  0.3432  0.5404
   24MOL   C10420850   4.703   3.902   7.790 -0.2726 -0.9065  0.0655
   24MOL   C10520851   4.602   3.997   7.808  0.3589 -0.1270  0.7703
   24MOL   C10620852   4.532   4.061   7.700  0.1361 -0.0327  0.2047
   24MOL   O10720853   4.764   3.855   7.902 -0.1649 -0.2360 -0.1478
   24MOL   C10820854   4.881   3.791   7.894 -0.9541 -0.3628 -0.4680
   24MOL   C10920855   4.999   3.867   7.870  0.2153  0.0139  0.0649
   24MOL   C11020856   5.121   3.798   7.856 -0.0714  0.4144 -0.1087
   24MOL   C11120857   5.125   3.664   7.892  0.9030 -0.1534  0.3614
   24MOL   C11220858   5.006   3.588   7.924  0.5665  0.0766  0.3582
   24MOL   C11320859   4.884   3.653   7.920  0.1817 -0.1044  0.1738
   24MOL   C11420860   5.263   3.601   7.897 -0.2529 -0.3219 -0.3920
   24MOL   C11520861   5.378   3.648   7.970  0.4923  0.4326 -0.6634
   24MOL   C11620862   5.500   3.572   7.983 -0.1726  0.0650  0.1117
   24MOL   C11720863   5.519   3.458   7.906  0.6163  0.3243 -0.2722
   24MOL   C11820864   5.410   3.416   7.832  0.0690 -0.0612  0.1349
   24MOL   C11920865   5.283   3.478   7.830 -0.7801  0.2470  0.1093
   24MOL   O12020866   5.635   3.389   7.902 -0.5693  0.1880 -0.4975
   24MOL   H12120867   4.072   3.912   7.652 -0.6764 -1.2069 -0.8868
   24MOL   H12220868   4.309   3.915   7.619  0.0734 -0.8128  0.1947
   24MOL   H12320869   4.246   4.230   7.321  1.8492 -0.8324  0.6951
   24MOL   H12420870   3.993   4.200   7.352 -2.6908 -3.5293 -0.6499
   24MOL   H12520871   4.663   3.865   7.451 -1.2431 -0.1007 -0.4185
   24MOL   H12620872   4.800   3.786   7.633 -2.1205 -1.0598 -1.1567
   24MOL   H12720873   4.582   4.041   7.905 -0.6626  0.4236  0.3162
   24MOL   H12820874   4.468   4.145   7.720  2.4218  1.6148  0.9065
   24MOL   H12920875   4.990   3.974   7.855  1.4978  0.4291  2.1137
   24MOL   H13020876   5.210   3.854   7.831  0.6562 -1.3000 -1.4809
   24MOL   H13120877   5.005   3.483   7.947  0.4944  0.2434  1.1358
   24MOL   H13220878   4.792   3.598   7.933 -0.7326  0.8298 -2.0431
   24MOL   H13320879   5.380   3.747   8.013 -1.9832  1.0710 -1.9509
   24MOL   H13420880   5.588   3.614   8.031 -1.5654  0.6131  2.2898
   24MOL   H13520881   5.424   3.334   7.763  0.0857  0.8494 -0.9589
   24MOL   H13620882   5.204   3.429   7.776 -0.4860 -0.7364  0.5416
   24MOL   C13720883   5.631   3.251   7.907  0.8355  0.1454 -0.5871
   24MOL   C13820884   5.620   3.185   8.027 -0.6205  0.6570 -0.1577
   24MOL   C13920885   5.619   3.046   8.032 -0.3780 -0.4386 -0.7544
   24MOL   C14020886   5.638   2.972   7.917 -0.2745  0.2347 -0.9695
   24MOL   C14120887   5.633   3.038   7.790 -0.4745 -0.6137 -0.2544
   24MOL   C14220888   5.631   3.175   7.789 -0.7667 -0.0439 -0.2108
   24MOL   S14320889   5.643   2.797   7.915 -0.2592  0.1930  0.0715
   24MOL   O14420890   5.520   2.750   7.858 -0.6319 -0.0163  0.4559
   24MOL   O14520891   5.682   2.747   8.052 -0.5889  0.6664  0.5320
   24MOL   C14620892   5.771   2.744   7.798 -0.0331  0.3570 -0.4194
   24MOL   C14720893   5.753   2.744   7.658  0.5236  0.2639  0.5696
   24MOL   C14820894   5.854   2.699   7.573 -0.7148  0.1883  0.1201
   24MOL   C14920895   5.974   2.655   7.619 -0.2168  0.4329 -0.2502
   24MOL   C15020896   5.998   2.656   7.762  0.7645  0.2051 -0.1122
   24MOL   C15120897   5.897   2.699   7.848  0.2100  0.3939 -0.0089
   24MOL   O15220898   6.070   2.601   7.531 -0.2936  0.6436  0.0698
   24MOL   C15320899   6.204   2.587   7.568 -0.2694 -0.1617 -0.6257
   24MOL   C15420900   6.245   2.481   7.651 -0.1271 -0.2362 -0.2806
   24MOL   C15520901   6.379   2.479   7.690 -0.2386 -0.3613  0.1059
   24MOL   C15620902   6.480   2.569   7.645 -0.4934 -0.4272 -0.2226
   24MOL   C15720903   6.440   2.664   7.548 -0.5759 -0.1589  0.1079
   24MOL   C15820904   6.302   2.676   7.511 -0.1890 -0.3313 -0.4379
   24MOL   C15920905   6.616   2.557   7.698 -0.4431 -0.4267 -0.0807
   24MOL   C16020906   6.690   2.681   7.720  0.5953  0.5730 -0.1911
   24MOL   C16120907   6.824   2.678   7.769 -0.0924  0.4559 -0.7501
   24MOL   C16220908   6.882   2.549   7.804  0.2448 -0.3959  0.6330
   24MOL   C16320909   6.812   2.435   7.772 -0.0861  0.5838 -0.6720
   24MOL   C16420910   6.678   2.435   7.722  0.7479  0.0741 -0.4896
   24MOL   O16520911   7.019   2.537   7.851 -0.2996 -0.4531  0.0040
   24MOL   H16620912   5.628   3.246   8.115  0.7594 -1.9717  1.6074
   24MOL   H16720913   5.618   2.998   8.129 -1.6571 -0.0992 -0.5918
   24MOL   H16820914   5.632   2.986   7.695 -0.9797 -0.9755 -0.0540
   24MOL   H16920915   5.637   3.223   7.692 -1.9841 -2.1485 -1.3495
   24MOL   H17020916   5.658   2.782   7.625 -0.8325 -0.3938  3.5649
   24MOL   H17120917   5.846   2.700   7.465  1.9566 -0.6350 -0.1116
   24MOL   H17220918   6.093   2.626   7.805  2.1529  1.9882 -1.8235
   24MOL   H17320919   5.911   2.697   7.956 -0.8468  1.1268  0.1467
   24MOL   H17420920   6.169   2.417   7.693  1.1088 -0.4801  1.6384
   24MOL   H17520921   6.407   2.404   7.763 -1.0887 -0.6918  0.1040
   24MOL   H17620922   6.503   2.740   7.504 -1.8588  0.2124 -1.1512
   24MOL   H17720923   6.269   2.760   7.452  1.0008 -0.1194 -0.8203
   24MOL   H17820924   6.649   2.780   7.704 -0.3325 -0.2084 -2.9569
   24MOL   H17920925   6.877   2.767   7.802  0.4216  0.3881 -1.3863
   24MOL   H18020926   6.863   2.342   7.789 -0.6326 -0.4487 -4.2666
   24MOL   H18120927   6.638   2.345   7.679  2.4729 -1.0261  0.1587
   24MOL   C18220928   7.048   2.586   7.975 -0.0124 -0.1687 -0.2861
   24MOL   C18320929   7.143   2.690   7.986 -0.2289  0.3999 -0.4894
   24MOL   C18420930   7.161   2.756   8.105  0.0128 -0.8578 -0.2489
   24MOL   C18520931   7.076   2.740   8.214  0.3749 -0.0103  0.0762
   24MOL   C18620932   6.976   2.636   8.206 -0.2950 -0.1488  0.4094
   24MOL   C18720933   6.970   2.557   8.091 -0.2720 -0.0230  0.2119
   24MOL   S18820934   7.086   2.840   8.363  0.0758  0.1584  0.2280
   24MOL   O18920935   7.222   2.832   0.055  0.2002  0.4137  0.6665
   24MOL   O19020936   6.964   2.813   0.073 -0.6451 -0.4545  0.5496
   24MOL   C19120937   7.074   3.002   8.291  0.3534  0.3772  0.2970
   24MOL   C19220938   7.193   3.060   8.244  0.2362 -0.4563  0.0857
   24MOL   C19320939   7.180   3.184   8.178  0.7328 -0.0916 -0.9606
   24MOL   C19420940   7.055   3.244   8.164 -0.0236  0.2915  0.2281
   24MOL   C19520941   6.937   3.189   8.219 -0.3608 -0.1422  0.1756
   24MOL   C19620942   6.947   3.064   8.282 -0.0004 -0.4222 -0.1352
   24MOL   O19720943   7.065   3.369   8.111  0.2168  0.5198 -0.5421
   24MOL   C19820944   7.041   3.383   7.979 -0.0071 -0.7495 -0.3943
   24MOL   C19920945   7.129   3.335   7.875  0.0649  0.8117 -0.6628
   24MOL   C20020946   7.098   3.337   7.737  1.1155 -0.4437  0.8438
   24MOL   C20120947   6.968   3.388   7.705 -0.5371 -0.0843 -0.3007
   24MOL   C20220948   6.880   3.428   7.804  0.3680 -0.3764  0.6487
   24MOL   C20320949   6.921   3.432   7.936  0.0607 -0.4397 -0.0848
   24MOL   C20420950   6.929   3.388   7.564  0.8474  0.3018  0.4115
   24MOL   C20520951   6.794   3.357   7.527  0.2324 -0.0644 -0.1603
   24MOL   C20620952   6.754   3.363   7.393  0.6960 -0.3100 -0.0691
   24MOL   C20720953   6.840   3.397   7.289 -1.0035  0.1516 -0.7901
   24MOL   C20820954   6.970   3.429   7.322 -0.0874  0.5322  0.4177
   24MOL   C20920955   7.016   3.422   7.457  0.0103  0.0343  0.2049
   24MOL   O21020956   6.779   3.413   7.165 -0.3158  0.0827  0.5380
   24MOL   H21120957   7.207   2.706   7.900 -2.0759 -0.7525 -2.1280
   24MOL   H21220958   7.228   2.840   8.107  0.9667 -1.6255  0.4446
   24MOL   H21320959   6.917   2.621   8.296  0.2643 -1.6816  0.5373
   24MOL   H21420960   6.894   2.481   8.089 -0.4857  0.2192 -1.1764
   24MOL   H21520961   7.282   2.999   8.243 -0.8908 -2.2264  2.0780
   24MOL   H21620962   7.274   3.229   8.148  1.1874 -0.4497 -0.1114
   24MOL   H21720963   6.846   3.248   8.210 -0.0967  0.0267 -1.6772
   24MOL   H21820964   6.858   3.012   8.313 -0.5816 -0.1414 -1.3237
   24MOL   H21920965   7.225   3.304   7.913 -1.5161  0.7811  3.6715
   24MOL   H22020966   7.166   3.319   7.655  0.0713 -0.4121 -0.0363
   24MOL   H22120967   6.781   3.462   7.776  1.1638  0.4832 -1.2904
   24MOL   H22220968   6.838   3.473   7.992  0.7414 -0.1055  0.6930
   24MOL   H22320969   6.720   3.344   7.604  0.1513 -1.2058 -0.4196
   24MOL   H22420970   6.649   3.360   7.368  0.7607  0.7757 -0.5141
   24MOL   H22520971   7.031   3.464   7.240 -0.5661  1.1540  0.3279
   24MOL   H22620972   7.120   3.442   7.474  0.1402 -1.3148  1.1580
   24MOL   C22720973   6.761   3.541   7.123 -0.0731 -0.1320  0.4802
   24MOL   C22820974   6.693   3.638   7.203 -0.2118  0.5890 -0.1029
   24MOL   C22920975   6.661   3.760   7.140  0.1994  0.0671 -0.3545
   24MOL   C23020976   6.695   3.784   7.007 -0.1170  0.1418 -0.3055
   24MOL   C23120977   6.759   3.686   6.927 -0.3631  0.7563  0.3178
   24MOL   C23220978   6.797   3.565   6.988  0.1033  0.2712 -0.0764
   24MOL   S23320979   6.676   3.946   6.951  0.2382 -0.2851  0.3560
   24MOL   O23420980   6.573   3.939   6.845 -0.4306  0.0979 -0.6213
   24MOL   O23520981   6.818   3.985   6.919 -0.5992 -0.0858 -0.2346
   24MOL   C23620982   6.614   4.059   7.077  0.1395  0.5675 -0.4333
   24MOL   C23720983   6.701   4.101   7.176 -0.0126  0.1904 -0.5238
   24MOL   C23820984   6.652   4.181   7.280  0.2051 -0.1435  0.1350
   24MOL   C23920985   6.519   4.230   7.269  0.6733  0.0426 -0.2737
   24MOL   C24020986   6.430   4.186   7.172  0.3543  0.0557  0.0181
   24MOL   C24120987   6.476   4.091   7.078 -0.2461 -0.4927  1.1529
   24MOL   O24220988   6.472   4.321   7.359  0.3346 -0.1868 -0.1475
   24MOL   C24320989   6.460   4.287   7.486 -0.3540  0.2546 -0.3016
   24MOL   C24420990   6.531   4.352   7.586  0.3849  0.3150 -0.0881
   24MOL   C24520991   6.528   4.310   7.721 -0.4221  0.0269 -0.7524
   24MOL   C24620992   6.448   4.194   7.752  0.5828  0.2270  0.4546
   24MOL   C24720993   6.374   4.123   7.651 -0.0948 -0.3575  0.0460
   24MOL   C24820994   6.386   4.171   7.519 -0.1553  0.5230  0.2538
   24MOL   C24920995   6.444   4.144   7.889 -0.2704 -0.3512 -0.2740
   24MOL   C25020996   6.328   4.109   7.963  0.1707  0.1836  0.2924
   24MOL   C25120997   6.339   4.078   8.099  0.1025  0.0492 -0.5607
   24MOL   C25220998   6.459   4.064   8.163  0.0486  0.4019  0.5128
   24MOL   C25320999   6.578   4.079   8.088 -0.3948 -1.0720  0.4227
   24MOL   C25421000   6.568   4.132   7.961 -0.1694  0.2555  0.4221
   24MOL   O25521001   6.452   4.014   8.291 -0.2045 -0.2665 -0.7046
   24MOL   H25621002   6.667   3.619   7.306  0.0575 -0.2689 -0.1849
   24MOL   H25721003   6.604   3.834   7.195  2.5352  1.8083 -0.2036
   24MOL   H25821004   6.781   3.705   6.823 -0.9387 -0.4124 -0.0143
   24MOL   H25921005   6.840   3.497   6.916 -2.0741 -1.0791 -0.1565
   24MOL   H26021006   6.806   4.075   7.173 -0.5221 -2.3444  1.6103
   24MOL   H26121007   6.702   4.214   7.370 -0.9022 -0.9508  1.0658
   24MOL   H26221008   6.332   4.226   7.152  0.6341  0.8143  0.1255
   24MOL   H26321009   6.402   4.055   7.007 -1.0048 -0.7632  2.0723
   24MOL   H26421010   6.586   4.440   7.558 -0.8372  0.7166 -1.3025
   24MOL   H26521011   6.588   4.357   7.798  0.0700 -0.5230 -0.7928
   24MOL   H26621012   6.311   4.037   7.671 -0.1642 -0.9435 -2.4227
   24MOL   H26721013   6.335   4.122   7.438 -0.5619  1.4751 -0.0853
   24MOL   H26821014   6.229   4.105   7.920 -0.5947  2.4525  1.7408
   24MOL   H26921015   6.253   4.073   8.164  1.1577  3.7449  1.2664
   24MOL   H27021016   6.670   4.067   8.143  1.0009 -0.0841 -1.6775
   24MOL   H27121017   6.664   4.149   7.914  1.0558 -2.0114  2.0095
   24MOL   C27221018   6.491   3.883   8.320  0.0621  0.1033 -0.0937
   24MOL   C27321019   6.456   3.763   8.257  0.6993 -0.2696  0.0699
   24MOL   C27421020   6.513   3.635   8.285  0.7724  0.2940 -0.3786
   24MOL   C27521021   6.617   3.629   0.018 -0.0369 -0.2504 -0.1591
   24MOL   C27621022   6.650   3.746   0.084  0.3072  0.0950  0.2850
   24MOL   C27721023   6.588   3.870   0.055 -0.3810 -0.9583 -0.8223
   24MOL   S27821024   6.677   3.469   0.058 -0.1062 -0.0749 -0.1947
   24MOL   O27921025   6.632   3.370   8.329  0.3075  0.4243  0.3647
   24MOL   O28021026   6.648   3.454   0.201  0.5102 -0.5386  0.3337
   24MOL   C28121027   6.855   3.476   0.043 -0.4583  0.0741 -0.0472
   24MOL   C28221028   6.903   3.556   8.306 -0.0592  0.6610  0.3953
   24MOL   C28321029   7.043   3.584   8.296  0.0780 -0.1601  0.7207
   24MOL   C28421030   7.129   3.523   0.020  0.1312 -0.5110 -0.6916
   24MOL   C28521031   7.075   3.439   0.118  0.1541  0.5906  0.0751
   24MOL   C28621032   6.942   3.416   0.137 -0.2898 -0.1041  0.5655
   24MOL   O28721033   7.262   3.553   0.024 -0.1980  0.7415 -0.1727
   24MOL   C28821034   7.351   3.474   0.091 -1.0105  0.3782 -0.0830
   24MOL   C28921035   7.402   3.519   0.212 -0.4026  0.2826  0.8197
   24MOL   C29021036   7.482   3.433   0.291  0.4985 -0.1082  0.8296
   24MOL   C29121037   7.525   3.309   0.246  0.1184  0.5595 -0.3947
   24MOL   C29221038   7.475   3.267   0.119  0.6987  0.2754  0.0474
   24MOL   C29321039   7.394   3.349   0.043 -0.2221  0.0271 -0.4703
   24MOL   C29421040   7.618   3.218   0.316 -0.2079  0.1047 -0.3969
   24MOL   C29521041   7.624   3.231   0.460  0.2588 -0.0943  0.4452
   24MOL   C29621042   7.703   3.138   0.525 -0.0196  0.3936 -0.6446
   24MOL   C29721043   7.787   3.050   0.460 -0.4885  0.1658  0.6608
   24MOL   C29821044   7.784   3.044   0.319 -0.9417 -0.6687  0.3078
   24MOL   C29921045   7.709   3.134   0.251 -0.1570 -0.0740 -0.0541
   24MOL   O30021046   7.865   2.961   0.536 -0.0833 -0.0861 -0.2955
   24MOL   H30121047   6.381   3.759   8.180  0.6042  0.2609  0.1353
   24MOL   H30221048   6.474   3.547   8.237 -1.9456  1.7300 -0.9232
   24MOL   H30321049   6.711   3.733   0.172  1.0197  0.2923 -0.1689
   24MOL   H30421050   6.618   3.955   0.114 -0.2167 -0.8366 -1.0813
   24MOL   H30521051   6.836   3.596   8.231 -1.0864 -1.5526  0.0896
   24MOL   H30621052   7.076   3.645   8.213  1.5908 -1.6210  0.2218
   24MOL   H30721053   7.148   3.398   0.187 -0.2693 -0.6350 -0.1995
   24MOL   H30821054   6.904   3.357   0.219  0.9938 -0.6669  0.7718
   24MOL   H30921055   7.377   3.616   0.252  1.6804  1.8286 -1.5358
   24MOL   H31021056   7.522   3.473   0.383  0.2881  0.3137  0.7373
   24MOL   H31121057   7.511   3.175   0.077 -0.8540 -0.4339  0.2328
   24MOL   H31221058   7.365   3.324   8.308 -0.3420 -2.3963  0.1493
   24MOL   H31321059   7.564   3.297   0.521  0.0033 -1.3791  1.6120
   24MOL   H31421060   7.702   3.137   0.633 -2.7826 -0.5148 -0.6481
   24MOL   H31521061   7.850   2.976   0.267 -0.1603  1.2628 -1.2872
   24MOL   H31621062   7.716   3.121   0.144 -4.0961  0.6515 -0.4650
   24MOL   C31721063   7.971   2.902   0.471  0.1719 -0.9157 -0.3645
   24MOL   C31821064   8.101   2.962   0.457 -0.1576 -0.1311  0.5570
   24MOL   C31921065   8.205   2.896   0.395 -0.6113 -0.0787  0.3775
   24MOL   C32021066   8.178   2.773   0.337  1.0668  0.3039  0.3225
   24MOL   C32121067   8.059   2.705   0.351  0.4218  0.6274 -0.1235
   24MOL   C32221068   7.952   2.773   0.423 -0.1912 -0.3506  0.3801
   24MOL   S32321069   8.324   2.685   0.270  0.0397  0.2132 -0.1519
   24MOL   O32421070   8.319   2.545   0.315  0.3414  0.5103  1.1591
   24MOL   O32521071   0.084   2.762   0.292 -0.0766  0.2325 -0.2285
   24MOL   C32621072   8.290   2.687   0.092 -0.9674 -0.5459  0.1194
   24MOL   C32721073   8.234   2.805   0.032 -0.1725 -0.6075 -0.1240
   24MOL   C32821074   8.209   2.806   8.261  0.4878  0.2415 -0.0797
   24MOL   C32921075   8.224   2.685   8.180  0.5186 -0.6092 -1.2280
   24MOL   C33021076   8.269   2.570   8.247  0.8443  0.0794 -0.0192
   24MOL   C33121077   8.311   2.569   0.020 -0.0425 -0.2663 -0.3903
   24MOL   O33221078   8.189   2.693   8.054  0.0363  0.7326  0.1510
   24MOL   C33321079   8.285   2.697   7.960 -0.1209  0.2429  0.5481
   24MOL   C33421080   0.030   2.784   7.971 -0.0660  0.0278  0.0212
   24MOL   C33521081   0.139   2.773   7.884  0.1867 -0.0193 -0.2918
   24MOL   C33621082   0.132   2.675   7.784  0.3161 -0.0630  0.9083
   24MOL   C33721083   0.018   2.598   7.762  0.2054  0.5755  0.1134
   24MOL   C33821084   8.280   2.606   7.854  0.3112 -0.5388 -0.2294
   24MOL   C33921085   0.241   2.665   7.687  0.3009 -0.5042  0.3779
   24MOL   C34021086   0.283   2.783   7.627  0.3430  0.7348  0.5256
   24MOL   C34121087   0.371   2.777   7.519  0.3199  0.6151  0.1832
   24MOL   C34221088   0.436   2.659   7.480  0.1621 -0.2747  0.3718
   24MOL   C34321089   0.410   2.541   7.551 -0.6472  0.3450  0.0065
   24MOL   C34421090   0.305   2.542   7.648 -0.6430 -0.0518 -0.4796
   24MOL   O34521091   0.509   2.646   7.365  0.1246 -0.5147 -0.0148
   24MOL   H34621092   8.118   3.057   0.505 -0.1170  0.7689 -1.2085
   24MOL   H34721093   8.307   2.930   0.394 -1.2881  2.0207  0.1548
   24MOL   H34821094   8.034   2.607   0.314 -1.8265 -0.0223  2.9842
   24MOL   H34921095   7.854   2.731   0.439 -0.5594  0.0960 -0.6822
   24MOL   H35021096   8.210   2.897   0.085 -2.4407 -0.4861 -1.2927
   24MOL   H35121097   8.168   2.895   8.216 -1.3243 -0.2045  0.6362
   24MOL   H35221098   8.290   2.476   8.198  2.2624  0.5793 -0.3923
   24MOL   H35321099   8.340   2.477   0.069  0.0121 -0.2348 -0.3631
   24MOL   H35421100   0.045   2.856   8.050 -0.1446 -1.2818  1.2484
   24MOL   H35521101   0.225   2.838   7.897  0.7935 -0.9072  0.2010
   24MOL   H35621102   0.024   2.528   7.680  2.3643  1.7724 -0.7836
   24MOL   H35721103   8.197   2.536   7.857 -0.3536  0.1380 -1.9367
   24MOL   H35821104   0.232   2.875   7.652  0.6052  1.3576 -1.1819
   24MOL   H35921105   0.403   2.865   7.465  1.5294  1.5542  2.3537
   24MOL   H36021106   0.457   2.452   7.510  3.1140  0.7449  3.1870
   24MOL   H36121107   0.274   2.448   7.690 -1.8767 -0.5031 -2.3435
   24MOL   C36221108   0.633   2.703   7.358  0.1543  0.3969  0.0452
   24MOL   C36321109   0.647   2.818   7.281 -0.2986  0.6793 -0.0094
   24MOL   C36421110   0.772   2.879   7.265 -0.3030 -0.4759  0.8216
   24MOL   C36521111   0.886   2.826   7.331 -0.6598 -0.3689 -0.3330
   24MOL   C36621112   0.875   2.712   7.414  0.1069 -0.0083  0.4729
   24MOL   C36721113   0.747   2.651   7.427  0.0315 -0.1998 -0.3323
   24MOL   S36821114   1.046   2.907   7.326  0.5070  0.3147 -0.3419
   24MOL   O36921115   1.075   2.937   7.184  0.7213 -0.4855  0.1511
   24MOL   O37021116   1.142   2.819   7.400 -0.5114  0.2876  0.6057
   24MOL   C37121117   1.010   3.046   7.424  0.8234 -0.2060 -0.5744
   24MOL   C37221118   0.997   3.032   7.564 -0.4281  0.1757 -0.8933
   24MOL   C37321119   0.971   3.146   7.643 -0.0936  0.4521  0.4719
   24MOL   C37421120   0.965   3.277   7.585 -0.0742  0.7007 -0.1367
   24MOL   C37521121   0.984   3.287   7.447  0.7690 -0.2321 -0.8893
   24MOL   C37621122   1.005   3.172   7.364 -0.1812  0.0227  0.1864
   24MOL   O37721123   0.937   3.388   7.668 -0.2904  0.6386 -0.1247
   24MOL   C37821124   0.886   3.512   7.628 -0.3183  0.2515  0.3023
   24MOL   C37921125   0.786   3.518   7.531  0.6693 -0.4643  0.2942
   24MOL   C38021126   0.721   3.638   7.486 -0.2263  0.2637 -0.2583
   24MOL   C38121127   0.780   3.758   7.532  0.4332  0.3414  0.1786
   24MOL   C38221128   0.880   3.757   7.632  0.1934 -0.6496 -0.0077
   24MOL   C38321129   0.921   3.633   7.688 -0.0635  0.2070  0.2083
   24MOL   C38421130   0.723   3.882   7.469 -0.0895  0.3736 -0.2115
   24MOL   C38521131   0.804   3.997   7.444 -0.8997  0.2211  0.3627
   24MOL   C38621132   0.752   4.112   7.388 -0.4037 -0.2301  0.7875
   24MOL   C38721133   0.611   4.118   7.364  0.6343 -0.4600  0.4760
   24MOL   C38821134   0.533   4.004   7.373 -0.1623  0.2056 -0.2860
   24MOL   C38921135   0.584   3.886   7.432 -0.5812  0.3933  0.3173
   24MOL   O39021136   0.556   4.231   7.316 -0.1040 -0.0193  0.0453
   24MOL   H39121137   0.556   2.862   7.243 -3.0398 -3.1474  1.7891
   24MOL   H39221138   0.785   2.969   7.207  2.8502 -1.4141 -0.0127
   24MOL   H39321139   0.965   2.678   7.463  0.9213  1.1034 -0.2182
   24MOL   H39421140   0.735   2.565   7.492 -2.4946  1.5052  1.5403
   24MOL   H39521141   1.003   2.939   7.619  1.3705  0.6884 -0.1731
   24MOL   H39621142   0.954   3.125   7.748  0.4740 -0.3288  0.4100
   24MOL   H39721143   0.973   3.381   7.395  2.8683  0.0570 -0.8706
   24MOL   H39821144   1.019   3.184   7.257 -0.0273 -1.1774  0.0659
   24MOL   H39921145   0.750   3.426   7.487 -0.1868 -0.5420  1.1461
   24MOL   H40021146   0.659   3.649   7.398  0.4624  2.0921 -0.5265
   24MOL   H40121147   0.915   3.852   7.670  1.7828 -0.8008 -1.0391
   24MOL   H40221148   0.990   3.632   7.771 -0.7077  0.4750  0.7500
   24MOL   H40321149   0.907   3.999   7.475 -0.6472  2.7070 -0.5286
   24MOL   H40421150   0.823   4.192   7.378 -0.7742 -0.0481 -0.5034
   24MOL   H40521151   0.430   4.008   7.343 -0.8107  0.1992  1.8759
   24MOL   H40621152   0.524   3.797   7.445  3.9077 -2.8660 -0.0136
   24MOL   C40721153   0.536   4.244   7.185 -0.8742  0.4477  0.0050
   24MOL   C40821154   0.407   4.215   7.130 -0.3285 -0.9024  0.4659
   24MOL   C40921155   0.391   4.239   6.991  0.2677 -0.1306  0.4731
   24MOL   C41021156   0.500   4.298   6.913 -0.4608  0.4980 -0.1779
   24MOL   C41121157   0.629   4.322   6.968  0.1608  0.0705  0.5823
   24MOL   C41221158   0.643   4.302   7.106 -0.3240  0.1009 -0.1451
   24MOL   S41321159   0.470   4.317   6.738  0.3926 -0.2701 -0.1663
   24MOL   O41421160   0.321   4.291   6.715 -0.6659 -0.4112 -0.1137
   24MOL   O41521161   0.558   4.237   6.652 -0.6223 -0.1413 -0.0274
   24MOL   C41621162   0.511   4.493   6.701  0.1545  0.8862 -0.1885
   24MOL   C41721163   0.637   4.529   6.639  0.3157 -0.6585  0.2425
   24MOL   C41821164   0.670   4.666   6.638  0.4607 -0.1726 -0.3289
   24MOL   C41921165   0.585   4.758   6.701  0.4269 -0.5382 -0.1230
   24MOL   C42021166   0.463   4.715   6.758 -0.3956 -0.4843  1.3179
   24MOL   C42121167   0.425   4.583   6.760  0.0313  0.5842 -0.5493
   24MOL   O42221168   0.617   4.891   6.717 -0.2119 -0.3207  0.1862
   24MOL   C42321169   0.744   4.938   6.760  0.1275  0.3067 -0.0155
   24MOL   C42421170   0.795   4.905   6.888  0.2821  0.0950 -0.0623
   24MOL   C42521171   0.922   4.961   6.924 -0.5567 -0.7617 -0.1697
   24MOL   C42621172   0.996   5.043   6.832 -0.5886  0.0678 -0.6488
   24MOL   C42721173   0.943   5.064   6.700  0.6168  0.0091 -0.2115
   24MOL   C42821174   0.813   5.024   6.664 -0.3191  0.3396 -0.4779
   24MOL   C42921175   1.128   5.094   6.873  0.2828 -0.3671 -0.3963
   24MOL   C43021176   1.245   5.080   6.797 -0.0370 -0.3435 -0.0268
   24MOL   C43121177   1.368   5.139   6.835 -0.0382 -0.1641 -0.5602
   24MOL   C43221178   1.369   5.225   6.951 -0.3642  0.6675 -0.4038
   24MOL   C43321179   1.252   5.238   7.023 -0.0969  0.7574  0.5307
   24MOL   C43421180   1.128   5.176   6.988 -0.0736  0.1455 -0.2026
   24MOL   O43521181   1.480   5.281   7.004  0.5765 -0.4922  0.0086
   24MOL   H43621182   0.320   4.190   7.189 -2.0651  2.0776 -0.7594
   24MOL   H43721183   0.294   4.235   6.943 -0.4798  2.3738  1.6741
   24MOL   H43821184   0.707   4.359   6.903 -0.5179 -0.6181 -0.6401
   24MOL   H43921185   0.743   4.316   7.145 -0.2879 -0.2640 -0.1067
   24MOL   H44021186   0.706   4.457   6.598 -1.9395 -2.7561 -0.0030
   24MOL   H44121187   0.768   4.695   6.604  0.1539 -0.0077 -1.0820
   24MOL   H44221188   0.408   4.796   6.804 -1.0949  0.8910 -1.7960
   24MOL   H44321189   0.339   4.554   6.818  0.5809 -2.3448 -1.1291
   24MOL   H44421190   0.744   4.845   6.962 -0.0344  0.7881  0.2842
   24MOL   H44521191   0.961   4.938   7.022 -1.6997 -0.4710  0.3566
   24MOL   H44621192   1.000   5.121   6.628 -0.7555  1.7930  0.0943
   24MOL   H44721193   0.761   5.054   6.574 -0.4657 -3.0093 -1.5746
   24MOL   H44821194   1.254   5.010   6.716  1.5010 -1.5524  1.1620
   24MOL   H44921195   1.460   5.129   6.779  0.2040 -1.7787  0.1107
   24MOL   H45021196   1.267   5.288   7.118 -1.2897  0.0863  1.0904
   24MOL   H45121197   1.043   5.174   7.055  2.1118 -0.3636  2.6141
   24MOL   C45221198   1.593   5.208   7.017  0.0229  0.1984  0.6844
   24MOL   C45321199   1.595   5.069   7.043  0.4826 -0.0535  0.6720
   24MOL   C45421200   1.712   4.994   7.026 -0.0824  0.0773 -0.1522
   24MOL   C45521201   1.832   5.060   6.992 -0.0995  0.9477  0.0331
   24MOL   C45621202   1.834   5.197   6.979 -0.0879  0.0833 -0.3108
   24MOL   C45721203   1.716   5.269   6.983  0.0870  0.8913  0.0718
   24MOL   S45821204   1.981   4.965   6.976 -0.2219  0.1387 -0.3389
   24MOL   O45921205   2.089   5.051   6.923 -0.2572  0.0498 -0.1189
   24MOL   O46021206   1.955   4.832   6.916  0.0834 -0.0997  0.0795
   24MOL   C46121207   2.033   4.928   7.141  0.0919 -0.0638 -0.2877
   24MOL   C46221208   2.145   4.844   7.155  0.0600  0.5753 -0.0311
   24MOL   C46321209   2.187   4.809   7.282  0.2390 -0.3663  1.1286
   24MOL   C46421210   2.111   4.857   7.392 -0.0435  0.1670 -0.1500
   24MOL   C46521211   2.000   4.935   7.378 -0.2821  0.2838 -0.9886
   24MOL   C46621212   1.960   4.973   7.251  0.2187  0.9036 -0.0567
   24MOL   O46721213   2.126   4.816   7.526 -0.6489  0.0940 -0.0091
   24MOL   C46821214   2.179   4.690   7.557 -0.5134 -0.0191  0.2450
   24MOL   C46921215   2.116   4.579   7.501 -0.2237  0.1946  0.7647
   24MOL   C47021216   2.147   4.448   7.547 -0.1810 -0.4300 -0.0034
   24MOL   C47121217   2.249   4.431   7.638 -0.5739  0.4304 -0.3321
   24MOL   C47221218   2.322   4.545   7.693  0.1817 -1.0100  0.7189
   24MOL   C47321219   2.277   4.677   7.657  0.1381  0.2229 -0.8896
   24MOL   C47421220   2.279   4.296   7.673  0.4797  0.1128 -0.1479
   24MOL   C47521221   2.408   4.244   7.688 -0.2956 -0.0366  0.0506
   24MOL   C47621222   2.425   4.114   7.731 -0.0134  0.4638  0.1120
   24MOL   C47721223   2.315   4.031   7.763 -0.5136  0.3251 -0.2437
   24MOL   C47821224   2.185   4.080   7.741  0.1189 -0.7256 -0.5595
   24MOL   C47921225   2.166   4.211   7.702  0.4471 -0.0973 -0.6645
   24MOL   O48021226   2.334   3.911   7.813 -0.6896  0.6019 -0.2182
   24MOL   H48121227   1.506   5.016   7.073  0.3365 -0.2843 -0.1667
   24MOL   H48221228   1.717   4.886   7.029  1.9034  0.1475 -0.2965
   24MOL   H48321229   1.931   5.234   6.948 -0.0017  0.3398  0.2624
   24MOL   H48421230   1.724   5.376   6.974  0.0895  0.6803 -3.0830
   24MOL   H48521231   2.197   4.802   7.071 -0.2286 -0.6159  0.3758
   24MOL   H48621232   2.283   4.761   7.293  0.1954 -1.8202 -3.6114
   24MOL   H48721233   1.927   4.956   7.454  1.1067 -1.9882  1.0440
   24MOL   H48821234   1.884   5.050   7.249  1.0681  1.7257 -1.0140
   24MOL   H48921235   2.043   4.603   7.425  0.8011 -1.2298 -0.6902
   24MOL   H49021236   2.098   4.366   7.496  0.0580 -0.5050 -0.1118
   24MOL   H49121237   2.409   4.528   7.755 -0.1743  2.2909  2.2146
   24MOL   H49221238   2.321   4.765   7.704 -3.0242  2.3225 -1.7254
   24MOL   H49321239   2.498   4.299   7.663  0.8548 -2.1350 -0.5888
   24MOL   H49421240   2.523   4.069   7.741 -0.0356  0.3990  0.0340
   24MOL   H49521241   2.101   4.014   7.757  1.0002 -2.8100 -4.0351
   24MOL   H49621242   2.067   4.252   7.695  0.8422  0.9820 -0.0886
   24MOL   C49721243   2.252   3.813   7.765  0.4176  0.1401  0.2291
   24MOL   C49821244   2.161   3.750   7.856 -0.2717 -0.0678  0.7416
   24MOL   C49921245   2.072   3.656   7.806  0.8484 -0.4002  0.3923
   24MOL   C50021246   2.070   3.624   7.670  0.5457  0.0818  0.2017
   24MOL   C50121247   2.162   3.682   7.576  0.0588 -0.6518  0.5780
   24MOL   C50221248   2.255   3.774   7.629 -0.6098  0.2213 -0.1361
   24MOL   S50321249   1.935   3.519   7.613 -0.2034  0.1549  0.2284
   24MOL   O50421250   1.948   3.502   7.467 -0.1862 -0.1994  0.0642
   24MOL   O50521251   1.809   3.575   7.672 -0.3398 -0.1228  0.0690
   24MOL   C50621252   1.962   3.359   7.696  0.0586  0.5511  0.0355
   24MOL   C50721253   1.849   3.278   7.705  0.2227 -0.5356  0.9918
   24MOL   C50821254   1.867   3.143   7.748  0.6632  0.6558 -0.6253
   24MOL   C50921255   1.991   3.100   7.799 -0.1774  0.7451  0.1065
   24MOL   C51021256   2.100   3.193   7.795 -0.0667  0.1462  0.8024
   24MOL   C51121257   2.085   3.321   7.744 -0.4486 -0.1173 -0.8422
   24MOL   O51221258   2.007   2.966   7.820  0.3753 -0.7607  0.1215
   24MOL   C51321259   2.113   2.905   7.760 -0.2007  0.5456 -0.3898
   24MOL   C51421260   2.145   2.928   7.625  0.3926 -0.5585  0.4635
   24MOL   C51521261   2.255   2.869   7.562  0.2472 -0.1879  0.4373
   24MOL   C51621262   2.343   2.786   7.642 -0.0818 -0.0804  0.3440
   24MOL   C51721263   2.311   2.761   7.776  0.6101 -0.0275  0.2675
   24MOL   C51821264   2.195   2.815   7.835  0.0228 -0.1551  0.0343
   24MOL   C51921265   2.474   2.737   7.595 -0.5387 -0.0698  0.2424
   24MOL   C52021266   2.524   2.606   7.623  0.2501  0.5904 -0.3129
   24MOL   C52121267   2.654   2.568   7.600 -0.0563  0.3961  0.3313
   24MOL   C52221268   2.743   2.660   7.541 -0.1113  0.3065  0.4404
   24MOL   C52321269   2.700   2.787   7.509  0.9038 -0.4201 -0.0092
   24MOL   C52421270   2.563   2.831   7.534  0.2783  0.2290 -1.0807
   24MOL   O52521271   2.869   2.606   7.512  0.0519  0.1396  0.5886
   24MOL   H52621272   2.153   3.785   7.958  1.1355  1.4110  0.3716
   24MOL   H52721273   2.010   3.596   7.870  0.7382 -1.6749 -0.8865
   24MOL   H52821274   2.152   3.643   7.475  1.1022 -0.1441  0.2767
   24MOL   H52921275   2.324   3.823   7.562  1.0147 -3.1815 -1.0887
   24MOL   H53021276   1.753   3.307   7.665  0.6481  1.0527  1.0956
   24MOL   H53121277   1.790   3.068   7.746  0.5653  0.7764 -1.5335
   24MOL   H53221278   2.199   3.158   7.822 -0.3490 -0.8518  0.5697
   24MOL   H53321279   2.172   3.386   7.738 -1.5587  1.2672 -2.0818
   24MOL   H53421280   2.079   2.988   7.564 -0.0749 -0.7404  0.7837
   24MOL   H53521281   2.266   2.887   7.456 -1.1830  0.7666  0.4329
   24MOL   H53621282   2.378   2.703   7.838  0.0265 -2.4708 -1.3072
   24MOL   H53721283   2.186   2.798   7.941  1.3006  1.5348  0.4285
   24MOL   H53821284   2.450   2.540   7.667  1.4336 -0.5711 -0.0095
   24MOL   H53921285   2.693   2.468   7.617  1.2198  0.4659 -1.9854
   24MOL   H54021286   2.775   2.858   7.478  0.4274 -0.8449 -2.1685
   24MOL   H54121287   2.537   2.934   7.514 -2.7197 -0.7263 -2.3695
   24MOL   C54221288   2.968   2.616   7.603 -0.3042  0.3194  0.2488
   24MOL   C54321289   3.087   2.683   7.573 -0.3452  0.1762  0.4838
   24MOL   C54421290   3.189   2.689   7.669  0.0838 -0.0687 -0.6876
   24MOL   C54521291   3.169   2.625   7.797 -0.5510  0.0618 -0.1522
   24MOL   C54621292   3.044   2.566   7.824 -0.2517 -0.4261 -0.2149
   24MOL   C54721293   2.947   2.568   7.731  0.5096  0.2578  0.1625
   24MOL   S54821294   3.295   2.646   7.928  0.2805 -0.1447 -0.0879
   24MOL   O54921295   3.422   2.665   7.857 -0.5140 -0.3462 -0.1492
   24MOL   O55021296   3.279   2.524   8.013 -0.0880 -0.2470  0.2029
   24MOL   C55121297   3.272   2.790   8.030 -0.4607 -0.2674 -0.4182
   24MOL   C55221298   3.140   2.837   8.073  0.2545 -0.4805 -0.0090
   24MOL   C55321299   3.126   2.947   8.158 -0.1797  0.4330 -0.3954
   24MOL   C55421300   3.247   3.002   8.212  0.0922  0.5253  0.4650
   24MOL   C55521301   3.376   2.951   8.186  0.2038  0.1327 -0.0957
   24MOL   C55621302   3.386   2.846   8.089  0.0256 -1.2380  0.2403
   24MOL   O55721303   3.249   3.089   8.314  0.2163  0.1173 -0.8904
   24MOL   C55821304   3.307   3.214   8.312 -0.0081  0.3654 -0.4259
   24MOL   C55921305   3.285   3.304   8.203  0.3825  0.8516 -0.3680
   24MOL   C56021306   3.335   3.439   8.215  0.3555  0.2437  0.4351
   24MOL   C56121307   3.417   3.484   8.321 -0.2663 -0.7593  0.6333
   24MOL   C56221308   3.450   3.388   0.053  0.5091 -0.1014 -0.2799
   24MOL   C56321309   3.393   3.255   0.049  0.7952 -0.0572  0.6974
   24MOL   C56421310   3.463   3.622   8.323 -0.2411  0.2215 -1.1633
   24MOL   C56521311   3.389   3.725   8.253 -0.3082  0.3721  0.4623
   24MOL   C56621312   3.435   3.857   8.266  0.1721 -0.3080 -0.2894
   24MOL   C56721313   3.562   3.888   8.319 -1.0817  0.4557  0.1437
   24MOL   C56821314   3.636   3.786   0.011 -0.2600 -0.5399 -0.3463
   24MOL   C56921315   3.589   3.653   0.012  0.2876 -0.0249 -0.3133
   24MOL   O57021316   3.617   4.012   8.322  0.3956 -0.6794 -0.0655
   24MOL   H57121317   3.099   2.721   7.473  0.3105 -1.5199 -0.1141
   24MOL   H57221318   3.288   2.723   7.639  0.4705  2.2115  2.8712
   24MOL   H57321319   3.033   2.524   7.923 -1.1410  0.6252  0.1478
   24MOL   H57421320   2.849   2.543   7.768 -0.2312  1.7486 -0.7529
   24MOL   H57521321   3.051   2.794   8.030 -1.2748  1.4411  1.1418
   24MOL   H57621322   3.033   2.993   8.189 -0.5773 -0.7486  0.2136
   24MOL   H57721323   3.466   2.990   8.231 -0.2590 -0.3983  1.3108
   24MOL   H57821324   3.483   2.798   8.079 -0.3510 -2.4032  1.9405
   24MOL   H57921325   3.222   3.272   8.121  0.0881  0.4038  0.0351
   24MOL   H58021326   3.324   3.502   8.129  0.7759 -0.7741 -0.3770
   24MOL   H58121327   3.507   3.421   0.138  1.1955  0.5407 -0.9880
   24MOL   H58221328   3.409   3.190   0.133 -1.3890 -0.2416  0.9829
   24MOL   H58321329   3.295   3.693   8.209  0.2865 -0.8515  0.0631
   24MOL   H58421330   3.379   3.926   8.205  0.2329 -0.9983 -1.1357
   24MOL   H58521331   3.734   3.798   0.053  0.4145 -1.0995 -1.7419
   24MOL   H58621332   3.651   3.585   0.068  1.6489  0.9296 -0.6313
   24MOL   C58721333   3.591   4.099   8.217 -0.3959 -0.4829  0.2125
   24MOL   C58821334   3.494   4.203   8.231  0.0425  0.3456 -0.2698
   24MOL   C58921335   3.490   4.299   8.127  0.0654 -0.9748 -0.0032
   24MOL   C59021336   3.567   4.297   8.010 -0.2736 -0.6541 -0.4034
   24MOL   C59121337   3.653   4.187   7.992  0.3412 -0.1684 -0.8413
   24MOL   C59221338   3.664   4.093   8.096 -0.0561  1.0389  0.5448
   24MOL   S59321339   3.559   4.441   7.904  0.4395 -0.0582  0.7534
   24MOL   O59421340   3.700   4.475   7.864  0.2530 -0.7007  0.6335
   24MOL   O59521341   3.475   4.535   7.983 -0.1596 -0.3536  0.2775
   24MOL   C59621342   3.467   4.391   7.761 -0.0515 -0.7977  0.1226
   24MOL   C59721343   3.332   4.360   7.774 -0.6672  0.1838 -0.2771
   24MOL   C59821344   3.255   4.330   7.667 -0.9400  0.4622 -0.1336
   24MOL   C59921345   3.310   4.339   7.538  0.3585 -0.7732 -0.6893
   24MOL   C60021346   3.444   4.370   7.518 -0.4943 -0.9044  0.1992
   24MOL   C60121347   3.522   4.404   7.631  0.4659 -0.5268 -0.6313
   24MOL   O60221348   3.233   4.315   7.426 -0.2066 -0.2206  0.3963
   24MOL   C60321349   3.112   4.383   7.419 -0.3541 -0.1824 -0.4193
   24MOL   C60421350   2.984   4.324   7.439  0.2097  0.0589 -0.5127
   24MOL   C60521351   2.868   4.403   7.439 -0.0708  0.1822  0.2116
   24MOL   C60621352   2.878   4.536   7.395 -0.2459  0.1222 -0.0198
   24MOL   C60721353   3.001   4.592   7.361  0.2062 -0.3714 -0.6813
   24MOL   C60821354   3.120   4.517   7.381  0.0874  0.3503  0.1485
   24MOL   C60921355   2.760   4.618   7.409 -0.6373 -0.0283  0.0853
   24MOL   C61021356   2.703   4.648   7.535 -0.0191  0.5294  0.0736
   24MOL   C61121357   2.608   4.751   7.553  0.0742 -0.8457 -0.1279
   24MOL   C61221358   2.562   4.813   7.436 -0.2359 -0.6022  0.3509
   24MOL   C61321359   2.590   4.759   7.310  0.3743  0.2080  0.8313
   24MOL   C61421360   2.688   4.657   7.297 -0.1089  0.8355 -0.0921
   24MOL   O61521361   2.485   4.924   7.442  0.5217  0.0683  0.6434
   24MOL   H61621362   3.445   4.202   8.327 -0.9273  1.1483 -0.7422
   24MOL   H61721363   3.415   4.373   8.152  0.9663  0.3460 -1.1553
   24MOL   H61821364   3.717   4.177   7.906  1.0774  1.4843 -0.5023
   24MOL   H61921365   3.740   4.016   8.088 -1.8065 -0.7117  0.1616
   24MOL   H62021366   3.280   4.338   7.866  0.3408 -4.1995 -0.6530
   24MOL   H62121367   3.148   4.317   7.676 -1.0690  0.4402 -1.5685
   24MOL   H62221368   3.488   4.353   7.420 -1.8430  0.4983 -0.6716
   24MOL   H62321369   3.629   4.422   7.627  0.6437 -1.4210 -0.1777
   24MOL   H62421370   2.985   4.223   7.475  0.6386  0.0159 -0.6400
   24MOL   H62521371   2.776   4.367   7.483  1.1565 -1.0327  1.8499
   24MOL   H62621372   3.007   4.697   7.336 -2.3893 -0.1018 -0.2700
   24MOL   H62721373   3.215   4.564   7.361  0.1959 -0.1691 -0.6100
   24MOL   H62821374   2.757   4.602   7.617 -0.3127 -1.7080 -0.9317
   24MOL   H62921375   2.571   4.785   7.648 -0.1778 -1.6381  0.0607
   24MOL   H63021376   2.558   4.805   7.217 -0.1904  1.1157  1.4709
   24MOL   H63121377   2.714   4.622   7.199 -0.5393 -0.7516  0.3502
   24MOL   C63221378   2.544   5.057   7.448  0.5937  0.6744 -0.1557
   24MOL   C63321379   2.687   5.074   7.445 -0.4558  0.2255  0.9639
   24MOL   C63421380   2.739   5.205   7.450 -0.6450 -1.2366 -0.4221
   24MOL   C63521381   2.653   5.313   7.473 -0.8035  0.1795  0.5965
   24MOL   C63621382   2.513   5.294   7.477 -1.4092  0.0220 -0.4512
   24MOL   C63721383   2.454   5.164   7.464  0.0837  0.2480  0.9537
   24MOL   S63821384   2.729   5.480   7.493  0.3630 -0.5307  0.0190
   24MOL   O63921385   2.868   5.466   7.448  0.3315 -0.2562  0.1182
   24MOL   O64021386   2.708   5.514   7.635 -0.3601  0.1615  0.2092
   24MOL   C64121387   2.645   5.598   7.391 -0.3091 -0.0741  0.0488
   24MOL   C64221388   2.597   5.561   7.265 -0.1907 -0.2617 -0.1255
   24MOL   C64321389   2.532   5.656   7.184  0.1732 -0.4504 -0.4480
   24MOL   C64421390   2.517   5.788   7.232 -0.1287  0.8250  0.2360
   24MOL   C64521391   2.562   5.829   7.358 -0.0118 -0.6631 -0.6782
   24MOL   C64621392   2.629   5.735   7.436  0.4957  0.2053 -0.6372
   24MOL   O64721393   2.467   5.892   7.159  0.1436 -0.3628 -0.1030
   24MOL   C64821394   2.345   5.874   7.099  0.1363 -0.5568 -0.5117
   24MOL   C64921395   2.226   5.907   7.156  0.6316 -0.6126 -0.4125
   24MOL   C65021396   2.102   5.922   7.087  0.9783 -0.8985  0.0030
   24MOL   C65121397   2.094   5.889   6.952  0.7019  1.6857 -0.5744
   24MOL   C65221398   2.215   5.851   6.891  0.3651  0.0668  0.1942
   24MOL   C65321399   2.338   5.842   6.963  1.0634  0.4997  0.5207
   24MOL   C65421400   1.965   5.883   6.884 -0.3601 -0.2961 -0.4673
   24MOL   C65521401   1.945   5.785   6.784 -0.2021  0.2727  1.0739
   24MOL   C65621402   1.824   5.771   6.714  0.0546  0.2748  0.4447
   24MOL   C65721403   1.725   5.869   6.737  0.1771 -0.7646 -0.0957
   24MOL   C65821404   1.737   5.965   6.838  0.2424 -0.7655 -0.1503
   24MOL   C65921405   1.860   5.972   6.914  0.7400 -0.3754 -0.1634
   24MOL   O66021406   1.607   5.858   6.662 -0.5048  0.0457 -0.3499
   24MOL   H66121407   2.763   4.997   7.442 -0.2648  0.4654 -3.0096
   24MOL   H66221408   2.846   5.224   7.452 -0.9897  0.8566  1.8383
   24MOL   H66321409   2.451   5.379   7.500  0.9249  0.9042  2.9926
   24MOL   H66421410   2.347   5.148   7.464 -0.1223  1.5812 -0.6697
   24MOL   H66521411   2.611   5.462   7.225  1.4791  0.0697 -0.3863
   24MOL   H66621412   2.512   5.632   7.081 -0.2879 -2.4250  0.0850
   24MOL   H66721413   2.550   5.933   7.382  2.1120 -0.8392  1.4121
   24MOL   H66821414   2.667   5.760   7.534 -1.7797  1.3885 -0.0338
   24MOL   H66921415   2.224   5.922   7.263 -1.1812 -0.9745 -0.3789
   24MOL   H67021416   2.010   5.960   7.128  0.7927 -1.8755  0.5080
   24MOL   H67121417   2.219   5.838   6.784  0.5083  0.8201  0.1052
   24MOL   H67221418   2.425   5.830   6.899 -0.5991 -0.7775 -1.5774
   24MOL   H67321419   2.027   5.718   6.764 -1.4563 -0.6583 -1.1241
   24MOL   H67421420   1.808   5.693   6.641  1.1445 -1.5190  2.0620
   24MOL   H67521421   1.659   6.039   6.851  0.9627  0.3431 -1.8930
   24MOL   H67621422   1.869   6.051   6.987  2.4142  1.0154 -1.8095
   24MOL   C67721423   1.547   5.972   6.612 -0.2906  0.1490  0.2159
   24MOL   C67821424   1.425   6.008   6.663  0.6154  0.6764  0.1774
   24MOL   C67921425   1.370   6.127   6.614 -0.8290 -0.0295  0.4891
   24MOL   C68021426   1.438   6.213   6.522 -0.5341  0.0230 -0.2583
   24MOL   C68121427   1.561   6.176   6.470 -0.9093 -0.4014 -0.2694
   24MOL   C68221428   1.616   6.052   6.508  0.6373  0.4168  0.1009
   24MOL   S68321429   1.361   6.366   6.466 -0.1726 -0.4270 -0.2022
   24MOL   O68421430   1.227   6.339   6.409  0.3673  0.5161 -0.5018
   24MOL   O68521431   1.455   6.437   6.379  0.4106 -0.0788 -0.4982
   24MOL   C68621432   1.352   6.457   6.617 -0.6092 -1.1798 -0.4360
   24MOL   C68721433   1.461   6.449   6.706 -0.4909  0.0230 -0.0659
   24MOL   C68821434   1.440   6.531   6.817 -0.3894 -0.4588 -0.3593
   24MOL   C68921435   1.337   6.627   6.833  0.1518  0.0188  0.4356
   24MOL   C69021436   1.239   6.644   6.729 -0.3753 -0.2696  1.0087
   24MOL   C69121437   1.252   6.558   6.624  0.4648  0.2713  0.6851
   24MOL   O69221438   1.318   6.684   6.950  0.1537 -0.2660 -0.8193
   24MOL   C69321439   1.324   6.824   6.951  0.1903  0.2520  0.3376
   24MOL   C69421440   1.430   6.898   7.001 -0.0861  0.1955  0.4591
   24MOL   C69521441   1.428   7.039   7.032  0.2216 -0.6528  0.2272
   24MOL   C69621442   1.309   7.109   7.001 -0.6019 -0.0637 -0.9626
   24MOL   C69721443   1.202   7.038   6.950 -0.1700  0.3146 -0.7339
   24MOL   C69821444   1.206   6.900   6.921 -0.8176  0.2590  0.0420
   24MOL   C69921445   1.311   7.259   7.007  0.5495 -0.3491  0.3290
   24MOL   C70021446   1.427   7.338   7.027 -0.5504 -0.1613  0.4964
   24MOL   C70121447   1.425   7.477   7.036 -0.6386 -0.5902  0.4084
   24MOL   C70221448   1.302   7.547   7.036  0.3300 -0.6454 -0.3764
   24MOL   C70321449   1.183   7.476   7.013 -0.0311 -0.2016 -0.2404
   24MOL   C70421450   1.187   7.333   7.001  0.1699  0.3565 -0.3028
   24MOL   O70521451   1.305   7.685   7.057 -0.7120 -0.2835  0.0491
   24MOL   H70621452   1.380   5.954   6.745  2.6691  0.6263  1.3171
   24MOL   H70721453   1.274   6.157   6.652  0.3724  1.1818  2.6890
   24MOL   H70821454   1.602   6.243   6.396  1.2468 -0.7015  0.6397
   24MOL   H70921455   1.709   6.019   6.466  0.2794 -0.5216  0.0269
   24MOL   H71021456   1.549   6.390   6.684  0.4903  1.3692  0.2262
   24MOL   H71121457   1.518   6.543   6.891 -0.9548  0.6732  0.0667
   24MOL   H71221458   1.156   6.709   6.754  1.9752  2.8965  0.8983
   24MOL   H71321459   1.180   6.557   6.543  0.9476  0.4521  0.2527
   24MOL   H71421460   1.520   6.839   7.005  0.8053  1.1320 -3.8632
   24MOL   H71521461   1.520   7.083   7.066  0.3281  0.1874 -1.0931
   24MOL   H71621462   1.115   7.096   6.925 -0.0579  0.9280  0.3033
   24MOL   H71721463   1.113   6.855   6.889 -1.0279 -1.0222  2.3717
   24MOL   H71821464   1.520   7.284   7.029  0.6788  1.7891 -1.4199
   24MOL   H71921465   1.512   7.539   7.053 -0.8861 -0.0939 -0.0887
   24MOL   H72021466   1.090   7.530   7.006  0.0758  0.0658  0.3445
   24MOL   H72121467   1.092   7.289   6.976  0.0410  1.1826 -1.3137
   24MOL   C72221468   1.317   7.768   6.943  0.4512 -0.5599  0.6757
   24MOL   C72321469   1.301   7.903   6.970  0.1140  0.1140 -0.0356
   24MOL   C72421470   1.303   7.993   6.859  0.2897 -0.0396 -0.3494
   24MOL   C72521471   1.328   7.954   6.725 -0.4881  0.0854  0.4602
   24MOL   C72621472   1.341   7.817   6.699  0.3045 -0.4559  0.4818
   24MOL   C72721473   1.338   7.724   6.806  0.3023  0.0745 -0.1598
   24MOL   S72821474   1.328   8.080   6.605  0.2432 -0.5272  0.4605
   24MOL   O72921475   1.270   8.197   6.661 -0.0927 -0.5855 -0.3500
   24MOL   O73021476   1.279   8.024   6.475  0.4455 -0.3802 -0.0414
   24MOL   C73121477   1.501   8.112   6.580  0.1300  0.2874  0.0683
   24MOL   C73221478   1.556   8.092   6.453  0.6197  0.9251 -0.5581
   24MOL   C73321479   1.691   8.116   6.437 -0.1096 -0.0404 -0.2731
   24MOL   C73421480   1.771   8.166   6.542  0.1773  0.2240  0.2718
   24MOL   C73521481   1.714   8.198   6.669 -0.1058  0.5008  0.5470
   24MOL   C73621482   1.580   8.164   6.688 -0.4255  0.1136 -0.1435
   24MOL   O73721483   1.907   8.183   6.521  0.3801 -0.1276 -0.7010
   24MOL   C73821484   1.947   8.295   6.452  0.1317 -0.0313 -1.0049
   24MOL   C73921485   2.057   8.277   6.363  0.0530  0.3960  0.1602
   24MOL   C74021486   2.100   0.024   6.283 -0.3452 -0.2738  0.3596
   24MOL   C74121487   2.035   0.153   6.298  0.7288 -0.1013  0.4578
   24MOL   C74221488   1.935   0.170   6.398 -0.0833 -0.3925  0.3695
   24MOL   C74321489   1.886   0.061   6.465  0.2821  0.4517  0.0806
   24MOL   C74421490   2.083   0.272   6.220 -0.2366  0.1149  0.4067
   24MOL   C74521491   2.005   0.383   6.188 -0.0686 -0.4495 -0.6175
   24MOL   C74621492   2.054   0.495   6.125  0.8238  0.5907 -0.0464
   24MOL   C74721493   2.182   0.507   6.085  0.6009  0.1729 -0.3997
   24MOL   C74821494   2.265   0.394   6.106 -0.1181 -0.2041 -0.0393
   24MOL   C74921495   2.215   0.282   6.176 -0.2382 -0.1160  0.6892
   24MOL   O75021496   2.227   0.628   6.033  0.5915 -0.8797 -0.2358
   24MOL   H75121497   1.283   7.935   7.071 -0.6195 -1.5610  0.3858
   24MOL   H75221498   1.304   8.097   6.890 -1.6445 -0.3802  0.9422
   24MOL   H75321499   1.345   7.783   6.596  0.5158  0.7684  0.0821
   24MOL   H75421500   1.348   7.618   6.785 -0.7800 -0.5568  2.2731
   24MOL   H75521501   1.489   8.067   6.372 -1.0637  0.9483  0.8041
   24MOL   H75621502   1.734   8.090   6.342 -0.3507  1.4682 -0.8154
   24MOL   H75721503   1.767   8.251   6.746 -0.0589  0.2961  0.6545
   24MOL   H75821504   1.534   8.187   6.783 -1.9712 -0.5459 -0.7136
   24MOL   H75921505   2.109   8.182   6.361 -1.6680 -0.5595  0.2334
   24MOL   H76021506   2.174   0.002   6.207  0.0851  0.4869  0.5478
   24MOL   H76121507   1.890   0.267   6.410  0.5444 -0.2032  1.3027
   24MOL   H76221508   1.810   0.079   6.539 -0.8735 -0.1570 -0.9474
   24MOL   H76321509   1.903   0.393   6.221  0.2984  0.4464  0.2601
   24MOL   H76421510   1.979   0.568   6.099 -1.3568 -1.6714 -0.3367
   24MOL   H76521511   2.370   0.402   6.080  0.0439  0.9408  0.9470
   24MOL   H76621512   2.291   0.206   6.188 -0.2233 -0.4504 -1.3179
   24MOL   C76721513   2.197   0.668   5.910  0.2550 -0.4732 -0.0351
   24MOL   C76821514   2.112   0.774   5.885 -0.0971 -0.4795 -0.3320
   24MOL   C76921515   2.074   0.806   5.755 -0.6917 -0.1570  0.1561
   24MOL   C77021516   2.122   0.729   5.648  0.0418  0.9724 -0.2616
   24MOL   C77121517   2.203   0.616   5.674  0.7583 -0.4893 -0.2750
   24MOL   C77221518   2.245   0.588   5.805  0.5177 -0.1323  0.3622
   24MOL   S77321519   2.057   0.759   5.489  0.1617 -0.5222  0.0413
   24MOL   O77421520   2.172   0.779   5.391  1.0069 -0.5718 -0.2304
   24MOL   O77521521   1.947   0.857   5.496 -0.8209 -0.4066  0.5169
   24MOL   C77621522   1.962   0.610   5.449  0.5839  0.2650  0.6510
   24MOL   C77721523   2.012   0.534   5.348  0.4615 -0.4042  0.0643
   24MOL   C77821524   1.958   0.408   5.323  0.3549 -0.5990  0.9065
   24MOL   C77921525   1.853   0.361   5.404  0.5592  0.5420  0.3117
   24MOL   C78021526   1.805   0.441   5.514  0.5810 -0.2312  0.8912
   24MOL   C78121527   1.862   0.568   5.537  0.0219  0.4144 -0.0660
   24MOL   O78221528   1.798   0.237   5.387  0.1065 -0.1017  0.2165
   24MOL   C78321529   1.855   0.146   5.467  0.3368 -0.4402  0.1435
   24MOL   C78421530   1.777   0.062   5.551  0.0352 -0.4187  0.7741
   24MOL   C78521531   1.836   8.328   5.635 -0.0145 -0.2073 -0.1099
   24MOL   C78621532   1.978   8.314   5.631 -0.1089 -0.6570  0.2415
   24MOL   C78721533   2.053   0.032   5.547 -0.7504  0.9561  0.2432
   24MOL   C78821534   1.992   0.126   5.464  0.2410 -0.1015 -0.3004
   24MOL   C78921535   2.054   8.221   5.714 -0.5647 -0.5737  0.4619
   24MOL   C79021536   2.132   8.274   5.812  0.4313 -0.0728  0.2092
   24MOL   C79121537   2.208   8.191   5.895  0.4293  0.0321  0.2127
   24MOL   C79221538   2.202   8.053   5.885 -0.5760  1.0184 -0.9529
   24MOL   C79321539   2.114   7.996   5.792 -0.2679 -0.0140 -0.0631
   24MOL   C79421540   2.035   8.080   5.714  0.3997  0.2560 -0.2447
   24MOL   O79521541   2.274   7.973   5.970  0.0844 -0.1425 -0.0604
   24MOL   H79621542   2.069   0.827   5.968 -2.0813 -1.1334 -0.9106
   24MOL   H79721543   2.005   0.889   5.743  0.3947  1.2184  2.8494
   24MOL   H79821544   2.237   0.544   5.600  0.7302  0.8457 -1.5966
   24MOL   H79921545   2.313   0.506   5.824  0.7330 -0.4791 -1.8597
   24MOL   H80021546   2.093   0.572   5.288 -0.2991  1.3792  0.1247
   24MOL   H80121547   1.987   0.352   5.235 -1.9405  1.4521 -1.2570
   24MOL   H80221548   1.717   0.410   5.567 -0.4420 -0.0062 -0.6244
   24MOL   H80321549   1.824   0.636   5.612 -2.6363  0.3346 -1.2678
   24MOL   H80421550   1.670   0.057   5.540  0.1942 -1.8104 -0.2806
   24MOL   H80521551   1.773   8.263   5.693 -0.6742  0.6437  0.1448
   24MOL   H80621552   2.159   0.019   5.527 -0.6453 -2.3293  2.7000
   24MOL   H80721553   2.050   0.194   5.402  1.6537 -0.3529  0.7123
   24MOL   H80821554   2.155   0.013   5.819 -0.1101  0.0222  0.6057
   24MOL   H80921555   2.267   8.247   5.965 -0.0750 -0.0432  0.7032
   24MOL   H81021556   2.106   7.888   5.783  0.0592  0.0024 -0.5726
   24MOL   H81121557   1.956   8.038   5.654  1.4228  1.0327 -2.1794
   24MOL   C81221558   2.363   8.031   6.061 -0.8225 -0.3236 -0.1443
   24MOL   C81321559   2.491   8.069   6.024 -0.6189 -0.9649  0.6054
   24MOL   C81421560   2.580   8.139   6.112 -0.1518 -0.1957 -0.1370
   24MOL   C81521561   2.549   8.142   6.247 -0.4030  0.0687  0.2531
   24MOL   C81621562   2.425   8.096   6.287 -0.0277 -0.6697 -0.3290
   24MOL   C81721563   2.336   8.040   6.197  0.7641 -0.2649 -0.5543
   24MOL   S81821564   2.666   8.197   6.359 -0.2344  0.4524 -0.0634
   24MOL   O81921565   2.768   8.279   6.292 -0.0938 -0.3512 -0.1914
   24MOL   O82021566   2.705   8.073   6.435 -0.0453  0.4189  0.0236
   24MOL   C82121567   2.578   8.312   6.468 -0.4435 -0.5053 -0.3280
   24MOL   C82221568   2.599   8.307   6.610  0.1413 -0.2366 -0.2578
   24MOL   C82321569   2.527   0.025   6.693  0.1479  0.3113 -0.1986
   24MOL   C82421570   2.440   0.123   6.635 -0.7102 -0.2586 -0.0748
   24MOL   C82521571   2.416   0.124   6.501  0.0136 -0.2050  0.3304
   24MOL   C82621572   2.486   0.036   6.420 -0.5395  0.3705 -0.2437
   24MOL   O82721573   2.375   0.220   6.711  0.5849 -0.0889 -0.1669
   24MOL   C82821574   2.270   0.176   6.778 -0.0203 -0.2616  0.8661
   24MOL   C82921575   2.248   0.231   6.907  0.5445 -0.2771 -0.0497
   24MOL   C83021576   2.129   0.202   6.975 -0.9770 -0.0389  0.6931
   24MOL   C83121577   2.040   0.101   6.926  0.3186  0.1675 -0.1793
   24MOL   C83221578   2.068   0.032   6.807 -0.3772 -0.4386  0.2606
   24MOL   C83321579   2.175   0.077   6.728 -0.0011 -0.3936  0.3024
   24MOL   C83421580   1.921   0.071   7.010  0.1215  0.5067 -0.6167
   24MOL   C83521581   1.787   0.069   6.955 -0.5529 -0.1846  0.1037
   24MOL   C83621582   1.669   0.033   7.029  0.5934 -0.0573  0.0808
   24MOL   C83721583   1.697   8.350   7.162  0.0811 -0.2405  0.2170
   24MOL   C83821584   1.831   8.336   7.211  0.3876  0.1168  0.0611
   24MOL   C83921585   1.944   0.014   7.141 -0.1936 -0.5344 -0.5291
   24MOL   O84021586   1.591   8.315   7.234  0.1231 -0.0711 -0.8850
   24MOL   H84121587   2.526   8.070   5.922 -0.8316  0.6734  0.5348
   24MOL   H84221588   2.673   8.184   6.081  0.8767 -1.6026  0.8119
   24MOL   H84321589   2.403   8.096   6.393  0.2181  0.8163 -0.2677
   24MOL   H84421590   2.240   8.002   6.230  0.1566  1.0408 -0.7943
   24MOL   H84521591   2.676   8.238   6.640  0.6197  0.1481 -0.5924
   24MOL   H84621592   2.551   0.033   6.798  0.4956  0.7514 -0.3076
   24MOL   H84721593   2.340   0.193   6.466 -1.0227  0.0088  2.8724
   24MOL   H84821594   2.476   0.026   6.313  3.5749  1.3359 -0.8113
   24MOL   H84921595   2.331   0.286   6.950  0.6688  0.5023 -1.2462
   24MOL   H85021596   2.118   0.247   7.073  3.0542  0.1651  1.1444
   24MOL   H85121597   2.008   8.317   6.769 -2.3817 -0.3125  2.9885
   24MOL   H85221598   2.193   0.035   6.630  2.1062  1.0321  0.0557
   24MOL   H85321599   1.776   0.108   6.855  0.3276 -0.7363 -0.2100
   24MOL   H85421600   1.565   0.038   6.999  0.8956  2.6873 -0.6473
   24MOL   H85521601   1.845   8.275   7.299  1.1277 -2.2556 -1.6479
   24MOL   H85621602   2.039   0.002   7.191 -0.5101 -1.2124 -0.0769
   24MOL   C85721603   1.581   8.188   7.275 -0.1667 -0.3841 -0.3664
   24MOL   C85821604   1.589   8.158   7.414 -0.1263  0.4805 -0.2344
   24MOL   C85921605   1.581   8.030   7.463  0.1899 -0.3059  0.2558
   24MOL   C86021606   1.567   7.924   7.371  0.1411  0.2577 -0.1977
   24MOL   C86121607   1.564   7.952   7.230  0.8844 -0.1055 -0.4650
   24MOL   C86221608   1.572   8.085   7.185  0.4876  0.1009  0.1461
   24MOL   S86321609   1.547   7.755   7.435 -0.3495 -0.6066 -0.6174
   24MOL   O86421610   1.602   7.750   7.569 -0.2347 -0.1297 -0.3004
   24MOL   O86521611   1.593   7.657   7.335 -0.1238 -0.3330 -0.5601
   24MOL   C86621612   1.370   7.736   7.452  0.4827 -0.2465  0.3178
   24MOL   C86721613   1.318   7.617   7.406 -0.3140  0.7369  0.0687
   24MOL   C86821614   1.177   7.606   7.398 -0.8891 -0.1137  0.5169
   24MOL   C86921615   1.095   7.714   7.437  0.1602 -0.1155  1.1434
   24MOL   C87021616   1.154   7.833   7.493 -0.1222  0.1001  0.4266
   24MOL   C87121617   1.295   7.840   7.499 -1.1497 -0.0160 -0.3763
   24MOL   O87221618   0.959   7.713   7.422 -0.1654  0.0908 -0.8204
   24MOL   C87321619   0.900   7.625   7.333  0.0321 -0.2784  0.8790
   24MOL   C87421620   0.849   7.500   7.379 -0.7144 -0.7913  0.0527
   24MOL   C87521621   0.798   7.415   7.283 -0.7640  0.3618 -0.1948
   24MOL   C87621622   0.783   7.441   7.147  0.0354  0.5384  0.1064
   24MOL   C87721623   0.836   7.567   7.105  0.5708  0.6713  0.1261
   24MOL   C87821624   0.894   7.654   7.199  0.0614  0.4595  0.3978
   24MOL   C87921625   0.736   7.339   7.054 -0.6862  0.1488 -0.5327
   24MOL   C88021626   0.667   7.382   6.937 -0.1038 -0.2046 -0.6008
   24MOL   C88121627   0.612   7.290   6.850  0.4069 -0.1988 -0.3866
   24MOL   C88221628   0.649   7.154   6.872  0.3233 -0.0640 -0.1673
   24MOL   C88321629   0.728   7.108   6.978 -0.4496 -0.2044 -0.1378
   24MOL   C88421630   0.766   7.206   7.072  0.6571  0.5129  0.0120
   24MOL   O88521631   0.598   7.055   6.788 -0.2684  0.1020  0.1590
   24MOL   H88621632   1.587   8.237   7.489  2.1240 -1.1427  1.6266
   24MOL   H88721633   1.570   8.003   7.567 -1.7411  0.4242  0.2588
   24MOL   H88821634   1.557   7.865   7.166 -0.1779 -0.2192 -0.2036
   24MOL   H88921635   1.575   8.114   7.081 -2.2386  0.1716  0.0346
   24MOL   H89021636   1.381   7.544   7.357 -2.6206 -1.0488 -0.3427
   24MOL   H89121637   1.140   7.515   7.354 -0.6176  0.1825 -0.3406
   24MOL   H89221638   1.099   7.922   7.520 -1.0647 -0.0790 -0.8693
   24MOL   H89321639   1.336   7.931   7.538 -2.5311 -0.3933  2.0359
   24MOL   H89421640   0.842   7.478   7.485 -2.3856 -0.0824  0.1132
   24MOL   H89521641   0.765   7.321   7.324 -1.3477  0.2698 -0.8743
   24MOL   H89621642   0.845   7.603   7.003 -1.1277  0.2644 -0.1777
   24MOL   H89721643   0.940   7.743   7.158  1.2353 -0.8853 -1.2736
   24MOL   H89821644   0.639   7.483   6.911 -0.6997 -0.3313 -0.4667
   24MOL   H89921645   0.541   7.324   6.776 -0.0343 -1.5684 -0.6143
   24MOL   H90021646   0.756   7.005   6.991 -0.8195 -0.1716  0.9306
   24MOL   H90121647   0.843   7.172   7.140  0.7614 -0.5753 -0.6434
   24MOL   H90221648   0.607   7.088   6.700 -0.6429 -1.8950 -0.6531
   25MOL     C121649   4.287   0.517   4.110 -0.4055 -0.1338  0.2488
   25MOL     C221650   4.328   0.546   3.981 -0.5521 -0.3993 -0.2843
   25MOL     C321651   4.395   0.671   3.954 -0.1170 -0.3527 -0.0124
   25MOL     C421652   4.412   0.763   4.060  0.4729 -0.1641  0.4323
   25MOL     C521653   4.372   0.735   4.193  0.3298  0.6009 -0.3056
   25MOL     C621654   4.311   0.612   4.214  0.1845  0.0210 -0.2726
   25MOL     S721655   4.494   0.909   4.027 -0.4901 -0.1910  0.2415
   25MOL     O821656   4.622   0.868   3.969 -0.7524  0.0511 -0.4882
   25MOL     O921657   4.500   0.996   4.146  0.4675  0.1931  0.5954
   25MOL    C1021658   4.403   0.994   3.896 -1.2069  0.4640  0.5622
   25MOL    C1121659   4.275   1.047   3.923  0.1910  0.0837  0.0799
   25MOL    C1221660   4.200   1.117   3.825  0.2415  0.1528 -0.8013
   25MOL    C1321661   4.262   1.144   3.697 -0.4881  0.3581  0.0076
   25MOL    C1421662   4.392   1.098   3.669 -0.0365  0.5256 -0.0263
   25MOL    C1521663   4.458   1.018   3.766  0.1084  0.2755  0.7456
   25MOL    O1621664   4.192   1.221   3.608  0.2982 -0.1519  0.0131
   25MOL    C1721665   4.163   1.192   3.482  0.1475 -0.2675  0.2531
   25MOL    C1821666   4.031   1.151   3.444 -0.1683  0.0778  0.1455
   25MOL    C1921667   3.997   1.141   3.310 -0.8150  0.2599  0.2539
   25MOL    C2021668   4.091   1.173   3.216  0.0843 -0.0265  0.3771
   25MOL    C2121669   4.222   1.216   3.253 -0.3555 -0.3177  0.1816
   25MOL    C2221670   4.260   1.222   3.388 -0.3022  0.6057  0.4562
   25MOL    C2321671   4.060   1.150   3.072 -0.1940  0.3088  0.0494
   25MOL    C2421672   4.129   1.047   3.008  0.0904  0.1472 -0.2230
   25MOL    C2521673   4.103   1.022   2.872 -0.3203  0.2222  0.0622
   25MOL    C2621674   3.998   1.084   2.805 -0.4625 -0.1383 -0.9146
   25MOL    C2721675   3.934   1.193   2.867  0.0621 -0.2331 -0.5471
   25MOL    C2821676   3.955   1.213   3.002  0.3902 -0.5079 -0.4442
   25MOL    O2921677   3.969   1.059   2.670 -0.2820 -0.3743 -0.0842
   25MOL    H3021678   4.319   0.471   3.905  0.0367  0.1679 -0.9153
   25MOL    H3121679   4.434   0.704   3.858 -1.7737  3.6822  0.6014
   25MOL    H3221680   4.394   0.800   4.276  0.8966  1.5458 -1.1853
   25MOL    H3321681   4.283   0.593   4.317 -0.6177  0.1332 -0.4627
   25MOL    H3421682   4.226   1.025   4.018 -1.4516  1.8477 -0.3167
   25MOL    H3521683   4.097   1.147   3.837  0.0213 -0.1960 -1.7802
   25MOL    H3621684   4.437   1.143   3.582  1.0806  2.8603  1.7050
   25MOL    H3721685   4.563   0.996   3.750 -0.1250  0.4136 -1.1328
   25MOL    H3821686   3.948   1.134   3.512 -1.4266  0.9030 -1.1370
   25MOL    H3921687   3.899   1.112   3.276 -0.1851 -1.3353 -0.2462
   25MOL    H4021688   4.291   1.241   3.173 -2.1477 -1.1618 -1.6656
   25MOL    H4121689   4.361   1.248   3.417 -1.1862  1.4201  2.9235
   25MOL    H4221690   4.211   0.996   3.056 -0.4879  1.3072  2.0838
   25MOL    H4321691   4.174   0.954   2.828 -0.0199 -0.1266  1.0728
   25MOL    H4421692   3.856   1.259   2.833 -0.0042 -0.3643 -0.6478
   25MOL    H4521693   3.885   1.280   3.050  0.7263 -0.6228  0.2186
   25MOL    H4621694   4.235   0.426   4.135  2.1247 -1.3894  1.1707
   25MOL    C4721695   3.847   1.006   2.637  0.5522  0.2648  0.2572
   25MOL    C4821696   3.788   0.908   2.714  0.3160  0.3965 -0.1372
   25MOL    C4921697   3.666   0.850   2.668 -0.4218 -0.6233  0.0443
   25MOL    C5021698   3.605   0.897   2.548 -0.4816  0.3663 -0.0416
   25MOL    C5121699   3.665   1.004   2.474  0.4026  1.1239  0.5004
   25MOL    C5221700   3.787   1.047   2.518 -0.1270 -0.7022  0.0172
   25MOL    S5321701   3.446   0.837   2.505  0.2928 -0.0420  0.5341
   25MOL    O5421702   3.461   0.706   2.441 -0.2253 -0.8789 -0.1440
   25MOL    O5521703   3.384   0.934   2.419 -0.0686 -0.2367 -0.1584
   25MOL    C5621704   3.355   0.822   2.650 -0.5638 -0.0032 -0.1184
   25MOL    C5721705   3.345   0.933   2.740  0.1136  0.1883  0.7870
   25MOL    C5821706   3.267   0.931   2.855  0.0068  0.3166 -0.1611
   25MOL    C5921707   3.194   0.811   2.887  0.2800  0.5335 -0.3989
   25MOL    C6021708   3.210   0.702   2.798 -0.1679 -0.1460  0.1610
   25MOL    C6121709   3.296   0.705   2.687 -0.2568 -0.9707  0.1444
   25MOL    O6221710   3.124   0.789   2.999  0.2669  0.0376 -0.0360
   25MOL    C6321711   3.053   0.894   3.058  0.2801  0.2709 -0.6414
   25MOL    C6421712   2.946   0.965   2.998 -0.2139  0.2979  0.4054
   25MOL    C6521713   2.885   1.073   3.062 -0.1674 -0.3279 -0.6300
   25MOL    C6621714   2.911   1.110   3.195  0.4273 -0.3079 -0.4689
   25MOL    C6721715   3.020   1.041   3.255 -0.2949 -0.4881  0.2387
   25MOL    C6821716   3.089   0.938   3.186  0.0088 -0.6151  0.2047
   25MOL    C6921717   2.832   1.213   3.262 -0.0597  0.4624  0.0596
   25MOL    C7021718   2.766   1.182   3.384 -0.2396  0.2823 -0.7504
   25MOL    C7121719   2.703   1.275   3.467 -0.2233  0.5467  0.2653
   25MOL    C7221720   2.685   1.403   3.416 -0.3739 -0.4570  0.2764
   25MOL    C7321721   2.748   1.437   3.291  0.0786  0.4639 -0.1387
   25MOL    C7421722   2.817   1.347   3.215 -0.4372 -0.6108 -0.4290
   25MOL    O7521723   2.601   1.493   3.475 -0.2130  0.6999 -0.3068
   25MOL    H7621724   3.841   0.857   2.792  1.9758  0.1669 -1.3828
   25MOL    H7721725   3.629   0.769   2.728  1.2726 -1.5869 -0.1941
   25MOL    H7821726   3.619   1.054   2.390  0.4757  1.2392  0.5301
   25MOL    H7921727   3.846   1.114   2.459 -0.2923 -0.2943  0.3144
   25MOL    H8021728   3.401   1.017   2.701  0.2767 -0.0403  0.5323
   25MOL    H8121729   3.252   1.017   2.918  0.6576  0.3168 -0.0016
   25MOL    H8221730   3.160   0.610   2.822  1.4018 -0.4886  2.2642
   25MOL    H8321731   3.309   0.613   2.631  0.4417 -1.3711  0.9555
   25MOL    H8421732   2.916   0.945   2.896  0.3919 -2.1714  0.6992
   25MOL    H8521733   2.797   1.121   3.022 -1.5003 -0.3296  2.1741
   25MOL    H8621734   3.039   1.067   3.358 -1.1682 -0.7618  0.4727
   25MOL    H8721735   3.172   0.890   3.234  0.4743 -0.3419 -0.3243
   25MOL    H8821736   2.781   1.084   3.428  1.7331  1.3612  1.0933
   25MOL    H8921737   2.651   1.251   3.559  0.5769 -1.2853  0.2594
   25MOL    H9021738   2.751   1.539   3.255  2.2161  0.2766 -0.5238
   25MOL    H9121739   2.875   1.381   3.130  2.4883 -0.5668  1.5184
   25MOL    C9221740   2.550   1.600   3.404  1.0080  0.3388 -0.4523
   25MOL    C9321741   2.615   1.726   3.410 -0.3272  0.1057  0.3125
   25MOL    C9421742   2.563   1.835   3.327 -0.4840  0.8877  0.2601
   25MOL    C9521743   2.450   1.812   3.238  0.3285  0.1896  0.3343
   25MOL    C9621744   2.392   1.682   3.228 -0.4724  0.2918  0.1549
   25MOL    C9721745   2.447   1.581   3.313  0.4836 -0.0592 -0.6272
   25MOL    S9821746   2.369   1.951   3.157 -0.0761 -0.2533  0.3248
   25MOL    O9921747   2.244   1.900   3.095 -0.6418 -0.2077 -0.3256
   25MOL   O10021748   2.469   2.011   3.070 -0.9193 -0.0869  0.1681
   25MOL   C10121749   2.300   2.071   3.278 -0.1076 -0.0403 -0.4146
   25MOL   C10221750   2.370   2.196   3.291  0.0740 -0.4284 -0.6879
   25MOL   C10321751   2.310   2.303   3.366 -0.7217 -0.2714  0.3890
   25MOL   C10421752   2.177   2.279   3.418 -0.0846  0.0395 -0.3472
   25MOL   C10521753   2.112   2.157   3.398  0.5460 -0.1968  0.3351
   25MOL   C10621754   2.177   2.050   3.332 -0.5025  0.0558 -0.7436
   25MOL   O10721755   2.117   2.376   3.492 -0.1821  0.2015  0.1663
   25MOL   C10821756   2.176   2.409   3.610 -0.1543 -0.2743  0.4287
   25MOL   C10921757   2.173   2.323   3.720  0.4026  0.6234  0.1936
   25MOL   C11021758   2.235   2.367   3.837 -0.4947  0.0595 -0.0379
   25MOL   C11121759   2.305   2.490   3.844  0.1480  0.6315 -0.4278
   25MOL   C11221760   2.305   2.577   3.734 -0.4114 -0.3024  0.5938
   25MOL   C11321761   2.236   2.536   3.617 -0.1180  0.1487  0.5943
   25MOL   C11421762   2.368   2.538   3.969  0.4940  0.4560 -0.8159
   25MOL   C11521763   2.335   2.661   4.027  0.0415 -0.4478  0.2924
   25MOL   C11621764   2.409   2.716   4.134  0.1919  0.9740  0.3806
   25MOL   C11721765   2.495   2.630   4.204  0.0847 -0.6010 -0.1137
   25MOL   C11821766   2.526   2.501   4.152  0.8374 -0.6229 -0.0183
   25MOL   C11921767   2.464   2.457   4.030  0.0616  0.1326 -0.0085
   25MOL   O12021768   2.561   2.685   4.310  0.3871  0.0592 -0.7796
   25MOL   H12121769   2.697   1.732   3.480  0.8897 -3.9470 -0.6424
   25MOL   H12221770   2.596   1.938   3.324 -2.5012  1.5663  0.5530
   25MOL   H12321771   2.297   1.671   3.178  0.2000  0.6249 -1.2202
   25MOL   H12421772   2.395   1.487   3.323  1.4607 -0.4327  1.2288
   25MOL   H12521773   2.472   2.204   3.258 -0.1192  2.3880 -0.6679
   25MOL   H12621774   2.366   2.391   3.394 -0.0539 -0.6205  0.1692
   25MOL   H12721775   2.013   2.133   3.431  0.9310  0.7102  2.2000
   25MOL   H12821776   2.127   1.958   3.303  2.5996 -1.7989 -0.4188
   25MOL   H12921777   2.127   2.225   3.714  1.8617 -0.0752  0.1562
   25MOL   H13021778   2.226   2.307   3.926  0.0461 -0.6657 -0.4596
   25MOL   H13121779   2.346   2.676   3.743  1.9017 -1.1662 -0.0232
   25MOL   H13221780   2.231   2.598   3.528  0.6440 -0.0785  0.3934
   25MOL   H13321781   2.260   2.720   3.977  0.3264  0.2091  0.6337
   25MOL   H13421782   2.383   2.812   4.178  0.8502  1.6366 -0.6702
   25MOL   H13521783   2.597   2.446   4.211 -2.5974 -4.0629  1.1489
   25MOL   H13621784   2.499   2.362   3.994 -1.1303 -1.1131  1.9966
   25MOL   C13721785   2.493   2.707   4.431  0.8565 -0.3764  0.5955
   25MOL   C13821786   2.430   2.831   4.458 -0.4492 -1.0404 -0.7567
   25MOL   C13921787   2.345   2.836   4.569 -0.4853 -0.2779 -0.3216
   25MOL   C14021788   2.341   2.737   4.668 -0.4562  0.5249  0.2475
   25MOL   C14121789   2.412   2.618   4.651 -0.5826 -0.1660 -0.4629
   25MOL   C14221790   2.479   2.607   4.526 -0.2310  0.0213 -0.6253
   25MOL   S14321791   2.243   2.748   4.816  0.0043  0.2307 -0.6531
   25MOL   O14421792   2.291   2.855   4.904 -0.0757 -0.5927  0.6323
   25MOL   O14521793   2.226   2.611   4.868 -0.0204  0.0555 -0.4317
   25MOL   C14621794   2.081   2.796   4.771 -0.1078 -0.2153  0.2220
   25MOL   C14721795   1.996   2.851   4.870 -0.1457  0.4681  0.1105
   25MOL   C14821796   1.860   2.876   4.837 -0.6118 -0.8269 -0.2711
   25MOL   C14921797   1.812   2.843   4.707  0.4687  0.3997  0.5177
   25MOL   C15021798   1.902   2.798   4.608 -0.8963  0.1380  0.1355
   25MOL   C15121799   2.040   2.780   4.639  0.0961 -0.8793  0.6027
   25MOL   O15221800   1.681   2.865   4.678  0.0472 -0.8510  0.4997
   25MOL   C15321801   1.602   2.787   4.597 -0.0607 -0.0005 -0.1865
   25MOL   C15421802   1.592   2.644   4.606 -0.0785  0.2107 -0.1837
   25MOL   C15521803   1.521   2.574   4.504 -0.1209 -0.4818  0.2516
   25MOL   C15621804   1.456   2.641   4.393  0.3511 -0.4004 -0.3144
   25MOL   C15721805   1.455   2.783   4.397 -0.6551 -0.2107 -0.1671
   25MOL   C15821806   1.528   2.855   4.494 -0.2446  0.5513  0.5551
   25MOL   C15921807   1.374   2.562   4.290  0.7026 -0.1889  0.1749
   25MOL   C16021808   1.349   2.613   4.158  0.2915  0.3630  0.3129
   25MOL   C16121809   1.278   2.534   4.061  0.1587  0.0035 -0.1272
   25MOL   C16221810   1.229   2.408   4.100  0.8528 -0.2635 -0.4970
   25MOL   C16321811   1.254   2.359   4.228  0.5614  0.6738 -0.5384
   25MOL   C16421812   1.318   2.436   4.323 -0.0683  0.4366  0.0400
   25MOL   O16521813   1.151   2.338   4.013 -0.2291 -0.4948 -0.5504
   25MOL   H16621814   2.443   2.915   4.392  0.5424 -1.8644 -1.6348
   25MOL   H16721815   2.272   2.915   4.580  0.2554  0.0518  2.8760
   25MOL   H16821816   2.414   2.532   4.716 -0.8248 -1.5804 -2.2828
   25MOL   H16921817   2.526   2.516   4.494  1.4197  0.6850 -0.1732
   25MOL   H17021818   2.029   2.857   4.973 -0.2888  2.4139  0.0681
   25MOL   H17121819   1.790   2.919   4.907  2.7300  3.3138  0.7473
   25MOL   H17221820   1.868   2.774   4.508 -1.2245  0.3404  0.1999
   25MOL   H17321821   2.093   2.740   4.555 -1.0776 -1.2650  0.0334
   25MOL   H17421822   1.633   2.587   4.688 -0.4478  1.0228  0.5766
   25MOL   H17521823   1.512   2.466   4.507 -0.2497 -0.4268  2.9356
   25MOL   H17621824   1.400   2.839   4.323  0.4762  0.7233 -0.3025
   25MOL   H17721825   1.519   2.963   4.501 -1.4338  0.5407 -0.7227
   25MOL   H17821826   1.381   2.713   4.134 -0.3007  0.5081  0.1084
   25MOL   H17921827   1.243   2.588   3.975 -1.1768  0.9855  1.0115
   25MOL   H18021828   1.208   2.264   4.253 -0.6762  1.6616  0.9959
   25MOL   H18121829   1.327   2.397   4.423 -3.8805  1.0208  0.6884
   25MOL   C18221830   1.199   2.229   3.950 -0.3178  0.1518 -0.3142
   25MOL   C18321831   1.252   2.234   3.819  0.4469  0.2265 -0.5182
   25MOL   C18421832   1.312   2.122   3.758  0.0109 -0.1971 -0.0495
   25MOL   C18521833   1.301   1.994   3.820 -0.0108  0.1725  0.0244
   25MOL   C18621834   1.252   1.989   3.949 -0.5907  0.0840 -0.5467
   25MOL   C18721835   1.200   2.105   4.015  0.3343  0.1487 -0.0756
   25MOL   S18821836   1.349   1.854   3.732  0.3221  0.1867  0.0923
   25MOL   O18921837   1.267   1.855   3.609 -0.0791  0.4668  0.0709
   25MOL   O19021838   1.345   1.737   3.822  0.1924  0.5169 -0.2590
   25MOL   C19121839   1.520   1.878   3.680  0.6023 -0.0606  0.0290
   25MOL   C19221840   1.548   1.949   3.566 -0.1253  0.3305  0.0153
   25MOL   C19321841   1.685   1.985   3.540  0.7230 -0.3901 -0.4780
   25MOL   C19421842   1.793   1.939   3.617  0.1334  0.0481 -0.5434
   25MOL   C19521843   1.757   1.851   3.718  0.1351 -0.4460  0.0149
   25MOL   C19621844   1.626   1.817   3.748  0.2837  0.3125  0.0188
   25MOL   O19721845   1.921   1.960   3.576  0.7575  0.0860  0.8332
   25MOL   C19821846   2.021   1.874   3.609 -0.6057  1.1172 -0.0521
   25MOL   C19921847   2.113   1.906   3.707  0.9566  0.3652 -0.2658
   25MOL   C20021848   2.216   1.820   3.734 -0.1968  0.3796 -0.3839
   25MOL   C20121849   2.227   1.693   3.678 -0.0439 -0.3417 -0.0404
   25MOL   C20221850   2.137   1.655   3.577  0.4885 -0.0308  0.2159
   25MOL   C20321851   2.033   1.747   3.546  0.3690 -0.0068  0.1649
   25MOL   C20421852   2.343   1.621   3.718 -0.4325 -0.2810  0.7744
   25MOL   C20521853   2.468   1.681   3.721  0.0957 -0.4923  0.3410
   25MOL   C20621854   2.574   1.595   3.759 -0.5914  0.7575 -0.2379
   25MOL   C20721855   2.552   1.458   3.786 -0.2542  0.1316 -0.5548
   25MOL   C20821856   2.426   1.402   3.793  0.7648  0.1750 -0.6295
   25MOL   C20921857   2.320   1.489   3.752  0.1881 -0.1077 -0.1633
   25MOL   O21021858   2.664   1.378   3.807  0.5358  0.2150  0.7382
   25MOL   H21121859   1.249   2.327   3.764  0.5944 -0.4560 -1.7217
   25MOL   H21221860   1.363   2.134   3.663 -0.0726 -0.8562 -0.1758
   25MOL   H21321861   1.253   1.893   3.998 -3.3605  0.0067 -0.5240
   25MOL   H21421862   1.165   2.090   4.116  0.8630 -0.5915 -0.0026
   25MOL   H21521863   1.468   1.999   3.514 -1.2131  0.5269  1.8416
   25MOL   H21621864   1.710   2.044   3.454  0.5455  0.7409  0.2400
   25MOL   H21721865   1.834   1.806   3.778 -0.7649 -1.4507  0.4220
   25MOL   H21821866   1.611   1.768   3.843  2.2899 -0.2140  0.0715
   25MOL   H21921867   2.099   2.000   3.759  1.0477  0.4185 -0.3364
   25MOL   H22021868   2.281   1.858   3.811 -0.8887  2.1622 -0.6395
   25MOL   H22121869   2.151   1.563   3.522  1.2881  0.4468 -0.3855
   25MOL   H22221870   1.952   1.719   3.480 -0.0330 -0.3079  0.7769
   25MOL   H22321871   2.491   1.781   3.688 -1.3029  0.2499  1.5204
   25MOL   H22421872   2.676   1.628   3.749 -0.7406  1.7355  1.3249
   25MOL   H22521873   2.412   1.298   3.817  0.9927  0.1983 -0.3928
   25MOL   H22621874   2.222   1.446   3.737  1.0446 -2.7368  1.3978
   25MOL   C22721875   2.707   1.357   3.933  0.7998 -0.3862 -0.2643
   25MOL   C22821876   2.794   1.453   3.992 -0.3581 -0.0132 -0.1969
   25MOL   C22921877   2.858   1.425   4.112  0.3403  0.4170  1.1996
   25MOL   C23021878   2.832   1.296   4.170  0.2107  0.8944 -0.4576
   25MOL   C23121879   2.764   1.191   4.106  0.2612 -0.6514  0.9072
   25MOL   C23221880   2.695   1.226   3.981  0.3358 -0.1747  0.0640
   25MOL   S23321881   2.923   1.243   4.315 -0.3058 -0.3399 -0.1812
   25MOL   O23421882   3.056   1.199   4.266  0.4369 -0.1062  0.2373
   25MOL   O23521883   2.831   1.160   4.398  0.0035 -0.3572  0.2229
   25MOL   C23621884   2.957   1.388   4.418  0.3598  0.8389  0.4875
   25MOL   C23721885   2.849   1.481   4.443 -0.2779 -0.5137 -0.0420
   25MOL   C23821886   2.878   1.602   4.510 -0.8857 -0.0028 -0.1121
   25MOL   C23921887   3.008   1.632   4.561 -0.0784 -0.5848 -0.5594
   25MOL   C24021888   3.107   1.534   4.536  0.2136  0.6851  0.2105
   25MOL   C24121889   3.082   1.414   4.471 -0.1582 -0.0556 -0.2187
   25MOL   O24221890   3.039   1.754   4.624 -0.4655  0.0420 -0.2347
   25MOL   C24321891   3.031   1.874   4.565  0.3383  0.0756 -0.2805
   25MOL   C24421892   2.968   1.980   4.633  0.8149 -0.2164 -0.4616
   25MOL   C24521893   2.957   2.106   4.570 -0.0316 -0.2976 -0.2617
   25MOL   C24621894   2.990   2.119   4.431 -0.2949  0.1567 -0.4165
   25MOL   C24721895   3.059   2.013   4.373 -0.4161 -0.5013  0.2577
   25MOL   C24821896   3.086   1.891   4.439  0.4419 -0.3803 -0.1542
   25MOL   C24921897   2.955   2.238   4.349 -0.0488  0.1989  0.6206
   25MOL   C25021898   2.978   2.368   4.396  0.5593 -0.6601 -1.0608
   25MOL   C25121899   2.937   2.482   4.314  0.4542 -0.5515 -0.0706
   25MOL   C25221900   2.878   2.462   4.188 -0.5538  0.4819  0.4845
   25MOL   C25321901   2.850   2.327   4.153 -0.2176 -0.4688  0.0362
   25MOL   C25421902   2.899   2.217   4.221  0.2705  0.4327  0.9913
   25MOL   O25521903   2.846   2.570   4.111  0.0323 -0.0224 -0.5441
   25MOL   H25621904   2.819   1.540   3.933 -0.0504 -0.3688 -0.5943
   25MOL   H25721905   2.915   1.503   4.161 -1.2468  1.9888  0.5928
   25MOL   H25821906   2.754   1.092   4.147 -3.3015  0.0393  1.8209
   25MOL   H25921907   2.635   1.158   3.922  2.9681 -2.3716 -0.1780
   25MOL   H26021908   2.747   1.471   4.409 -1.0356  1.3759  1.6609
   25MOL   H26121909   2.796   1.672   4.523 -0.6429  0.2643 -0.0229
   25MOL   H26221910   3.205   1.558   4.573 -0.2093  1.4857  0.8347
   25MOL   H26321911   3.168   1.349   4.467 -2.0551 -2.6252 -0.7870
   25MOL   H26421912   2.924   1.966   4.731  0.4627 -1.5260 -0.7936
   25MOL   H26521913   2.918   2.192   4.622 -0.0221 -1.8550  2.4129
   25MOL   H26621914   3.088   2.019   4.269  0.1190 -0.8265  0.3876
   25MOL   H26721915   3.140   1.817   4.382  1.7722  2.8383 -3.1796
   25MOL   H26821916   3.012   2.371   4.498 -1.5911 -1.1431 -0.2899
   25MOL   H26921917   2.956   2.583   4.349 -2.5333  0.5111 -1.2896
   25MOL   H27021918   2.798   2.324   4.058 -1.2633  2.0827  0.4822
   25MOL   H27121919   2.882   2.123   4.170  0.2044  0.8033  0.3193
   25MOL   C27221920   2.933   2.602   4.010 -0.1738 -0.1167 -0.1192
   25MOL   C27321921   2.917   2.545   3.881 -0.1379  0.1450  0.2769
   25MOL   C27421922   2.995   2.589   3.767  0.6574 -0.0128  0.5559
   25MOL   C27521923   3.097   2.688   3.788  0.7592  0.8982  0.2018
   25MOL   C27621924   3.110   2.744   3.919  0.0952  0.0668 -0.2772
   25MOL   C27721925   3.035   2.701   4.026 -0.2732  0.1880  0.1034
   25MOL   S27821926   3.220   2.731   3.661 -0.0130  0.2394 -0.0046
   25MOL   O27921927   3.152   2.804   3.555  0.2956  0.1653 -0.1610
   25MOL   O28021928   3.289   2.606   3.630 -0.4108  0.0767  0.1422
   25MOL   C28121929   3.342   2.830   3.740 -0.3134  0.0965  0.4659
   25MOL   C28221930   3.465   2.769   3.752  0.2976  0.4788 -0.1264
   25MOL   C28321931   3.576   2.845   3.805  0.1571  0.2236  0.9364
   25MOL   C28421932   3.555   2.978   3.850 -0.1537  0.5212  0.1570
   25MOL   C28521933   3.436   3.044   3.816 -0.0541 -0.0209  0.0158
   25MOL   C28621934   3.321   2.968   3.771 -0.0791 -0.8819  0.5285
   25MOL   O28721935   3.657   3.047   3.901 -0.0724 -0.3795  0.9657
   25MOL   C28821936   3.656   3.071   4.034  0.2665  0.1333 -0.0287
   25MOL   C28921937   3.731   2.989   4.118  0.1883  0.5538  0.4637
   25MOL   C29021938   3.740   3.010   4.256 -0.1331  0.8909 -0.2120
   25MOL   C29121939   3.686   3.126   4.317  0.5786  0.4489  0.6526
   25MOL   C29221940   3.618   3.213   4.226  0.6764 -0.3530  0.2871
   25MOL   C29321941   3.610   3.190   4.090  0.0570 -0.3487 -0.2042
   25MOL   C29421942   3.709   3.170   4.452 -0.0635 -0.4364 -0.0915
   25MOL   C29521943   3.695   3.079   4.561 -0.2212  0.2408  0.6864
   25MOL   C29621944   3.720   3.119   4.691 -0.2836 -0.3888 -0.7260
   25MOL   C29721945   3.775   3.241   4.713 -0.3964 -0.0946 -0.4036
   25MOL   C29821946   3.791   3.331   4.608  0.0532  0.1802  0.2727
   25MOL   C29921947   3.768   3.298   4.478  0.0668 -0.1957  0.5368
   25MOL   O30021948   3.804   3.280   4.841 -0.0697  0.1654 -0.1369
   25MOL   H30121949   2.855   2.458   3.865 -2.0279  1.3162  1.1276
   25MOL   H30221950   2.992   2.530   3.676  1.6429  0.3277  0.2959
   25MOL   H30321951   3.185   2.822   3.927 -1.0510  1.0498  1.2173
   25MOL   H30421952   3.045   2.753   4.120 -0.4794 -0.3850  0.4477
   25MOL   H30521953   3.479   2.668   3.716 -3.4540  0.2444 -1.1390
   25MOL   H30621954   3.678   2.809   3.809  0.3021  0.6783  1.3042
   25MOL   H30721955   3.422   3.150   3.836  0.1236  0.1412 -0.7150
   25MOL   H30821956   3.226   3.019   3.767  0.9609  1.0701 -0.0208
   25MOL   H30921957   3.765   2.898   4.069 -0.2263  1.0391 -0.7392
   25MOL   H31021958   3.801   2.946   4.319  0.7926  1.7203 -0.2535
   25MOL   H31121959   3.569   3.305   4.255 -0.4807 -0.6807 -0.5814
   25MOL   H31221960   3.566   3.267   4.027  1.4639  1.1269  0.5863
   25MOL   H31321961   3.641   2.987   4.549  1.0157 -0.5806  1.2632
   25MOL   H31421962   3.700   3.046   4.767 -1.2082 -1.6763 -2.1973
   25MOL   H31521963   3.837   3.425   4.636 -1.1736  1.0419 -0.5790
   25MOL   H31621964   3.800   3.364   4.400  0.7687 -0.5008  0.5623
   25MOL   C31721965   3.937   3.271   4.873 -0.5351 -0.0859 -0.5206
   25MOL   C31821966   3.990   3.146   4.911  0.2499  0.6947  0.4603
   25MOL   C31921967   4.126   3.128   4.948  0.2567 -0.7084  0.5287
   25MOL   C32021968   4.212   3.238   4.948  0.1051 -0.1507  0.3327
   25MOL   C32121969   4.163   3.367   4.918  0.0313 -0.0831  1.2234
   25MOL   C32221970   4.033   3.383   4.875  0.5633 -0.1099 -0.8000
   25MOL   S32321971   4.388   3.216   4.993 -0.0395 -0.2068  0.1455
   25MOL   O32421972   4.411   3.071   4.988 -0.9051  0.3117 -0.0072
   25MOL   O32521973   4.393   3.290   5.122  0.1385 -0.3382  0.3875
   25MOL   C32621974   4.491   3.296   4.864 -0.5552  0.2689 -0.5880
   25MOL   C32721975   4.569   3.410   4.886 -0.5066 -0.3292 -0.4054
   25MOL   C32821976   4.640   3.462   4.777 -0.1912 -0.1620 -0.1390
   25MOL   C32921977   4.630   3.404   4.645  0.4985  0.2832 -0.7898
   25MOL   C33021978   4.542   3.292   4.628  0.1100 -0.1846  0.2688
   25MOL   C33121979   4.478   3.239   4.737  0.3814 -0.8508 -0.4920
   25MOL   O33221980   4.702   3.457   4.552 -0.5898  0.1555  0.3223
   25MOL   C33321981   4.806   3.374   4.508  0.4037 -0.0109  0.0061
   25MOL   C33421982   4.777   3.280   4.407  0.0592 -0.2626 -0.1479
   25MOL   C33521983   4.872   3.195   4.355 -0.5423  0.5166 -0.2275
   25MOL   C33621984   5.006   3.197   4.405 -0.3838 -0.3000  0.5526
   25MOL   C33721985   5.035   3.280   4.513  0.5177 -0.4685 -0.4519
   25MOL   C33821986   4.937   3.367   4.569 -0.6308  0.2743 -0.1523
   25MOL   C33921987   5.113   3.117   4.346  0.2251 -0.0181 -0.4466
   25MOL   C34021988   5.091   2.994   4.279 -0.5440 -0.5672 -1.1497
   25MOL   C34121989   5.193   2.917   4.224 -0.4420 -0.6096  0.6388
   25MOL   C34221990   5.327   2.964   4.240  0.1182 -0.1950 -0.1211
   25MOL   C34321991   5.353   3.082   4.312  0.0747 -0.2204 -0.3973
   25MOL   C34421992   5.247   3.152   4.359 -0.2059  0.5616 -0.1425
   25MOL   O34521993   5.433   2.890   4.197 -0.1733  0.7574 -0.2936
   25MOL   H34621994   3.923   3.061   4.907  0.1453  0.7510  1.0425
   25MOL   H34721995   4.175   3.035   4.973  2.3009  0.8973  2.7612
   25MOL   H34821996   4.223   3.456   4.929  0.6183 -0.3333  0.0908
   25MOL   H34921997   4.007   3.483   4.844 -1.5891  0.2608  1.9424
   25MOL   H35021998   4.580   3.451   4.985  0.5772 -1.3848 -0.0854
   25MOL   H35121999   4.710   3.544   4.789  0.6046 -0.7083 -1.0141
   25MOL   H35222000   4.534   3.241   4.533 -0.2518 -0.9322  0.6948
   25MOL   H35322001   4.409   3.156   4.739 -1.0863  0.3705  0.9983
   25MOL   H35422002   4.679   3.269   4.362 -0.0010  0.9242 -0.3355
   25MOL   H35522003   4.859   3.119   4.279 -0.2936  0.2226  0.0225
   25MOL   H35622004   5.125   3.276   4.572  1.4751 -1.9090 -1.9640
   25MOL   H35722005   4.961   3.422   4.659 -0.9256  1.2775 -0.6801
   25MOL   H35822006   4.989   2.963   4.265 -0.8975 -0.3425  0.7504
   25MOL   H35922007   5.173   2.828   4.166 -1.5193  1.8008 -2.8654
   25MOL   H36022008   5.450   3.129   4.314  0.0654 -0.2578  1.1243
   25MOL   H36122009   5.268   3.250   4.399  2.6862  0.3153 -0.9085
   25MOL   C36222010   5.559   2.906   4.249  0.1221 -0.5902  0.0606
   25MOL   C36322011   5.648   2.981   4.173 -0.7584 -0.5791  0.2544
   25MOL   C36422012   5.781   3.002   4.216  0.0563  0.3531 -0.6398
   25MOL   C36522013   5.819   2.956   4.341 -1.0067  0.6497 -0.2297
   25MOL   C36622014   5.728   2.877   4.414 -0.8164  0.2279  0.1689
   25MOL   C36722015   5.596   2.859   4.376  0.0853  0.3669  0.4566
   25MOL   S36822016   5.972   3.003   4.407  0.2902 -0.0553 -0.0243
   25MOL   O36922017   6.069   3.031   4.298  0.5575  0.0944 -0.6807
   25MOL   O37022018   5.999   2.902   4.510  0.2285 -0.0120 -0.0927
   25MOL   C37122019   5.934   3.155   4.489 -0.4641  0.3550  0.0981
   25MOL   C37222020   5.852   3.146   4.600 -0.1047 -0.0089 -0.8607
   25MOL   C37322021   5.802   3.271   4.655  0.3950  0.8555 -0.1809
   25MOL   C37422022   5.832   3.395   4.589  0.3429 -0.3621 -0.6830
   25MOL   C37522023   5.920   3.397   4.483 -0.2142  0.2317 -0.7714
   25MOL   C37622024   5.967   3.278   4.430 -1.2286 -0.1304  0.4138
   25MOL   O37722025   5.768   3.511   4.637  0.0799 -0.0436  0.2891
   25MOL   C37822026   5.641   3.535   4.586  0.7701 -0.9200 -0.4903
   25MOL   C37922027   5.524   3.521   4.665 -0.1543  0.9651  0.4575
   25MOL   C38022028   5.392   3.546   4.616  0.0802  0.0335 -0.2296
   25MOL   C38122029   5.372   3.588   4.488 -0.0876 -0.7626  0.4654
   25MOL   C38222030   5.483   3.592   4.402 -0.0818  0.6135  0.3413
   25MOL   C38322031   5.614   3.571   4.450  0.4172 -1.1542 -0.3142
   25MOL   C38422032   5.235   3.614   4.440 -0.1341  0.0516  0.4962
   25MOL   C38522033   5.187   3.547   4.324  0.2023  0.0869  0.2619
   25MOL   C38622034   5.059   3.574   4.278 -1.1573 -0.7003  0.0473
   25MOL   C38722035   4.972   3.661   4.344 -0.2711  0.3497 -0.1042
   25MOL   C38822036   5.017   3.710   4.467  0.3814 -0.2329 -0.8727
   25MOL   C38922037   5.149   3.699   4.504  0.3722 -0.6596 -0.2840
   25MOL   O39022038   4.850   3.685   4.285  0.0504  0.6410  0.1674
   25MOL   H39122039   5.612   3.020   4.079 -0.3952 -0.0104  0.3428
   25MOL   H39222040   5.849   3.067   4.163  0.3388  0.1860 -0.4824
   25MOL   H39322041   5.754   2.854   4.516  3.0572  0.3250 -0.7124
   25MOL   H39422042   5.526   2.811   4.443  0.0272  0.9155  0.7919
   25MOL   H39522043   5.832   3.046   4.634  1.0478  1.0960  3.4406
   25MOL   H39622044   5.735   3.268   4.739  1.4049  0.3107  0.6310
   25MOL   H39722045   5.945   3.487   4.429  0.1061  1.2530  1.0368
   25MOL   H39822046   6.022   3.286   4.338 -1.7083  2.4203  0.3193
   25MOL   H39922047   5.538   3.497   4.770 -1.3054 -0.6669  0.2587
   25MOL   H40022048   5.301   3.535   4.673  0.1270 -0.0590 -0.1728
   25MOL   H40122049   5.463   3.602   4.297  0.6915  1.4571  0.2753
   25MOL   H40222050   5.696   3.560   4.380  2.5891  0.2021  1.9032
   25MOL   H40322051   5.247   3.474   4.272  0.6052 -0.4428  1.4532
   25MOL   H40422052   5.024   3.518   4.192 -1.1637 -1.5958  0.6225
   25MOL   H40522053   4.944   3.762   4.526  1.5541  1.3585 -0.7838
   25MOL   H40622054   5.175   3.741   4.600  1.1411  0.2861 -0.8841
   25MOL   C40722055   4.776   3.788   4.324 -0.1128 -0.1980 -0.3186
   25MOL   C40822056   4.688   3.786   4.435 -0.4098  0.4057  0.5345
   25MOL   C40922057   4.595   3.893   4.459  0.1986  0.3719 -0.4782
   25MOL   C41022058   4.587   4.005   4.368  0.0865 -0.6053 -0.4602
   25MOL   C41122059   4.668   4.003   4.251  0.8220  1.1290  0.9982
   25MOL   C41222060   4.759   3.893   4.232  0.1299 -0.8187 -0.5634
   25MOL   S41322061   4.464   4.131   4.383 -0.0019  0.1207 -0.2972
   25MOL   O41422062   4.394   4.131   4.257 -0.0166  0.0032 -0.2742
   25MOL   O41522063   4.529   4.252   4.439 -0.0492 -0.0543  0.7229
   25MOL   C41622064   4.344   4.074   4.508 -0.6245 -0.3751  0.3486
   25MOL   C41722065   4.276   3.953   4.480 -0.1083  0.4644  0.2895
   25MOL   C41822066   4.194   3.895   4.574 -0.5920 -0.1285  0.5462
   25MOL   C41922067   4.180   3.959   4.696 -0.1674 -0.2359  0.1557
   25MOL   C42022068   4.256   4.073   4.734  0.1444  0.5345 -0.5708
   25MOL   C42122069   4.343   4.132   4.638  0.2640 -0.1158 -1.1107
   25MOL   O42222070   4.093   3.897   4.781  0.1330 -0.2321  0.2992
   25MOL   C42322071   3.958   3.919   4.763 -0.1260  0.3611 -0.8145
   25MOL   C42422072   3.887   3.811   4.702 -1.0999  0.3287 -1.2469
   25MOL   C42522073   3.746   3.817   4.684 -0.7102  0.1722 -0.3073
   25MOL   C42622074   3.678   3.935   4.727 -0.5957 -0.0728  0.2506
   25MOL   C42722075   3.751   4.038   4.796  0.4702 -0.1324  0.0102
   25MOL   C42822076   3.889   4.037   4.810 -0.0322  0.3416  0.8373
   25MOL   C42922077   3.530   3.941   4.715  0.4949  0.5293 -0.1734
   25MOL   C43022078   3.460   4.063   4.696  0.1181 -0.0614 -0.4732
   25MOL   C43122079   3.320   4.067   4.687 -0.4722  0.4697 -0.7105
   25MOL   C43222080   3.247   3.947   4.709  0.1591  0.0581 -0.6975
   25MOL   C43322081   3.317   3.824   4.718  0.5198 -0.4744 -0.1073
   25MOL   C43422082   3.457   3.821   4.714  0.1581  0.7494 -0.4850
   25MOL   O43522083   3.110   3.953   4.697  0.2704  0.2363 -0.7361
   25MOL   H43622084   4.709   3.705   4.504 -1.6416  0.0522  0.5104
   25MOL   H43722085   4.543   3.893   4.554  2.0188  0.5459  0.5568
   25MOL   H43822086   4.668   4.090   4.187  1.3901 -0.1693 -0.8365
   25MOL   H43922087   4.810   3.893   4.137  1.0793 -0.8932 -0.0641
   25MOL   H44022088   4.283   3.912   4.380  2.3500  2.3933 -0.3743
   25MOL   H44122089   4.136   3.806   4.553  0.5254 -1.1463  1.7379
   25MOL   H44222090   4.230   4.118   4.829 -1.4965 -1.3818 -0.0847
   25MOL   H44322091   4.402   4.219   4.664 -1.3554  0.3744  1.1024
   25MOL   H44422092   3.938   3.725   4.662 -1.4908 -0.6620  0.3425
   25MOL   H44522093   3.701   3.738   4.626 -1.3864 -1.4110  2.3085
   25MOL   H44622094   3.696   4.122   4.835 -1.2365  0.6021 -3.7329
   25MOL   H44722095   3.955   4.113   4.849  0.4176  0.6505 -0.4834
   25MOL   H44822096   3.518   4.152   4.680  1.1317 -0.7697 -0.7800
   25MOL   H44922097   3.270   4.157   4.654 -2.4049  0.5072  2.1137
   25MOL   H45022098   3.274   3.725   4.719  1.1901 -0.7786 -0.5917
   25MOL   H45122099   3.506   3.725   4.708 -1.3155  0.0599 -1.8783
   25MOL   C45222100   3.032   3.890   4.795 -0.1815  0.3642 -0.5283
   25MOL   C45322101   2.980   3.762   4.772 -0.9299 -0.0285  0.1009
   25MOL   C45422102   2.883   3.704   4.854  0.5989 -0.8540  0.2674
   25MOL   C45522103   2.842   3.775   4.973 -0.2739  0.1770 -0.8329
   25MOL   C45622104   2.891   3.910   4.993  0.0711  0.6700  0.6836
   25MOL   C45722105   2.981   3.966   4.901  0.0774  0.9697 -0.8195
   25MOL   S45822106   2.723   3.700   5.084 -0.2020  0.3680  0.0211
   25MOL   O45922107   2.668   3.585   5.012 -0.0446  0.7012  0.0185
   25MOL   O46022108   2.626   3.806   5.123 -0.2999 -0.2803 -0.1548
   25MOL   C46122109   2.810   3.637   5.237 -0.2513 -0.0621  0.2949
   25MOL   C46222110   2.922   3.545   5.222 -0.0076 -1.0064  0.1996
   25MOL   C46322111   2.988   3.501   5.339 -0.7522  0.0233  0.4680
   25MOL   C46422112   2.939   3.540   5.466  0.2080 -0.4879  0.8917
   25MOL   C46522113   2.832   3.637   5.476  0.0955 -0.1349  0.0601
   25MOL   C46622114   2.765   3.682   5.361 -0.3679  0.0537 -0.1031
   25MOL   O46722115   3.003   3.498   5.574 -0.1554  0.1833 -0.1404
   25MOL   C46822116   2.960   3.377   5.617  0.2436 -0.0250 -0.6324
   25MOL   C46922117   3.014   3.255   5.575  0.5556  0.9456 -0.1693
   25MOL   C47022118   2.957   3.131   5.619 -0.1761 -0.3304 -0.4766
   25MOL   C47122119   2.850   3.136   5.710  0.2272  0.4676 -1.1731
   25MOL   C47222120   2.794   3.261   5.754  0.0213  0.1884  0.3285
   25MOL   C47322121   2.851   3.385   5.709 -0.0023  0.6025  0.1052
   25MOL   C47422122   2.797   3.010   5.762  0.6874  0.1840 -0.2051
   25MOL   C47522123   2.839   2.945   5.881 -0.2988 -0.0141 -0.1238
   25MOL   C47622124   2.803   2.815   5.910 -0.0421 -0.3062 -0.5255
   25MOL   C47722125   2.723   2.738   5.826  0.6843  0.1929 -0.0655
   25MOL   C47822126   2.675   2.799   5.710  0.1624  0.3604 -0.3177
   25MOL   C47922127   2.710   2.934   5.681  0.4216 -0.0758 -0.1326
   25MOL   O48022128   2.697   2.604   5.860  0.2550 -0.5498  0.0576
   25MOL   H48122129   3.014   3.708   4.685 -1.3092  0.8198 -0.5892
   25MOL   H48222130   2.852   3.603   4.834  2.1012 -1.3500  0.3252
   25MOL   H48322131   2.865   3.972   5.077 -1.4418  2.1051 -0.8252
   25MOL   H48422132   3.014   4.066   4.927  1.1382  0.5480 -0.5283
   25MOL   H48522133   2.945   3.514   5.121  2.2627 -2.5170  1.1409
   25MOL   H48622134   3.075   3.442   5.316 -1.5655 -0.7937 -0.5711
   25MOL   H48722135   2.797   3.666   5.574 -0.1102  3.3948 -0.9692
   25MOL   H48822136   2.684   3.754   5.362  0.3977  0.9135  0.4972
   25MOL   H48922137   3.100   3.249   5.510  0.5983  0.1459 -0.0433
   25MOL   H49022138   3.005   3.041   5.583  0.0706 -0.9268  1.3010
   25MOL   H49122139   2.712   3.256   5.824 -1.5631  1.0305 -1.4243
   25MOL   H49222140   2.821   3.486   5.732 -0.3892  0.4524  0.2502
   25MOL   H49322141   2.918   2.992   5.938  0.2119 -2.2917  1.1079
   25MOL   H49422142   2.844   2.780   6.004  2.1272  1.3124 -0.8440
   25MOL   H49522143   2.602   2.750   5.647  0.2873 -1.3296  0.8436
   25MOL   H49622144   2.671   2.975   5.589  0.5645  2.2860  0.8302
   25MOL   C49722145   2.761   2.517   5.784 -0.4012 -0.1320  0.7371
   25MOL   C49822146   2.687   2.458   5.674  0.0846  0.0225  0.0710
   25MOL   C49922147   2.747   2.368   5.589 -0.0676  0.4355 -0.4894
   25MOL   C50022148   2.882   2.341   5.608 -0.6562  0.2647  0.6208
   25MOL   C50122149   2.956   2.397   5.713  0.6346  0.1264  0.4139
   25MOL   C50222150   2.893   2.485   5.802  1.1667 -0.3595 -0.0575
   25MOL   S50322151   2.962   2.231   5.492  0.1953 -0.0948  0.1477
   25MOL   O50422152   2.894   2.235   5.359 -0.1994 -0.7948 -0.0914
   25MOL   O50522153   2.979   2.101   5.554  0.2968  0.1362 -0.3521
   25MOL   C50622154   3.124   2.308   5.481 -0.1656  0.1529 -0.0261
   25MOL   C50722155   3.133   2.424   5.402 -0.7079 -0.5995  0.1791
   25MOL   C50822156   3.257   2.490   5.395 -0.3828  0.3423 -0.0731
   25MOL   C50922157   3.369   2.442   5.465 -0.7806 -0.2957  0.6584
   25MOL   C51022158   3.355   2.328   5.550 -0.6598 -0.2666 -0.7696
   25MOL   C51122159   3.230   2.263   5.569 -0.1245 -0.3451 -0.2247
   25MOL   O51222160   3.491   2.510   5.462 -0.9278  0.0711 -0.5707
   25MOL   C51322161   3.570   2.515   5.574 -0.5369 -0.1288  0.0872
   25MOL   C51422162   3.686   2.434   5.577 -0.3545 -0.5990  0.5386
   25MOL   C51522163   3.774   2.450   5.686  0.8518  0.5756 -0.8391
   25MOL   C51622164   3.747   2.538   5.796  0.4500 -0.6830 -0.1204
   25MOL   C51722165   3.630   2.612   5.793 -0.4542  0.5319  0.1249
   25MOL   C51822166   3.537   2.603   5.685  0.4496 -0.2505  0.8092
   25MOL   C51922167   3.829   2.525   5.919 -0.0381  0.1455 -0.0513
   25MOL   C52022168   3.966   2.494   5.910  1.1022 -0.0722  0.6450
   25MOL   C52122169   4.037   2.474   6.025  0.1992 -0.1821 -0.0767
   25MOL   C52222170   3.983   2.468   6.151  0.1883 -0.0552 -0.0034
   25MOL   C52322171   3.840   2.500   6.159 -0.0002  0.1574 -0.6671
   25MOL   C52422172   3.772   2.550   6.047  0.0602 -0.5659  0.0546
   25MOL   O52522173   4.068   2.435   6.249 -0.2622 -0.0456 -0.2603
   25MOL   H52622174   2.580   2.471   5.669 -0.0268 -0.9116 -0.0168
   25MOL   H52722175   2.682   2.322   5.515 -1.4281  2.6628 -0.7106
   25MOL   H52822176   3.048   2.349   5.744  2.1499  3.1871  0.8166
   25MOL   H52922177   2.948   2.530   5.883  0.5973 -0.9069  0.6393
   25MOL   H53022178   3.043   2.463   5.356  0.5466  1.5058 -0.5791
   25MOL   H53122179   3.272   2.582   5.341  2.0244  0.8845  1.4076
   25MOL   H53222180   3.447   2.292   5.593 -0.9423  0.0313  0.0892
   25MOL   H53322181   3.219   2.184   5.642 -0.0331  0.0369  0.2025
   25MOL   H53422182   3.717   2.380   5.489  2.7325  0.0467  1.1650
   25MOL   H53522183   3.861   2.386   5.693 -0.2999 -0.9703 -0.3126
   25MOL   H53622184   3.596   2.672   5.875 -1.7631 -1.1815  0.8786
   25MOL   H53722185   3.443   2.655   5.680  0.4410 -0.4788 -2.2529
   25MOL   H53822186   4.014   2.484   5.814 -2.7633 -1.3280 -1.2600
   25MOL   H53922187   4.142   2.456   6.010 -0.1327 -2.5163  0.2390
   25MOL   H54022188   3.792   2.506   6.256  0.8917 -1.3385 -0.1185
   25MOL   H54122189   3.672   2.587   6.065  1.0260  1.0596  2.3199
   25MOL   C54222190   4.030   2.403   6.376 -0.6281 -0.9623 -0.6318
   25MOL   C54322191   4.002   2.272   6.406  0.1828  0.3135 -0.9150
   25MOL   C54422192   3.975   2.242   6.544  0.4183  0.0959 -0.6403
   25MOL   C54522193   3.990   2.336   6.649 -0.1953 -0.0688  0.0508
   25MOL   C54622194   4.020   2.470   6.613  0.1159 -0.1704 -0.2572
   25MOL   C54722195   4.035   2.499   6.478 -0.6748  0.1773 -0.0806
   25MOL   S54822196   3.996   2.279   6.821 -0.1967  0.4521  0.0954
   25MOL   O54922197   3.939   2.143   6.831 -0.1667  0.1800  0.1288
   25MOL   O55022198   3.942   2.385   6.902 -0.0295 -0.1572  0.0800
   25MOL   C55122199   4.182   2.264   6.848 -0.1244 -0.0390 -0.4387
   25MOL   C55222200   4.269   2.375   6.849  0.4879  0.0558 -0.6048
   25MOL   C55322201   4.406   2.346   6.864 -0.0933 -0.2818 -0.0723
   25MOL   C55422202   4.461   2.215   6.869 -0.6437  0.0853 -0.2391
   25MOL   C55522203   4.369   2.104   6.877  0.7466  0.2983  0.1485
   25MOL   C55622204   4.230   2.131   6.864 -0.0369  1.0228  0.1353
   25MOL   O55722205   4.598   2.187   6.875  0.4343 -0.1482  0.8173
   25MOL   C55822206   4.680   2.233   6.972  0.3028 -0.1817 -0.6734
   25MOL   C55922207   4.695   2.154   7.091  0.6659 -0.1278 -0.3376
   25MOL   C56022208   4.790   2.195   7.185 -0.4861  0.6043 -0.0998
   25MOL   C56122209   4.871   2.315   7.173 -0.8448  0.3215  0.3518
   25MOL   C56222210   4.843   2.393   7.068 -0.3317 -0.2719  0.5405
   25MOL   C56322211   4.753   2.348   6.963 -0.9858 -0.1237  0.0813
   25MOL   C56422212   4.977   2.348   7.277  0.0574  0.0321 -1.0671
   25MOL   C56522213   4.959   2.293   7.406  0.3941 -0.6157 -0.8033
   25MOL   C56622214   5.044   2.332   7.506 -0.5835 -0.2072 -0.4029
   25MOL   C56722215   5.163   2.410   7.481 -0.1037 -0.4702 -0.2876
   25MOL   C56822216   5.190   2.442   7.343 -0.1157 -0.0889  0.2273
   25MOL   C56922217   5.101   2.401   7.243 -0.3397  0.2989  0.5686
   25MOL   O57022218   5.235   2.466   7.585 -0.0991  0.3535  0.7087
   25MOL   H57122219   3.997   2.194   6.331 -1.7154  0.5149 -1.0129
   25MOL   H57222220   3.962   2.140   6.577 -2.8671  0.5491 -0.2652
   25MOL   H57322221   4.042   2.548   6.684 -0.1007  1.6420 -2.1229
   25MOL   H57422222   4.064   2.597   6.444 -0.7096  0.2806  0.1881
   25MOL   H57522223   4.233   2.475   6.832 -0.3716  0.2085  1.9383
   25MOL   H57622224   4.477   2.425   6.880  0.7499 -0.9035 -0.7025
   25MOL   H57722225   4.395   1.999   6.883  0.1956  0.1730  0.4082
   25MOL   H57822226   4.158   2.051   6.865  1.5752 -0.4686  0.5672
   25MOL   H57922227   4.632   2.067   7.102  1.4317 -0.6424  0.0333
   25MOL   H58022228   4.814   2.129   7.268  0.5213 -0.8748 -1.5302
   25MOL   H58122229   4.900   2.484   7.050  0.9877 -1.2770 -0.4667
   25MOL   H58222230   4.737   2.412   6.878  0.5332 -0.2613 -0.3128
   25MOL   H58322231   4.862   2.253   7.429 -0.1000  1.7247  1.4618
   25MOL   H58422232   5.010   2.311   7.606 -0.2773 -1.2214 -0.5142
   25MOL   H58522233   5.272   2.507   7.316  0.4500 -1.3919 -1.2878
   25MOL   H58622234   5.118   2.437   7.142 -0.7311  2.6215  1.2949
   25MOL   C58722235   5.229   2.600   7.605  0.2189  0.0412  0.1395
   25MOL   C58822236   5.110   2.667   7.639  0.5721 -0.4467 -1.2229
   25MOL   C58922237   5.111   2.804   7.665 -0.0995  0.4864  0.2716
   25MOL   C59022238   5.230   2.879   7.660  0.0086 -0.2323 -0.3542
   25MOL   C59122239   5.351   2.815   7.620 -0.7616 -0.2155  0.4172
   25MOL   C59222240   5.346   2.678   7.589  0.4061 -0.4282 -0.4385
   25MOL   S59322241   5.220   3.057   7.687  0.2568 -0.1701 -0.1230
   25MOL   O59422242   5.099   3.112   7.638  0.0416 -0.0392  0.5345
   25MOL   O59522243   5.346   3.111   7.637  0.2020  0.2059 -0.3508
   25MOL   C59622244   5.222   3.082   7.868  0.0403  0.3162  0.1277
   25MOL   C59722245   5.143   3.181   7.928  0.0306  0.7599  0.1818
   25MOL   C59822246   5.151   3.203   8.072 -0.0516  0.4586  0.1005
   25MOL   C59922247   5.237   3.120   8.154 -0.4248 -0.0527 -0.2974
   25MOL   C60022248   5.298   3.006   8.090  0.9356 -0.6919  0.2302
   25MOL   C60122249   5.292   2.992   7.948 -0.5593  0.1658  0.2500
   25MOL   O60222250   5.255   3.148   8.290 -0.4794 -0.3393  0.1774
   25MOL   C60322251   5.302   3.270   8.315  0.5822  0.0384  0.0804
   25MOL   C60422252   5.219   3.373   8.358 -0.3408 -0.4007 -0.4419
   25MOL   C60522253   5.277   3.501   0.036 -0.0394  0.0697  0.2400
   25MOL   C60622254   5.417   3.521   0.034  1.0422  0.2400  0.0908
   25MOL   C60722255   5.493   3.416   8.338  0.4462 -0.6611 -0.3093
   25MOL   C60822256   5.436   3.290   8.309 -0.2450  0.0548  0.4162
   25MOL   C60922257   5.474   3.652   0.089  0.1576  0.2240  0.0477
   25MOL   C61022258   5.588   3.709   0.041  0.1565 -0.6293  1.0117
   25MOL   C61122259   5.645   3.826   0.086 -0.6358 -0.0667  0.4220
   25MOL   C61222260   5.592   3.885   0.204 -0.5973 -0.5703  0.8547
   25MOL   C61322261   5.465   3.835   0.251 -0.1915 -0.9668 -0.2134
   25MOL   C61422262   5.408   3.728   0.192  0.0127  0.3229  0.1841
   25MOL   O61522263   5.665   3.987   0.268  0.1591  0.6645 -1.0892
   25MOL   H61622264   5.021   2.608   7.655  0.6359 -0.5271 -1.1644
   25MOL   H61722265   5.017   2.851   7.688 -0.0569  0.8365 -0.2697
   25MOL   H61822266   5.445   2.867   7.606 -0.6779 -0.9733 -2.1495
   25MOL   H61922267   5.440   2.631   7.561  0.3763 -1.2323  0.7936
   25MOL   H62022268   5.075   3.243   7.871  2.0261  2.9779  0.1355
   25MOL   H62122269   5.091   3.280   8.117  1.2979  2.0822 -0.7895
   25MOL   H62222270   5.351   2.937   8.154  1.8020 -0.7579 -0.5502
   25MOL   H62322271   5.339   2.909   7.899 -0.1673  0.8245 -0.5151
   25MOL   H62422272   5.111   3.365   8.351 -0.2396 -1.7385 -0.5694
   25MOL   H62522273   5.210   3.580   0.067  0.0247 -1.2646  3.9340
   25MOL   H62622274   5.599   3.428   8.320  0.7472 -0.5085  1.5165
   25MOL   H62722275   5.497   3.208   8.275 -0.5179 -0.4651  1.1595
   25MOL   H62822276   5.624   3.670   8.313  0.1638 -1.7602  1.4806
   25MOL   H62922277   5.730   3.874   0.039 -3.3722  2.6513 -2.0267
   25MOL   H63022278   5.421   3.887   0.335 -2.5473 -2.0446 -0.7439
   25MOL   H63122279   5.311   3.696   0.228  0.5405  1.6965  2.9785
   25MOL   C63222280   5.689   3.971   0.401 -0.0391  1.0126 -0.1144
   25MOL   C63322281   5.664   4.080   0.490 -0.3444  0.1099  0.4721
   25MOL   C63422282   5.694   4.070   0.630  0.8014 -0.2291 -0.1520
   25MOL   C63522283   5.741   3.947   0.681  0.2696  0.6372 -0.0099
   25MOL   C63622284   5.764   3.838   0.593  0.1831  0.1330  0.7474
   25MOL   C63722285   5.737   3.844   0.457  0.3158  0.1061 -0.3875
   25MOL   S63822286   5.798   3.925   0.847  0.1787 -0.1350 -0.0198
   25MOL   O63922287   5.942   3.945   0.852 -0.3075 -0.4148  0.3513
   25MOL   O64022288   5.741   3.803   0.891  0.0937  0.1119 -0.1559
   25MOL   C64122289   5.716   4.055   0.939 -0.2210 -0.0614  0.1641
   25MOL   C64222290   5.578   4.046   0.970 -0.5064 -0.6878  0.3816
   25MOL   C64322291   5.510   4.150   1.028 -0.3939  0.4026 -0.5034
   25MOL   C64422292   5.577   4.261   1.085  0.6545 -0.8186 -0.8472
   25MOL   C64522293   5.721   4.269   1.061  0.8571  0.4647 -0.8918
   25MOL   C64622294   5.786   4.162   0.994 -1.0319 -0.0552  0.2987
   25MOL   O64722295   5.506   4.358   1.156 -0.4356  0.1683  0.3268
   25MOL   C64822296   5.525   4.483   1.106  0.2711  0.7301  0.4913
   25MOL   C64922297   5.442   4.529   1.007  0.1334  0.0393  0.0877
   25MOL   C65022298   5.445   4.656   0.952  0.3537  0.0516 -0.7626
   25MOL   C65122299   5.549   4.740   0.995  0.1154 -0.3423 -0.1305
   25MOL   C65222300   5.644   4.695   1.090 -0.2328 -0.2674  0.7281
   25MOL   C65322301   5.632   4.565   1.147 -0.2375 -0.3584 -0.2407
   25MOL   C65422302   5.566   4.882   0.943  0.5372 -0.2823  0.0244
   25MOL   C65522303   5.546   4.907   0.804  0.0719  0.2601 -0.9261
   25MOL   C65622304   5.562   5.038   0.749  0.1374  0.5780  0.3669
   25MOL   C65722305   5.589   5.142   0.839  0.6046  0.5379  1.0620
   25MOL   C65822306   5.585   5.118   0.980 -0.5150 -0.0298  0.2226
   25MOL   C65922307   5.590   4.992   1.029 -0.6584  0.5254  0.3138
   25MOL   O66022308   5.611   5.265   0.788  0.0322 -0.8460  0.1922
   25MOL   H66122309   5.626   4.172   0.449  1.0244  0.3334 -0.3015
   25MOL   H66222310   5.681   4.152   0.699  0.9102  0.6072 -1.1204
   25MOL   H66322311   5.819   3.755   0.636 -0.8761 -0.7165  0.4527
   25MOL   H66422312   5.759   3.758   0.395 -1.6646  0.8736 -2.2006
   25MOL   H66522313   5.533   3.957   0.928  0.1559 -0.6919 -0.3358
   25MOL   H66622314   5.403   4.140   1.041 -0.2440  1.2471  1.6903
   25MOL   H66722315   5.778   4.357   1.085 -0.3317  0.8253  0.6780
   25MOL   H66822316   5.892   4.160   0.973 -1.0369  1.0543  0.1166
   25MOL   H66922317   5.363   4.465   0.971  1.2203 -0.7817 -0.8797
   25MOL   H67022318   5.366   4.689   0.887 -0.2467  0.8091  0.3393
   25MOL   H67122319   5.729   4.759   1.110  0.4402 -0.1888 -2.1610
   25MOL   H67222320   5.701   4.548   1.229  0.6881  1.0496 -0.7067
   25MOL   H67322321   5.510   4.823   0.746 -0.2523 -1.3906  1.5709
   25MOL   H67422322   5.549   5.057   0.643  0.1887  2.9459  0.7672
   25MOL   H67522323   5.597   5.204   1.045 -1.7342  2.7190 -2.9940
   25MOL   H67622324   5.589   4.966   1.133 -0.9176 -1.6786 -0.2315
   25MOL   C67722325   5.738   5.329   0.802  0.0084 -0.2562  0.7285
   25MOL   C67822326   5.833   5.281   0.895  0.2521  0.0896 -0.7230
   25MOL   C67922327   5.958   5.342   0.912  0.3338 -0.3067  0.5454
   25MOL   C68022328   5.988   5.448   0.830  0.1066  0.3300 -0.1512
   25MOL   C68122329   5.893   5.501   0.738 -0.2557 -0.0539 -0.1411
   25MOL   C68222330   5.768   5.440   0.719 -0.1324 -0.1714 -0.6076
   25MOL   S68322331   6.153   5.515   0.850 -0.2093  0.0126 -0.3600
   25MOL   O68422332   6.215   5.449   0.966  0.3770  0.3171 -0.0999
   25MOL   O68522333   6.134   5.657   0.858 -0.5165  0.1018  0.1272
   25MOL   C68622334   6.246   5.469   0.706 -0.0297  0.0501  0.3784
   25MOL   C68722335   6.336   5.561   0.647  0.4985 -0.2039  0.7613
   25MOL   C68822336   6.419   5.522   0.541  0.3388 -0.4944  0.0762
   25MOL   C68922337   6.404   5.393   0.486  0.2573 -0.2936  0.2095
   25MOL   C69022338   6.319   5.308   0.544  0.6496  0.9278 -0.0209
   25MOL   C69122339   6.237   5.338   0.653  0.3046 -0.4504 -0.4216
   25MOL   O69222340   6.475   5.343   0.383 -0.4282  0.8520 -0.4217
   25MOL   C69322341   6.606   5.374   0.374 -0.0452 -0.0525  0.5026
   25MOL   C69422342   6.649   5.446   0.259  0.4585 -1.1281  0.4506
   25MOL   C69522343   6.791   5.471   0.242  0.3486  0.4227  0.0606
   25MOL   C69622344   6.884   5.420   0.335  0.2530  0.4073  0.9267
   25MOL   C69722345   6.835   5.341   0.441 -0.3778  0.1938  0.2365
   25MOL   C69822346   6.700   5.317   0.458  0.2563 -0.8600 -0.4267
   25MOL   C69922347   7.029   5.437   0.311  0.9567 -0.1842  0.1775
   25MOL   C70022348   7.086   5.568   0.279 -0.0272 -0.4022 -0.9270
   25MOL   C70122349   7.227   5.582   0.269  0.3037 -0.6995 -0.2056
   25MOL   C70222350   7.313   5.474   0.295  0.2685 -0.3896 -0.3415
   25MOL   C70322351   7.260   5.346   0.313  0.2084  0.1516 -0.5178
   25MOL   C70422352   7.119   5.329   0.309 -0.0424 -0.1022 -0.2714
   25MOL   O70522353   7.445   5.490   0.326  0.2681 -0.2864 -0.2799
   25MOL   H70622354   5.816   5.196   0.959 -1.0552  1.5179  0.8653
   25MOL   H70722355   6.025   5.297   0.984  0.8242 -0.8475 -0.2423
   25MOL   H70822356   5.936   5.561   0.659  2.5766  0.9483  2.1010
   25MOL   H70922357   5.700   5.461   0.638 -0.1531  2.4780  0.0379
   25MOL   H71022358   6.346   5.656   0.697 -1.1834  0.0551  0.6412
   25MOL   H71122359   6.484   5.599   0.502 -0.7630  0.3720 -0.0669
   25MOL   H71222360   6.312   5.207   0.506  1.7543  0.6254  0.5416
   25MOL   H71322361   6.160   5.282   0.703 -0.8121  0.8486 -0.6426
   25MOL   H71422362   6.575   5.485   0.190  1.6946  0.0842 -0.1999
   25MOL   H71522363   6.822   5.538   0.163 -0.6559  0.2280 -0.5147
   25MOL   H71622364   6.904   5.302   0.514  0.6057 -1.4705 -1.5096
   25MOL   H71722365   6.669   5.244   0.532  1.3234 -0.9493 -0.0581
   25MOL   H71822366   7.020   5.652   0.269  0.8143  0.1244 -2.1107
   25MOL   H71922367   7.264   5.682   0.253 -2.0177 -0.0028 -1.5434
   25MOL   H72022368   7.317   5.257   0.334 -0.7227 -0.7342 -1.6483
   25MOL   H72122369   7.074   5.231   0.313 -0.4714  0.0970 -0.2445
   25MOL   C72222370   7.465   5.525   0.455 -0.7780  0.1390 -0.9181
   25MOL   C72322371   7.519   5.653   0.480  0.3788  0.0344  0.0507
   25MOL   C72422372   7.553   5.689   0.612 -0.0418 -0.0608 -0.3740
   25MOL   C72522373   7.544   5.599   0.720 -0.4515 -0.2415  0.3319
   25MOL   C72622374   7.492   5.468   0.696  0.6755  0.3846  0.0451
   25MOL   C72722375   7.451   5.432   0.562  0.1290  0.2086 -0.3691
   25MOL   S72822376   7.582   5.651   0.884  0.1873 -0.1363  0.0668
   25MOL   O72922377   7.690   5.751   0.884  0.0820  1.2687 -0.3782
   25MOL   O73022378   7.595   5.525   0.964 -0.3540 -0.6442  0.7836
   25MOL   C73122379   7.433   5.747   0.947  0.1071  0.2028 -0.2109
   25MOL   C73222380   7.409   5.750   1.086  0.2302 -0.2479 -0.0003
   25MOL   C73322381   7.298   5.830   1.135  0.4158  0.1585 -0.1711
   25MOL   C73422382   7.215   5.900   1.044  0.0013  0.3627 -0.0828
   25MOL   C73522383   7.237   5.886   0.911 -0.4423 -0.2437  0.2148
   25MOL   C73622384   7.344   5.811   0.862 -0.1772 -0.0288  0.1329
   25MOL   O73722385   7.105   5.970   1.090 -0.4201  0.5822  0.1715
   25MOL   C73822386   6.988   5.903   1.119 -0.4664  0.0927 -0.1333
   25MOL   C73922387   6.887   5.977   1.171  0.3084  0.9660  0.2366
   25MOL   C74022388   6.768   5.922   1.221 -0.8330  0.3247 -0.8489
   25MOL   C74122389   6.746   5.781   1.203 -0.5695  0.4515  0.3584
   25MOL   C74222390   6.846   5.708   1.138 -0.8572  0.4406 -0.1305
   25MOL   C74322391   6.966   5.770   1.097  0.5265  0.7813  0.9904
   25MOL   C74422392   6.623   5.720   1.240  0.4689  0.5070 -0.4084
   25MOL   C74522393   6.520   5.706   1.146 -0.2118  0.5178  0.6333
   25MOL   C74622394   6.388   5.674   1.187 -0.1048  0.0187  0.4080
   25MOL   C74722395   6.362   5.647   1.325  0.5583  0.1039 -0.2807
   25MOL   C74822396   6.469   5.661   1.417  0.2635 -0.0343  0.7797
   25MOL   C74922397   6.599   5.691   1.375 -0.2875  0.0791 -0.0689
   25MOL   O75022398   6.244   5.593   1.375 -0.0950  0.3204 -0.1996
   25MOL   H75122399   7.511   5.728   0.403 -0.6495 -0.4595 -0.3352
   25MOL   H75222400   7.590   5.786   0.641 -1.7394  0.6364 -0.4690
   25MOL   H75322401   7.464   5.404   0.778 -0.8275  2.7931  1.4449
   25MOL   H75422402   7.412   5.332   0.554 -1.1209  0.6608 -0.0429
   25MOL   H75522403   7.472   5.700   1.158  1.5420 -1.1287 -1.7187
   25MOL   H75622404   7.268   5.843   1.238  0.0654  0.9266 -0.3685
   25MOL   H75722405   7.170   5.945   0.851  0.7697  0.9815  0.0558
   25MOL   H75822406   7.365   5.807   0.756  0.2142  1.0190  0.1646
   25MOL   H75922407   6.905   6.081   1.191  2.1059  1.1959 -2.4081
   25MOL   H76022408   6.692   5.991   1.253 -0.7597 -0.4179  1.0189
   25MOL   H76122409   6.835   5.601   1.127  2.2545  0.1641 -1.0224
   25MOL   H76222410   7.048   5.708   1.066 -1.0902 -1.7292  1.5956
   25MOL   H76322411   6.544   5.716   1.041 -0.8258  0.3618  0.4708
   25MOL   H76422412   6.310   5.664   1.112  0.7992  1.2663 -0.7204
   25MOL   H76522413   6.442   5.630   1.517 -1.2228 -0.1003  0.3726
   25MOL   H76622414   6.685   5.702   1.440  0.8678  1.3571 -1.7704
   25MOL   C76722415   6.242   5.455   1.384  0.2263 -0.4539 -0.8752
   25MOL   C76822416   6.312   5.381   1.481 -0.3083 -0.2315  0.4866
   25MOL   C76922417   6.328   5.239   1.461 -0.2537 -0.2325  0.1593
   25MOL   C77022418   6.266   5.179   1.351 -0.8808  0.8423 -0.2158
   25MOL   C77122419   6.192   5.252   1.260 -0.1754 -0.4171 -0.0641
   25MOL   C77222420   6.170   5.391   1.285 -0.6536 -0.5873 -0.0816
   25MOL   S77322421   6.289   5.003   1.326 -0.0417 -0.2304  0.0447
   25MOL   O77422422   6.416   4.976   1.256 -0.6033 -0.9525 -0.5903
   25MOL   O77522423   6.167   4.944   1.274 -0.0439 -0.7938 -0.0360
   25MOL   C77622424   6.304   4.937   1.485 -0.3547 -0.8488 -0.3907
   25MOL   C77722425   6.195   4.946   1.576 -0.5461  0.5674 -0.2954
   25MOL   C77822426   6.209   4.881   1.697 -0.1925 -0.3356  0.6712
   25MOL   C77922427   6.331   4.824   1.733  0.8787 -0.5690  0.5289
   25MOL   C78022428   6.439   4.820   1.642  0.0670 -0.9569 -0.7104
   25MOL   C78122429   6.427   4.883   1.521  0.3626 -0.0255 -0.2816
   25MOL   O78222430   6.346   4.769   1.858  0.2228  0.4519 -0.0997
   25MOL   C78322431   6.275   4.653   1.868  0.1668 -0.0873 -0.0309
   25MOL   C78422432   6.176   4.645   1.968  0.1813  0.2072 -0.0761
   25MOL   C78522433   6.089   4.523   1.972 -0.6336 -0.6362  0.4380
   25MOL   C78622434   6.121   4.408   1.900  0.1269 -0.6494 -0.0578
   25MOL   C78722435   6.228   4.418   1.805 -0.2607  0.2523  0.3948
   25MOL   C78822436   6.308   4.540   1.794  0.5817  0.7260 -0.6480
   25MOL   C78922437   6.033   4.286   1.895  0.1074 -1.0542 -0.2929
   25MOL   C79022438   5.981   4.230   2.016 -0.0121 -0.3684 -0.1174
   25MOL   C79122439   5.899   4.122   2.015 -0.4790 -0.9118 -0.8267
   25MOL   C79222440   5.852   4.069   1.897 -0.1482  0.3076  0.7015
   25MOL   C79322441   5.903   4.116   1.775  0.7790  0.0718 -0.5735
   25MOL   C79422442   5.989   4.226   1.774 -0.6680 -0.1070  0.0120
   25MOL   O79522443   5.747   3.979   1.910 -0.3153 -0.3311  0.1841
   25MOL   H79622444   6.370   5.430   1.558  1.0571  0.7348 -1.1318
   25MOL   H79722445   6.377   5.186   1.541 -0.6375 -1.8579 -0.6470
   25MOL   H79822446   6.153   5.201   1.174  0.6844 -1.0204 -0.1006
   25MOL   H79922447   6.115   5.446   1.210 -0.1252 -1.3994 -1.0643
   25MOL   H80022448   6.101   4.983   1.539 -1.0151 -2.0208 -1.7908
   25MOL   H80122449   6.125   4.889   1.765 -1.9510 -0.9642 -1.3631
   25MOL   H80222450   6.535   4.781   1.672  0.6176  0.6343 -0.4132
   25MOL   H80322451   6.510   4.883   1.452 -0.6583  1.4565 -1.5640
   25MOL   H80422452   6.149   4.729   2.031  1.9086  1.9137 -1.5433
   25MOL   H80522453   6.001   4.534   2.034 -0.7872  0.0287  0.1069
   25MOL   H80622454   6.256   4.335   1.743  2.6661  0.7889  0.9378
   25MOL   H80722455   6.391   4.543   1.725  0.9192  1.2804 -0.2137
   25MOL   H80822456   6.008   4.268   2.114  1.1316  1.6145 -1.1862
   25MOL   H80922457   5.854   4.088   2.107  0.6783  0.5842  0.3240
   25MOL   H81022458   5.891   4.063   1.682  1.3770 -2.6708  0.8484
   25MOL   H81122459   6.023   4.267   1.680 -2.7449  1.0280 -0.2649
   25MOL   C81222460   5.693   3.919   1.798 -0.2701  0.2508 -0.3365
   25MOL   C81322461   5.729   3.789   1.770 -0.3345  0.6276  0.3593
   25MOL   C81422462   5.698   3.729   1.644  0.2474  0.3423 -0.1443
   25MOL   C81522463   5.619   3.804   1.550 -0.1739 -0.0324 -0.3961
   25MOL   C81622464   5.578   3.932   1.584 -0.1649  0.6013 -0.6307
   25MOL   C81722465   5.618   3.993   1.704  0.3969  0.5974  0.0128
   25MOL   S81822466   5.570   3.729   1.396 -0.1023 -0.0823  0.5008
   25MOL   O81922467   5.535   3.841   1.311  0.1437 -0.4556 -0.1680
   25MOL   O82022468   5.481   3.619   1.429  0.5837  0.5782  0.0461
   25MOL   C82122469   5.723   3.666   1.322  0.5037  0.4764  0.0647
   25MOL   C82222470   5.803   3.748   1.245 -0.6782 -0.5645  0.4324
   25MOL   C82322471   5.918   3.698   1.181 -0.4277  0.7204 -0.0154
   25MOL   C82422472   5.955   3.562   1.194 -0.7501  0.3373  0.0340
   25MOL   C82522473   5.863   3.478   1.262 -0.5641  0.6251 -0.5859
   25MOL   C82622474   5.753   3.530   1.331  0.1251  0.5416 -0.3234
   25MOL   O82722475   6.070   3.511   1.138  0.8291 -0.4334  0.1948
   25MOL   C82822476   6.103   3.556   1.011  0.1394 -0.3536 -0.8471
   25MOL   C82922477   6.010   3.551   0.904 -0.4501  0.5366 -0.2017
   25MOL   C83022478   6.040   3.618   0.789 -0.3223  0.1798 -0.4597
   25MOL   C83122479   6.170   3.671   0.767 -0.5201 -0.1264  0.0226
   25MOL   C83222480   6.276   3.654   0.866  0.2484 -0.2340 -0.0485
   25MOL   C83322481   6.231   3.595   0.989 -0.7474 -0.5709  0.5914
   25MOL   C83422482   6.204   3.726   0.632 -0.1051  0.5402  0.0452
   25MOL   C83522483   6.314   3.672   0.555  0.1332  0.4731  0.5607
   25MOL   C83622484   6.337   3.717   0.428 -0.4201 -0.2052 -0.1259
   25MOL   C83722485   6.255   3.808   0.362  0.1128 -0.1306 -0.5563
   25MOL   C83822486   6.148   3.866   0.431  0.3597  0.5993 -0.1367
   25MOL   C83922487   6.127   3.827   0.567  0.6116  0.2809  0.4117
   25MOL   O84022488   6.287   3.860   0.236  0.2294 -0.6784 -0.4203
   25MOL   H84122489   5.793   3.723   1.826 -1.0543 -1.4887 -1.2235
   25MOL   H84222490   5.728   3.629   1.618  2.8438  0.7283  1.2097
   25MOL   H84322491   5.517   3.978   1.508 -0.9079 -0.3707 -0.6346
   25MOL   H84422492   5.593   4.095   1.727  2.0845  0.7787  1.2167
   25MOL   H84522493   5.775   3.849   1.220 -1.2171 -0.4109  1.6346
   25MOL   H84622494   5.983   3.763   1.124  0.9684 -0.9802 -0.3900
   25MOL   H84722495   5.891   3.374   1.263 -1.3241  0.4056 -1.4683
   25MOL   H84822496   5.689   3.463   1.386  1.6340 -0.9726 -0.3634
   25MOL   H84922497   5.916   3.498   0.908 -0.0821 -0.2481 -1.4639
   25MOL   H85022498   5.963   3.620   0.713  1.7492  0.7142 -2.5788
   25MOL   H85122499   6.376   3.689   0.846  0.2437  0.0293  0.3885
   25MOL   H85222500   6.307   3.592   1.066  2.0509 -0.7342 -2.0737
   25MOL   H85322501   6.379   3.597   0.597  1.4655  1.5666  0.4929
   25MOL   H85422502   6.409   3.669   0.365  1.6072  1.9185  0.5166
   25MOL   H85522503   6.095   3.948   0.385  2.6253  1.7236 -0.8110
   25MOL   H85622504   6.062   3.892   0.624 -0.9480  1.5128 -2.6519
   25MOL   C85722505   6.201   3.826   0.133  0.3325  0.0548  0.1681
   25MOL   C85822506   6.179   3.690   0.096 -0.1756  0.0814  0.5476
   25MOL   C85922507   6.085   3.654   8.362 -1.1527  0.2993  0.1103
   25MOL   C86022508   6.009   3.750   8.293 -0.9418  0.6858  0.0081
   25MOL   C86122509   6.039   3.882   8.321  0.6489 -0.1873 -0.5570
   25MOL   C86222510   6.131   3.920   0.052 -0.1229 -0.7054 -0.0735
   25MOL   S86322511   5.892   3.712   8.155 -0.4391 -0.1313  0.0867
   25MOL   O86422512   5.812   3.829   8.130 -0.1869 -0.6818 -0.1045
   25MOL   O86522513   5.835   3.584   8.195 -0.4826  0.2995  0.1792
   25MOL   C86622514   5.998   3.684   8.011 -0.5753 -0.6807 -0.2786
   25MOL   C86722515   6.097   3.787   7.978 -0.3860  0.1539 -0.3225
   25MOL   C86822516   6.192   3.761   7.878 -0.3253  0.1626 -0.6107
   25MOL   C86922517   6.195   3.631   7.814  0.4539  0.1961 -0.1052
   25MOL   C87022518   6.088   3.541   7.839 -0.9540  0.2617 -0.1695
   25MOL   C87122519   5.992   3.568   7.939 -0.4321  0.6038 -0.1479
   25MOL   O87222520   6.307   3.597   7.738  0.7944 -0.1015 -0.8035
   25MOL   C87322521   6.431   3.655   7.763  0.3526 -0.6853  0.0528
   25MOL   C87422522   6.514   3.703   7.664  0.4230 -0.2435 -0.6833
   25MOL   C87522523   6.635   3.774   7.685  0.2051 -0.3373  0.1894
   25MOL   C87622524   6.677   3.790   7.820  0.3546 -0.3650  0.5373
   25MOL   C87722525   6.606   3.723   7.922 -0.3227 -0.0664  0.5096
   25MOL   C87822526   6.483   3.658   7.895  0.8156 -0.0311  0.3661
   25MOL   C87922527   6.785   3.887   7.850 -0.1579  0.4840 -0.7878
   25MOL   C88022528   6.881   3.857   7.948  0.2035 -0.3283 -0.3128
   25MOL   C88122529   6.988   3.940   7.961 -0.5679 -0.3021 -0.7186
   25MOL   C88222530   7.001   4.060   7.889 -0.2531  0.0628  0.0006
   25MOL   C88322531   6.903   4.098   7.790 -0.2654  0.0881 -0.1135
   25MOL   C88422532   6.806   4.003   7.768  0.3450  0.1650 -0.0269
   25MOL   O88522533   7.097   4.146   7.918  0.0965  0.5923 -0.5436
   25MOL   H88622534   6.228   3.614   0.154  1.0878  1.8219  1.7978
   25MOL   H88722535   6.062   3.550   8.344 -0.5471  0.0112  0.9602
   25MOL   H88822536   5.984   3.950   8.258 -1.3574 -1.4406 -0.2022
   25MOL   H88922537   6.163   4.023   0.065  1.5859 -1.5294  2.5538
   25MOL   H89022538   6.100   3.879   8.035 -0.7912 -0.4245  0.6521
   25MOL   H89122539   6.271   3.831   7.856 -2.1803  1.6651 -2.5345
   25MOL   H89222540   6.094   3.446   7.787  1.8651 -1.0071  2.2907
   25MOL   H89322541   5.915   3.492   7.944 -0.6787  0.8956  0.5588
   25MOL   H89422542   6.478   3.711   7.563 -2.9791  0.4381  0.4819
   25MOL   H89522543   6.686   3.820   7.602 -2.3339  1.0672 -0.6433
   25MOL   H89622544   6.644   3.722   8.024 -2.0770  0.2875  1.1782
   25MOL   H89722545   6.426   3.620   7.978  0.8866 -1.3405 -0.1655
   25MOL   H89822546   6.864   3.775   8.017 -0.2986 -0.8663 -1.0591
   25MOL   H89922547   7.070   3.931   8.030 -0.4915 -0.7456 -0.8665
   25MOL   H90022548   6.902   4.193   7.739  0.3987  0.0786 -0.1487
   25MOL   H90122549   6.743   4.017   7.681 -1.5438 -0.4362  1.1946
   25MOL   H90222550   7.070   4.234   7.896  0.5483  0.7344 -0.5491
   26MOL     C122551   2.658   3.493   4.047  0.1906  0.6378 -0.4945
   26MOL     C222552   2.580   3.428   4.144 -0.1637  0.0222  0.0613
   26MOL     C322553   2.538   3.296   4.125 -0.2245  0.3953 -0.7584
   26MOL     C422554   2.577   3.225   4.013  0.1803 -0.5578 -0.3635
   26MOL     C522555   2.658   3.289   3.918 -0.2456  0.3492  0.0011
   26MOL     C622556   2.694   3.420   3.936 -0.1595 -0.1612  0.4537
   26MOL     S722557   2.514   3.063   3.992  0.1564 -0.1218 -0.4806
   26MOL     O822558   2.370   3.081   3.980  0.3961 -0.5023 -0.3680
   26MOL     O922559   2.561   2.977   4.101 -0.0968  0.2488 -0.2131
   26MOL    C1022560   2.579   3.003   3.833  0.2146 -0.5955 -0.0418
   26MOL    C1122561   2.702   2.932   3.831  0.7337 -0.3114  0.2422
   26MOL    C1222562   2.750   2.870   3.703  0.2038 -0.2991  0.2127
   26MOL    C1322563   2.666   2.872   3.595  0.2141  0.7001  0.3405
   26MOL    C1422564   2.542   2.951   3.593 -0.0005  0.7696  0.1049
   26MOL    C1522565   2.497   3.006   3.719 -0.3004 -0.1008  0.6193
   26MOL    O1622566   2.693   2.805   3.475 -0.2159 -0.3182 -0.0844
   26MOL    C1722567   2.710   2.667   3.482  0.1839  0.1561 -0.8997
   26MOL    C1822568   2.603   2.589   3.529 -0.2811 -0.5555 -0.2085
   26MOL    C1922569   2.613   2.449   3.555  0.5497  0.1658 -0.6718
   26MOL    C2022570   2.736   2.385   3.532  0.0589  0.2888  0.4608
   26MOL    C2122571   2.843   2.466   3.480  0.2860 -0.0468  0.4807
   26MOL    C2222572   2.832   2.603   3.448  0.0151 -0.2779 -0.0552
   26MOL    C2322573   2.754   2.245   3.552 -0.2401 -0.2624 -0.3285
   26MOL    C2422574   2.750   2.198   3.683 -0.2267  0.0493 -0.1745
   26MOL    C2522575   2.785   2.068   3.714  0.7549 -0.2227  0.0834
   26MOL    C2622576   2.814   1.976   3.614  0.3796 -0.1804 -0.6953
   26MOL    C2722577   2.813   2.016   3.485  0.1478 -0.7415  0.3620
   26MOL    C2822578   2.786   2.152   3.454 -0.2255  0.5844  0.0389
   26MOL    O2922579   2.851   1.843   3.642  0.3754 -0.0365 -0.6808
   26MOL    H3022580   2.552   3.487   4.230  1.1305  0.5535  0.1384
   26MOL    H3122581   2.489   3.251   4.210  1.1513  0.1829 -0.0796
   26MOL    H3222582   2.696   3.231   3.835  2.7540 -0.9886  2.2109
   26MOL    H3322583   2.759   3.461   3.859 -0.9752 -1.3806 -0.9074
   26MOL    H3422584   2.765   2.919   3.917  0.3076 -0.5120  0.5300
   26MOL    H3522585   2.846   2.821   3.701 -0.6288 -2.0057 -4.2967
   26MOL    H3622586   2.475   2.948   3.508 -0.1270 -2.2161  0.2638
   26MOL    H3722587   2.404   3.060   3.724 -0.6654 -0.8463  2.0754
   26MOL    H3822588   2.512   2.638   3.558  0.0861 -0.7980  1.4000
   26MOL    H3922589   2.524   2.402   3.591 -0.1483  1.7033 -0.3424
   26MOL    H4022590   2.939   2.421   3.458 -0.8070 -1.2952 -1.9134
   26MOL    H4122591   2.919   2.652   3.405  0.1762  0.7438  1.3974
   26MOL    H4222592   2.735   2.265   3.766  2.4735  1.5276 -0.8021
   26MOL    H4322593   2.777   2.046   3.820 -1.8006 -1.3876 -0.3102
   26MOL    H4422594   2.840   1.942   3.412  0.3162 -1.2372  0.9238
   26MOL    H4522595   2.802   2.192   3.355 -2.6667 -0.0075 -0.6397
   26MOL    H4622596   2.677   3.597   4.072  0.0293  0.3729  0.7567
   26MOL    C4722597   2.946   1.825   3.739 -0.3677  0.4930 -0.3362
   26MOL    C4822598   3.081   1.804   3.701  0.1753  0.7490  0.8727
   26MOL    C4922599   3.177   1.762   3.794  0.1566 -0.8268  0.1367
   26MOL    C5022600   3.137   1.741   3.927 -0.1195 -0.0923  0.8333
   26MOL    C5122601   3.000   1.751   3.968 -0.2478 -0.1382  0.1279
   26MOL    C5222602   2.906   1.798   3.872  0.0752  0.8728 -0.1623
   26MOL    S5322603   3.257   1.689   4.040 -0.1102  0.4091  0.2844
   26MOL    O5422604   3.186   1.675   4.168  0.5353 -0.1130  0.0503
   26MOL    O5522605   3.375   1.780   4.028 -0.3102 -0.0660  0.1039
   26MOL    C5622606   3.309   1.524   4.000  0.0342 -0.0182 -0.0389
   26MOL    C5722607   3.447   1.489   4.004 -0.5393  0.0887  0.1398
   26MOL    C5822608   3.490   1.356   3.972 -0.6480 -0.4381  0.7465
   26MOL    C5922609   3.392   1.259   3.950  0.4253 -0.0278  0.0050
   26MOL    C6022610   3.252   1.292   3.943  0.6798 -0.1106  0.0348
   26MOL    C6122611   3.216   1.422   3.974  0.5462 -0.2265  0.0067
   26MOL    O6222612   3.437   1.124   3.941 -0.3030  0.2515  0.2975
   26MOL    C6322613   3.385   1.016   4.011 -0.4844 -0.6755 -0.1253
   26MOL    C6422614   3.308   1.020   4.128 -0.4045 -0.3435  0.9459
   26MOL    C6522615   3.251   0.900   4.182 -0.5579 -0.4837  0.1023
   26MOL    C6622616   3.282   0.776   4.125 -0.1879 -0.2340 -0.3294
   26MOL    C6722617   3.375   0.772   4.017  0.3313  0.2792 -0.7050
   26MOL    C6822618   3.415   0.892   3.954 -0.3068  0.1367 -0.2803
   26MOL    C6922619   3.222   0.654   4.189 -0.5424  0.2251 -0.0755
   26MOL    C7022620   3.103   0.659   4.260  0.4417 -1.2347  0.1694
   26MOL    C7122621   3.055   0.543   4.314  0.2683  0.1648 -0.2685
   26MOL    C7222622   3.135   0.430   4.312  0.4838  0.5090 -0.1019
   26MOL    C7322623   3.257   0.425   4.242 -0.0354 -0.1235 -0.4960
   26MOL    C7422624   3.302   0.539   4.184 -0.4855 -0.0178 -0.4354
   26MOL    O7522625   3.084   0.312   4.360 -0.0192  0.3205  0.8734
   26MOL    H7622626   3.111   1.829   3.600  1.4443  0.7100  1.2403
   26MOL    H7722627   3.278   1.760   3.757  0.0957  1.0248 -0.1815
   26MOL    H7822628   2.973   1.729   4.070  4.4284 -1.5845  1.1610
   26MOL    H7922629   2.801   1.805   3.896  0.0861  0.0522  0.1511
   26MOL    H8022630   3.514   1.561   4.049  1.2731 -1.5965  0.2158
   26MOL    H8122631   3.591   1.319   3.970 -0.8275 -0.9037  0.2808
   26MOL    H8222632   3.181   1.211   3.931  0.3227  0.0363  1.1596
   26MOL    H8322633   3.113   1.453   3.988  0.7114 -0.0216  0.7570
   26MOL    H8422634   3.286   1.121   4.161 -1.7200  0.1273 -1.2524
   26MOL    H8522635   3.195   0.910   4.274  0.8856  1.4699  0.8264
   26MOL    H8622636   3.407   0.683   3.965 -0.2603 -0.6163  0.4388
   26MOL    H8722637   3.465   0.893   3.858  0.0359  0.8827 -0.0944
   26MOL    H8822638   3.049   0.752   4.260  0.5239 -1.1567 -1.6493
   26MOL    H8922639   2.965   0.530   4.372  0.9652  1.4436  1.1186
   26MOL    H9022640   3.323   0.340   4.239  1.2926  0.8196  0.9222
   26MOL    H9122641   3.401   0.538   4.141 -0.0266  0.8319  0.5642
   26MOL    C9222642   2.993   0.251   4.274  0.3807 -0.2167 -0.1852
   26MOL    C9322643   3.033   0.175   4.165 -0.1883 -0.0484  0.6215
   26MOL    C9422644   2.938   0.107   4.084 -0.6825 -0.1974 -0.3728
   26MOL    C9522645   2.807   0.120   4.115 -0.0965 -0.1440 -0.4513
   26MOL    C9622646   2.763   0.187   4.228  0.4403 -0.3952 -0.1177
   26MOL    C9722647   2.859   0.255   4.309  0.3667 -0.1478 -0.2171
   26MOL    S9822648   2.693   0.055   3.993 -0.3961 -0.3104 -0.3274
   26MOL    O9922649   2.721   0.128   3.867 -0.3641 -0.4766  0.0558
   26MOL   O10022650   2.563   0.042   4.061 -0.7648 -0.3373 -0.1519
   26MOL   C10122651   2.751   8.259   3.961 -0.1306  0.6664 -1.0380
   26MOL   C10222652   2.707   8.150   4.040 -0.1356  0.1047 -0.2348
   26MOL   C10322653   2.752   8.016   4.017  0.0193  0.4207 -0.2441
   26MOL   C10422654   2.846   8.001   3.913  0.1789  0.7725 -0.2134
   26MOL   C10522655   2.890   8.110   3.834  0.6483  0.0721 -0.5507
   26MOL   C10622656   2.839   8.239   3.856  0.4198  0.2907 -0.2817
   26MOL   O10722657   2.920   7.883   3.895 -0.4932 -0.0947 -0.0711
   26MOL   C10822658   2.896   7.802   3.789 -0.1659 -0.1406  0.3094
   26MOL   C10922659   2.837   7.681   3.814 -0.0401  0.3342  0.7515
   26MOL   C11022660   2.806   7.593   3.714  0.2254  0.4744  0.1435
   26MOL   C11122661   2.823   7.630   3.581  0.6712  0.8092 -0.0692
   26MOL   C11222662   2.868   7.761   3.554 -0.1607 -0.4357 -0.1127
   26MOL   C11322663   2.913   7.845   3.660 -0.2319  0.3110  0.1453
   26MOL   C11422664   2.785   7.533   3.472 -0.0091  0.5238 -0.1046
   26MOL   C11522665   2.743   7.564   3.340  0.3283  0.0752  0.4375
   26MOL   C11622666   2.714   7.467   3.237  0.1342 -0.1773  0.9416
   26MOL   C11722667   2.740   7.331   3.269 -0.0954 -0.6583  0.4807
   26MOL   C11822668   2.794   7.303   3.399 -0.0115 -0.4913 -0.2317
   26MOL   C11922669   2.806   7.400   3.501  0.0726  0.2241  0.4161
   26MOL   O12022670   2.721   7.227   3.180 -1.0308  1.0039 -0.8405
   26MOL   H12122671   3.140   0.176   4.158 -0.3724  1.6147 -2.6105
   26MOL   H12222672   2.970   0.073   3.987  0.9582 -0.3046  0.1923
   26MOL   H12322673   2.660   0.181   4.259  0.1851 -2.1416 -1.2132
   26MOL   H12422674   2.840   0.301   4.404  0.6955 -1.2995  0.4145
   26MOL   H12522675   2.625   8.169   4.108  1.0602  0.1046  1.2375
   26MOL   H12622676   2.712   7.931   4.070  1.2850 -0.3817 -0.5607
   26MOL   H12722677   2.970   8.099   3.762  2.9342  3.8132  1.2380
   26MOL   H12822678   2.877   8.326   3.803 -0.6310  1.0068  0.1361
   26MOL   H12922679   2.808   7.652   3.914  1.3369  2.0104  1.6672
   26MOL   H13022680   2.769   7.496   3.741 -3.3169  1.1076 -2.1077
   26MOL   H13122681   2.875   7.795   3.452 -0.4616 -1.1726 -0.3844
   26MOL   H13222682   2.954   7.942   3.636  0.2610  0.1730  0.4236
   26MOL   H13322683   2.733   7.669   3.318 -0.0524 -0.0262  0.1313
   26MOL   H13422684   2.686   7.489   3.135  0.5715 -1.6535  0.4897
   26MOL   H13522685   2.813   7.200   3.425 -0.7966 -1.0735 -1.8974
   26MOL   H13622686   2.839   7.359   3.596 -0.2459  0.4477  0.6257
   26MOL   C13722687   2.763   7.237   3.050  0.8020 -0.2853  0.1150
   26MOL   C13822688   2.896   7.282   3.026 -0.1989  0.4998 -0.1339
   26MOL   C13922689   2.947   7.281   2.896 -0.3185  0.5077 -0.2997
   26MOL   C14022690   2.859   7.257   2.791  0.1021 -0.4966 -0.5320
   26MOL   C14122691   2.731   7.202   2.813 -0.0064  0.0750  0.1038
   26MOL   C14222692   2.684   7.191   2.945  0.3587 -0.5279  0.5768
   26MOL   S14322693   2.904   7.287   2.625 -0.1577  0.3034  0.2025
   26MOL   O14422694   2.831   7.204   2.535  0.1292  0.6521  0.0482
   26MOL   O14522695   3.057   7.289   2.616  1.0510  0.2617  0.2325
   26MOL   C14622696   2.842   7.457   2.601  0.4178 -0.1897  0.2570
   26MOL   C14722697   2.895   7.560   2.681  0.7835 -0.0173  0.2109
   26MOL   C14822698   2.863   7.694   2.660  0.1209 -1.0012 -0.7045
   26MOL   C14922699   2.763   7.726   2.558  0.0605 -0.4825 -0.4182
   26MOL   C15022700   2.704   7.618   2.489 -0.1719 -0.1346 -0.1002
   26MOL   C15122701   2.741   7.483   2.502  0.7980  0.6732  0.0957
   26MOL   O15222702   2.716   7.855   2.542  0.4193  0.3783  0.0986
   26MOL   C15322703   2.807   7.957   2.512  0.3247  0.2014 -0.3810
   26MOL   C15422704   2.829   7.980   2.374 -0.2290  0.4734  0.4951
   26MOL   C15522705   2.926   8.079   2.334  0.0357 -0.5164  0.8232
   26MOL   C15622706   2.987   8.159   2.433  0.7654  0.0488  0.0700
   26MOL   C15722707   2.958   8.144   2.571 -0.0535  0.0861  1.0192
   26MOL   C15822708   2.869   8.041   2.608 -0.2491 -0.0017  0.5935
   26MOL   C15922709   3.067   8.268   2.387 -0.0135  0.8200 -0.7109
   26MOL   C16022710   3.054   0.033   2.431  0.3847 -0.3178  0.5532
   26MOL   C16122711   3.119   0.144   2.370  0.1220 -0.0728 -0.9529
   26MOL   C16222712   3.220   0.121   2.272  0.5414 -0.6973 -0.1813
   26MOL   C16322713   3.238   8.357   2.222  0.2189  0.3050 -0.0619
   26MOL   C16422714   3.160   8.249   2.278  0.1506 -0.4563  0.4082
   26MOL   O16522715   3.293   0.219   2.214 -0.3759  0.2548  0.0128
   26MOL   H16622716   2.959   7.316   3.107  1.5245  1.0520 -1.6643
   26MOL   H16722717   3.043   7.321   2.865  0.0840 -0.4727 -0.3215
   26MOL   H16822718   2.663   7.190   2.730 -1.1692  2.4840  0.6704
   26MOL   H16922719   2.581   7.159   2.952  0.4512 -1.2976 -1.2793
   26MOL   H17022720   2.970   7.536   2.754 -0.8172 -1.9004  1.2937
   26MOL   H17122721   2.908   7.769   2.724  0.0136 -2.3887  1.0485
   26MOL   H17222722   2.627   7.626   2.414 -2.7436  0.9736  2.5616
   26MOL   H17322723   2.699   7.418   2.427 -0.0661  0.8522  0.4140
   26MOL   H17422724   2.776   7.931   2.294  1.3824 -2.4320  1.1342
   26MOL   H17522725   2.947   8.091   2.228  1.1671  0.2529  1.1191
   26MOL   H17622726   2.992   8.208   2.651 -1.6976  0.7636  1.1919
   26MOL   H17722727   2.828   8.029   2.708  1.6936  1.2121  1.5717
   26MOL   H17822728   2.990   0.058   2.514 -0.0736 -2.5666  0.9124
   26MOL   H17922729   3.092   0.244   2.399 -0.7332 -0.6713  0.3624
   26MOL   H18022730   3.318   8.344   2.151  0.5942 -5.1267  1.1761
   26MOL   H18122731   3.174   8.149   2.239 -1.8902 -0.2531 -0.9632
   26MOL   C18222732   3.388   0.282   2.290 -0.1336 -0.2054 -0.1990
   26MOL   C18322733   3.464   0.383   2.221  0.4057 -0.2586 -0.8550
   26MOL   C18422734   3.573   0.440   2.290 -0.1480  0.2354  0.1110
   26MOL   C18522735   3.596   0.403   2.424  0.5328 -0.0944 -0.2638
   26MOL   C18622736   3.510   0.320   2.495 -0.4448  0.2186 -0.0973
   26MOL   C18722737   3.409   0.254   2.429  0.6748  0.0491 -0.3606
   26MOL   S18822738   3.715   0.489   2.523 -0.2484 -0.2278  0.3235
   26MOL   O18922739   3.634   0.537   2.637  0.3394 -0.3156  0.3518
   26MOL   O19022740   3.781   0.585   2.429  0.2387 -0.1034  0.1507
   26MOL   C19122741   3.833   0.378   2.590 -0.0464 -0.6864  0.3932
   26MOL   C19222742   3.815   0.326   2.722 -0.5346  0.0929 -0.5588
   26MOL   C19322743   3.908   0.229   2.762  1.0538 -1.0194  0.6645
   26MOL   C19422744   4.020   0.193   2.681  0.1752 -0.5922 -0.4868
   26MOL   C19522745   4.030   0.253   2.552 -0.5788  0.4432  0.1344
   26MOL   C19622746   3.936   0.338   2.501 -0.0789 -0.7982 -0.1784
   26MOL   O19722747   4.110   0.093   2.724  0.3903  0.3356 -0.7482
   26MOL   C19822748   4.141   0.105   2.859 -0.2540 -0.2194  0.4102
   26MOL   C19922749   4.108   8.362   2.945  0.0513  0.4392 -0.1572
   26MOL   C20022750   4.123   0.023   3.083  0.3396  0.4943  0.4924
   26MOL   C20122751   4.195   0.137   3.129  0.1856  1.0469 -0.8188
   26MOL   C20222752   4.252   0.219   3.032  0.4828 -0.3486 -0.5161
   26MOL   C20322753   4.218   0.212   2.897 -0.7655 -0.3940  0.5237
   26MOL   C20422754   4.221   0.145   3.273  0.7944  1.2405  0.2918
   26MOL   C20522755   4.112   0.142   3.366  0.0018  0.6321  0.6292
   26MOL   C20622756   4.138   0.133   3.503 -0.1276  0.7337  0.5848
   26MOL   C20722757   4.265   0.110   3.553  0.2439 -0.1381  0.2342
   26MOL   C20822758   4.373   0.107   3.452 -0.0534  0.2059  0.3661
   26MOL   C20922759   4.352   0.124   3.314 -0.8936  0.3313 -0.0532
   26MOL   O21022760   4.285   0.114   3.692  0.0504 -0.1066 -0.5114
   26MOL   H21122761   3.428   0.405   2.122 -1.8034 -1.1678 -0.2878
   26MOL   H21222762   3.644   0.509   2.248  1.6353 -0.6293  1.6004
   26MOL   H21322763   3.535   0.292   2.596 -2.9606 -1.9739 -0.0019
   26MOL   H21422764   3.359   0.175   2.484  0.8075 -0.3054 -0.7477
   26MOL   H21522765   3.737   0.350   2.792 -2.2319 -0.8391 -2.0988
   26MOL   H21622766   3.904   0.192   2.864  0.7791  0.6327  1.2692
   26MOL   H21722767   4.114   0.237   2.486 -0.5500 -0.3947  0.3688
   26MOL   H21822768   3.954   0.366   2.398  0.7194 -0.3045  0.0926
   26MOL   H21922769   4.054   8.277   2.906  0.3872  0.1438  0.0239
   26MOL   H22022770   4.074   8.333   3.160  1.4856 -1.3611 -0.0950
   26MOL   H22122771   4.311   0.303   3.066 -1.5674 -0.0634  2.5344
   26MOL   H22222772   4.252   0.283   2.823 -0.5873  0.8809  1.8109
   26MOL   H22322773   4.012   0.160   3.330  0.4460  1.5983 -0.1572
   26MOL   H22422774   4.057   0.146   3.573 -0.5606  1.2863 -0.0127
   26MOL   H22522775   4.474   0.092   3.488 -0.2312  1.5915  1.4851
   26MOL   H22622776   4.433   0.113   3.243  0.4849 -0.1870  1.5404
   26MOL   C22722777   4.330   8.365   3.758 -0.7227 -0.5891 -0.3854
   26MOL   C22822778   4.439   0.009   3.847  0.1878 -0.0630 -0.0689
   26MOL   C22922779   4.493   8.264   3.911  0.5038 -0.3460  0.6365
   26MOL   C23022780   4.433   8.142   3.891 -0.0406  0.8648  0.5145
   26MOL   C23122781   4.319   8.128   3.808 -0.7752 -0.0136  0.4008
   26MOL   C23222782   4.270   8.239   3.736 -0.1464  0.5304  0.0025
   26MOL   S23322783   4.496   8.007   3.995 -0.4286  0.3921  0.9151
   26MOL   O23422784   4.386   7.906   3.997  0.3058  0.0831  0.0118
   26MOL   O23522785   4.539   8.068   4.120 -0.3196  0.3871 -0.5179
   26MOL   C23622786   4.640   7.930   3.918  0.2555 -1.0061 -0.3369
   26MOL   C23722787   4.690   7.821   3.988 -0.2233  0.3044 -0.4334
   26MOL   C23822788   4.806   7.765   3.941 -0.3206 -0.5599  0.4951
   26MOL   C23922789   4.878   7.815   3.831  1.2170  0.5904 -0.0968
   26MOL   C24022790   4.829   7.926   3.764  0.1336  0.3453 -0.3471
   26MOL   C24122791   4.707   7.985   3.802 -0.1248 -0.2926  0.2059
   26MOL   O24222792   4.996   7.761   3.797 -0.6460 -0.0049  0.0027
   26MOL   C24322793   5.015   7.677   3.690 -0.3586  0.2438 -0.0932
   26MOL   C24422794   5.140   7.664   3.628  0.2455 -0.1449  0.0254
   26MOL   C24522795   5.157   7.606   3.507 -0.0529  0.1197  0.0355
   26MOL   C24622796   5.049   7.539   3.450  0.7278 -0.3478  0.1121
   26MOL   C24722797   4.926   7.531   3.519  0.2046 -0.3158 -1.6303
   26MOL   C24822798   4.910   7.606   3.638 -0.1899 -0.0032  0.5729
   26MOL   C24922799   5.052   7.471   3.318  0.3504 -0.1311  0.8078
   26MOL   C25022800   5.171   7.410   3.273 -0.0506  0.3136 -0.5083
   26MOL   C25122801   5.182   7.363   3.141 -0.2526 -0.5544 -0.0108
   26MOL   C25222802   5.070   7.364   3.054 -0.3749 -1.0623 -0.0231
   26MOL   C25322803   4.948   7.418   3.101 -0.1583  0.4420 -0.0830
   26MOL   C25422804   4.944   7.467   3.231  0.4807  0.0117  0.2937
   26MOL   O25522805   5.071   7.311   2.929 -0.1832 -0.1800 -0.0328
   26MOL   H25622806   4.476   0.110   3.859  1.4997 -0.4894 -0.5290
   26MOL   H25722807   4.580   8.267   3.975  0.6517 -1.1745  0.4876
   26MOL   H25822808   4.294   8.025   3.786 -1.4344 -0.0398  1.2564
   26MOL   H25922809   4.199   8.219   3.657  0.5678 -2.4634  0.0236
   26MOL   H26022810   4.642   7.775   4.073  2.5687 -2.1681 -0.1186
   26MOL   H26122811   4.844   7.677   3.991  0.7094  0.4309  1.4487
   26MOL   H26222812   4.889   7.967   3.684  0.6488 -0.6816 -0.4967
   26MOL   H26322813   4.664   8.077   3.767 -0.2245 -0.0430  0.9579
   26MOL   H26422814   5.226   7.717   3.666  1.0518  0.8211 -2.9742
   26MOL   H26522815   5.257   7.598   3.464  0.2814 -0.1884  0.8739
   26MOL   H26622816   4.838   7.480   3.484 -0.0796 -1.2213  0.3729
   26MOL   H26722817   4.819   7.613   3.696 -1.2762 -2.4823 -0.7494
   26MOL   H26822818   5.259   7.419   3.335 -0.5965  0.8860  0.1865
   26MOL   H26922819   5.280   7.341   3.101 -0.2209  1.0798 -0.8596
   26MOL   H27022820   4.863   7.425   3.035 -0.3258  1.2294  0.2132
   26MOL   H27122821   4.849   7.512   3.258  2.2269  4.2636 -0.2281
   26MOL   C27222822   5.128   7.190   2.909 -0.5418  0.2069  0.0383
   26MOL   C27322823   5.262   7.173   2.855  0.8544 -0.7187 -0.1085
   26MOL   C27422824   5.320   7.043   2.846 -0.1055  0.3222  1.2348
   26MOL   C27522825   5.245   6.932   2.873 -0.0493  0.2957 -0.3993
   26MOL   C27622826   5.113   6.949   2.924  1.2429 -0.8517  0.5741
   26MOL   C27722827   5.054   7.079   2.931  0.4725 -0.1668 -0.7006
   26MOL   S27822828   5.316   6.767   2.837  0.1097  0.1520 -0.2149
   26MOL   O27922829   5.325   6.697   2.967 -0.2232 -0.3891  0.1308
   26MOL   O28022830   5.434   6.777   2.752  0.0583  0.1050  0.0396
   26MOL   C28122831   5.196   6.678   2.745  0.0453 -0.7703 -0.2802
   26MOL   C28222832   5.186   6.535   2.753  0.3213  0.7277  0.3567
   26MOL   C28322833   5.094   6.456   2.671 -0.1717  0.3105 -0.2728
   26MOL   C28422834   4.998   6.528   2.606  0.2477  0.1809 -0.8921
   26MOL   C28522835   4.993   6.671   2.613 -0.0648 -0.4689  0.2889
   26MOL   C28622836   5.102   6.741   2.660 -0.4278  0.0394 -0.0343
   26MOL   O28722837   4.899   6.475   2.528  0.3741 -0.1080  0.2747
   26MOL   C28822838   4.845   6.350   2.553 -0.9340 -0.1458 -0.4650
   26MOL   C28922839   4.802   6.321   2.688  0.1135 -0.2565  0.6566
   26MOL   C29022840   4.749   6.194   2.719  0.5723 -0.4855 -0.0472
   26MOL   C29122841   4.745   6.094   2.625  0.6692  0.2443  0.0009
   26MOL   C29222842   4.785   6.121   2.496 -0.1344 -0.0210  0.6914
   26MOL   C29322843   4.832   6.250   2.458  0.0648 -0.0372  0.2072
   26MOL   C29422844   4.713   5.966   2.666 -0.2074 -0.3620  1.3539
   26MOL   C29522845   4.611   5.893   2.596 -0.0718  0.8649 -0.5388
   26MOL   C29622846   4.591   5.757   2.612 -0.4292 -0.4338 -0.3491
   26MOL   C29722847   4.683   5.688   2.692  0.2923 -0.4935  0.1258
   26MOL   C29822848   4.778   5.757   2.768 -0.6528  0.6717  0.4432
   26MOL   C29922849   4.802   5.890   2.746 -0.4149 -0.4932 -0.2884
   26MOL   O30022850   4.688   5.554   2.692  0.6770  0.4565 -0.3424
   26MOL   H30122851   5.317   7.259   2.820 -1.1289  1.2060  1.3913
   26MOL   H30222852   5.420   7.035   2.807 -1.3412  2.8348 -2.7505
   26MOL   H30322853   5.056   6.860   2.946  2.2826 -1.3928  1.0890
   26MOL   H30422854   4.960   7.098   2.983  0.1783 -0.9113 -0.9573
   26MOL   H30522855   5.266   6.493   2.813  1.1067 -1.1076 -1.9153
   26MOL   H30622856   5.113   6.351   2.660  1.5518  0.5798 -0.0354
   26MOL   H30722857   4.918   6.730   2.564 -0.4801 -0.6782  0.6662
   26MOL   H30822858   5.109   6.848   2.644 -0.0487  0.2122  1.2572
   26MOL   H30922859   4.816   6.389   2.770 -2.2291 -0.2975  1.1114
   26MOL   H31022860   4.711   6.172   2.818  1.0997  0.1821  0.3045
   26MOL   H31122861   4.760   6.054   2.415 -0.2074  0.7231  0.1011
   26MOL   H31222862   4.872   6.289   2.366 -0.8980  1.0720  0.2502
   26MOL   H31322863   4.552   5.940   2.518  0.6314  0.0761 -1.5596
   26MOL   H31422864   4.511   5.706   2.559  0.7678 -0.3446 -2.2529
   26MOL   H31522865   4.849   5.693   2.817 -1.6616 -2.0823 -1.5695
   26MOL   H31622866   4.889   5.937   2.789 -1.6663  2.0974 -0.4929
   26MOL   C31722867   4.745   5.488   2.585  0.1110  0.6151 -0.1773
   26MOL   C31822868   4.666   5.419   2.493  0.4942  0.5500 -0.6602
   26MOL   C31922869   4.733   5.377   2.374 -0.4224 -0.5962 -0.3685
   26MOL   C32022870   4.874   5.379   2.372  0.3506  0.4884  0.5099
   26MOL   C32122871   4.954   5.442   2.469 -0.4662 -0.4332 -1.2225
   26MOL   C32222872   4.886   5.499   2.573  0.6168 -0.2092 -0.5809
   26MOL   S32322873   4.954   5.304   2.234 -0.2622  0.0173 -0.0499
   26MOL   O32422874   4.876   5.186   2.214 -0.2424 -0.0684 -0.2090
   26MOL   O32522875   5.096   5.306   2.271  0.1371 -0.2808 -0.2512
   26MOL   C32622876   4.927   5.425   2.107  0.5046  0.1030  0.1048
   26MOL   C32722877   4.855   5.400   1.988 -0.1703 -0.0436 -0.6908
   26MOL   C32822878   4.844   5.508   1.898  0.1215  0.5891  0.6349
   26MOL   C32922879   4.906   5.628   1.918 -0.0982  0.1551 -0.0963
   26MOL   C33022880   4.989   5.649   2.031  0.7390 -0.5346 -0.7365
   26MOL   C33122881   4.998   5.547   2.125  0.2185 -0.4817 -0.0392
   26MOL   O33222882   4.897   5.724   1.816 -0.2734  0.1357  0.5838
   26MOL   C33322883   4.839   5.846   1.846 -0.7885  0.1120 -0.4503
   26MOL   C33422884   4.699   5.860   1.863 -0.5987 -0.5995 -0.2375
   26MOL   C33522885   4.652   5.984   1.918  0.2368  0.0460  0.3126
   26MOL   C33622886   4.731   6.101   1.928 -0.2669  1.1719 -0.8865
   26MOL   C33722887   4.870   6.085   1.900 -0.6219 -0.2302  0.7312
   26MOL   C33822888   4.920   5.963   1.855  0.2693  0.0063  0.0282
   26MOL   C33922889   4.679   6.225   1.972 -0.2575 -0.1242 -0.3039
   26MOL   C34022890   4.711   6.274   2.098  0.0061  0.3134  0.9703
   26MOL   C34122891   4.643   6.379   2.162 -0.4378 -0.1818 -0.1016
   26MOL   C34222892   4.535   6.440   2.099  0.1842  0.5859  0.6379
   26MOL   C34322893   4.490   6.380   1.982  0.9564  0.9158  0.2285
   26MOL   C34422894   4.565   6.283   1.912  0.4216  0.2392  0.5366
   26MOL   O34522895   4.459   6.535   2.164  0.4311  0.0844 -0.6758
   26MOL   H34622896   4.558   5.418   2.491  0.4762 -1.2249  0.7978
   26MOL   H34722897   4.683   5.328   2.291 -0.3403 -0.2331 -0.6372
   26MOL   H34822898   5.061   5.447   2.454 -0.1122  0.3744  1.2923
   26MOL   H34922899   4.929   5.564   2.648  0.9295 -1.9966  0.8328
   26MOL   H35022900   4.815   5.302   1.969 -1.2810  0.1823  0.4467
   26MOL   H35122901   4.788   5.488   1.808  2.1196  2.5191 -1.0837
   26MOL   H35222902   5.042   5.742   2.042 -1.0185  0.4941 -0.6814
   26MOL   H35322903   5.057   5.557   2.214  0.3719 -0.4431 -0.1444
   26MOL   H35422904   4.631   5.777   1.850 -1.8191  0.5471 -1.3910
   26MOL   H35522905   4.553   5.995   1.959 -0.9637  1.0662 -2.7035
   26MOL   H35622906   4.945   6.162   1.895  0.9241 -1.6420  1.8468
   26MOL   H35722907   5.026   5.955   1.839  0.3982  1.8776 -0.1862
   26MOL   H35822908   4.791   6.220   2.146 -1.2022 -1.7644  0.7206
   26MOL   H35922909   4.678   6.412   2.259 -4.7001  2.2052  0.7243
   26MOL   H36022910   4.399   6.415   1.935  0.5246 -0.3078  0.1396
   26MOL   H36122911   4.528   6.260   1.813  1.8182 -1.0535  0.2958
   26MOL   C36222912   4.524   6.653   2.195 -0.2016 -0.0782  0.7218
   26MOL   C36322913   4.535   6.749   2.090  0.1705  0.5845  0.6190
   26MOL   C36422914   4.550   6.881   2.125 -0.3688  0.5385 -0.4847
   26MOL   C36522915   4.550   6.918   2.261 -0.1997 -0.4775  0.3670
   26MOL   C36622916   4.549   6.819   2.359 -0.5014  0.8281 -0.5123
   26MOL   C36722917   4.534   6.686   2.329  0.5826 -0.2375  0.4141
   26MOL   S36822918   4.572   7.094   2.298 -0.4558 -0.4340  0.0964
   26MOL   O36922919   4.534   7.172   2.177  0.4125 -0.8229 -0.1739
   26MOL   O37022920   4.705   7.108   2.359 -0.3188  0.2543 -0.0394
   26MOL   C37122921   4.453   7.144   2.424  0.3374 -0.9827  0.2704
   26MOL   C37222922   4.482   7.137   2.562 -0.4782 -0.2689  1.2381
   26MOL   C37322923   4.386   7.178   2.652 -0.2135 -0.5039  0.4361
   26MOL   C37422924   4.264   7.237   2.607 -0.1694 -1.0167 -0.3621
   26MOL   C37522925   4.232   7.239   2.470 -0.1160  0.4152 -0.4418
   26MOL   C37622926   4.328   7.194   2.376 -0.4740 -0.9191  0.0439
   26MOL   O37722927   4.168   7.278   2.700  0.4773 -0.5963  0.3688
   26MOL   C37822928   4.177   7.399   2.752 -0.3640  0.3542 -0.1887
   26MOL   C37922929   4.235   7.513   2.701 -0.5954 -0.0316 -0.0350
   26MOL   C38022930   4.228   7.629   2.772  0.7514  0.3252  0.3565
   26MOL   C38122931   4.175   7.636   2.903 -0.1056 -0.7529  0.6575
   26MOL   C38222932   4.107   7.519   2.949  0.2662 -0.4477  0.0558
   26MOL   C38322933   4.113   7.395   2.876  0.1463 -0.4139  0.0865
   26MOL   C38422934   4.198   7.761   2.988 -0.2335  0.2603 -0.8494
   26MOL   C38522935   4.201   7.889   2.934  0.7286 -0.3778  0.4460
   26MOL   C38622936   4.203   8.008   3.015 -0.0050  0.2082  0.2588
   26MOL   C38722937   4.208   7.990   3.154  0.2238  0.5610  0.1880
   26MOL   C38822938   4.223   7.860   3.210 -0.4985 -0.1558  0.2206
   26MOL   C38922939   4.216   7.746   3.128  0.3680 -0.5009  0.5873
   26MOL   O39022940   4.210   8.105   3.229 -0.5235 -0.7522 -0.1704
   26MOL   H39122941   4.520   6.716   1.988 -0.2983  0.2491  0.7932
   26MOL   H39222942   4.567   6.954   2.047 -0.9622 -1.3940 -2.4779
   26MOL   H39322943   4.561   6.845   2.464 -0.2007 -0.0551 -0.3263
   26MOL   H39422944   4.512   6.623   2.414  1.3630  0.0215  0.8058
   26MOL   H39522945   4.578   7.102   2.597  1.4819  2.5226 -1.1586
   26MOL   H39622946   4.406   7.153   2.755  2.2650  0.3607  0.1847
   26MOL   H39722947   4.132   7.269   2.442  0.1421  2.4042  0.6919
   26MOL   H39822948   4.305   7.204   2.271  0.2306  2.4419  0.1314
   26MOL   H39922949   4.288   7.507   2.607  0.6559  0.0750  0.6490
   26MOL   H40022950   4.291   7.707   2.732 -0.4764  0.7445 -0.8290
   26MOL   H40122951   4.048   7.527   3.039 -0.3113  0.4022 -0.3925
   26MOL   H40222952   4.071   7.309   2.925  0.5021  0.1286  1.3617
   26MOL   H40322953   4.204   7.902   2.826 -0.5663 -0.3237  0.4074
   26MOL   H40422954   4.210   8.103   2.963 -2.4929 -0.6591 -1.7730
   26MOL   H40522955   4.226   7.850   3.317  1.2188 -0.5757  0.1546
   26MOL   H40622956   4.226   7.647   3.170 -0.5632 -1.4450 -1.3718
   26MOL   C40722957   4.330   8.150   3.277 -0.4420 -0.3182  0.6580
   26MOL   C40822958   4.431   8.197   3.190 -0.2023  1.0441  0.1710
   26MOL   C40922959   4.563   8.214   3.240 -0.5435 -0.0636 -0.0608
   26MOL   C41022960   4.584   8.193   3.383 -0.3553 -0.0388  0.3967
   26MOL   C41122961   4.487   8.148   3.472 -0.2363  0.8839 -0.0064
   26MOL   C41222962   4.355   8.126   3.414  0.3122 -0.1083 -0.1692
   26MOL   S41322963   4.759   8.200   3.431 -0.1501  0.0813 -0.0142
   26MOL   O41422964   4.769   8.169   3.571 -0.1393  0.5333  0.4481
   26MOL   O41522965   4.811   8.330   3.378  0.6107 -0.2199  0.0560
   26MOL   C41622966   4.831   8.060   3.343  0.7958 -0.0843 -0.3927
   26MOL   C41722967   4.820   7.928   3.394 -1.0731 -0.2069 -0.4980
   26MOL   C41822968   4.874   7.816   3.324  0.6991 -0.0481 -1.0294
   26MOL   C41922969   4.959   7.845   3.217 -0.2198 -0.5369  0.5445
   26MOL   C42022970   4.968   7.976   3.168 -0.5629 -0.2732 -0.2229
   26MOL   C42122971   4.897   8.082   3.226 -0.1787 -0.0071 -0.1070
   26MOL   O42222972   5.028   7.739   3.158 -0.2851  0.3188  0.1606
   26MOL   C42322973   5.158   7.740   3.121  0.2773  0.0432 -0.8146
   26MOL   C42422974   5.190   7.663   3.006 -0.3872  1.0623 -0.9784
   26MOL   C42522975   5.325   7.641   2.969 -0.4958  0.2639  0.1301
   26MOL   C42622976   5.430   7.692   3.048 -0.8564 -0.9465  0.7010
   26MOL   C42722977   5.396   7.763   3.167 -0.4265 -0.1909 -0.1935
   26MOL   C42822978   5.265   7.781   3.207  0.1410 -0.1199  0.1906
   26MOL   C42922979   5.568   7.671   3.013  1.0885  0.0611  0.2372
   26MOL   C43022980   5.662   7.629   3.107 -0.1091  0.8974  0.2110
   26MOL   C43122981   5.789   7.590   3.057 -0.6506 -0.3965 -0.9931
   26MOL   C43222982   5.841   7.616   2.929  0.0888 -0.2176 -1.0706
   26MOL   C43322983   5.750   7.672   2.842 -0.4204 -0.1404  0.1043
   26MOL   C43422984   5.616   7.700   2.881 -0.3119  0.6828  0.0099
   26MOL   O43522985   5.973   7.583   2.900  0.0569  0.4065 -0.2528
   26MOL   H43622986   4.411   8.221   3.087  1.5953  2.0239  0.0246
   26MOL   H43722987   4.639   8.258   3.178 -0.3909  1.1918  0.9994
   26MOL   H43822988   4.513   8.122   3.573  1.6697  0.6271 -0.5458
   26MOL   H43922989   4.281   8.071   3.469  1.4455 -1.2156  0.2745
   26MOL   H44022990   4.770   7.910   3.488 -1.0035 -0.1163 -0.4437
   26MOL   H44122991   4.869   7.717   3.367 -1.7765  1.2527  1.8589
   26MOL   H44222992   5.037   7.993   3.087  0.6136 -0.3631  0.7642
   26MOL   H44322993   4.905   8.181   3.184  0.4753 -0.2486 -0.5627
   26MOL   H44422994   5.104   7.615   2.962 -1.8904  0.3331  2.5263
   26MOL   H44522995   5.347   7.580   2.883 -1.3767 -1.5129  1.1298
   26MOL   H44622996   5.473   7.788   3.238 -0.9898 -1.0806  0.7410
   26MOL   H44722997   5.239   7.820   3.305  0.4751  1.2142 -0.2475
   26MOL   H44822998   5.627   7.603   3.206  0.2196  5.4062  1.6464
   26MOL   H44922999   5.848   7.525   3.119 -1.0211  0.2191  0.0139
   26MOL   H45023000   5.762   7.672   2.735 -1.6506 -0.3290 -0.0413
   26MOL   H45123001   5.545   7.736   2.808  1.9270  0.2199 -2.4452
   26MOL   C45223002   6.050   7.688   2.885 -0.9675  0.3510  0.2273
   26MOL   C45323003   6.109   7.709   2.760 -0.3044 -0.3343 -0.5548
   26MOL   C45423004   6.185   7.826   2.739 -0.1256  0.1351 -0.3783
   26MOL   C45523005   6.204   7.926   2.838  0.1946  0.2719  0.4535
   26MOL   C45623006   6.146   7.897   2.965 -0.6520 -0.6310 -0.5326
   26MOL   C45723007   6.073   7.779   2.987  0.6419 -0.2900 -0.0365
   26MOL   S45823008   6.298   8.080   2.820 -0.3282  0.4357  0.1875
   26MOL   O45923009   6.407   8.055   2.727 -0.0222  0.3499  0.5892
   26MOL   O46023010   6.326   8.131   2.955  0.0890 -0.0964 -0.4503
   26MOL   C46123011   6.197   8.201   2.739  0.2347  0.0625 -0.5911
   26MOL   C46223012   6.081   8.240   2.815  0.0269 -0.2759 -1.2289
   26MOL   C46323013   6.000   8.336   2.760  0.3776  0.2578  0.1499
   26MOL   C46423014   6.029   0.030   2.636  0.5430  0.5024 -0.1111
   26MOL   C46523015   6.143   8.356   2.560  0.1641 -0.1537 -0.4825
   26MOL   C46623016   6.226   8.249   2.610 -0.0609 -0.0365  0.4233
   26MOL   O46723017   5.948   0.133   2.601 -0.6072 -0.1577  0.1823
   26MOL   C46823018   5.848   0.108   2.512  1.0800 -0.4475  0.3358
   26MOL   C46923019   5.853   0.178   2.386  0.3819  0.4372 -0.3625
   26MOL   C47023020   5.752   0.145   2.291  0.5911 -0.1975  0.2928
   26MOL   C47123021   5.637   0.070   2.320  0.5213  0.9715  0.3192
   26MOL   C47223022   5.625   0.017   2.454  0.7646  0.0089  0.0164
   26MOL   C47323023   5.737   0.031   2.542  0.6085 -0.1894 -0.7613
   26MOL   C47423024   5.527   0.038   2.220 -0.5038  0.2169  0.2407
   26MOL   C47523025   5.471   0.135   2.135 -0.4521 -0.8241  0.0594
   26MOL   C47623026   5.368   0.104   2.043 -0.0790  0.5982 -0.4065
   26MOL   C47723027   5.313   8.341   2.040 -0.0133  0.3689 -0.6074
   26MOL   C47823028   5.372   8.243   2.119 -0.2289 -0.5257 -0.6087
   26MOL   C47923029   5.480   8.272   2.204 -0.4125  0.0120  0.8347
   26MOL   O48023030   5.205   8.310   1.964 -0.6189 -0.3337 -0.1121
   26MOL   H48123031   6.094   7.641   2.677 -0.0174  1.4163 -2.0841
   26MOL   H48223032   6.215   7.849   2.637 -1.2710  1.2823 -0.4742
   26MOL   H48323033   6.147   7.967   3.047 -0.3484  1.5392 -2.3089
   26MOL   H48423034   6.028   7.771   3.085  0.9019 -0.5663  0.0601
   26MOL   H48523035   6.063   8.191   2.909 -2.3782 -0.7855 -1.9377
   26MOL   H48623036   5.917   0.001   2.822 -0.6092 -1.2600 -0.3700
   26MOL   H48723037   6.173   0.025   2.462  1.3080 -1.5185 -0.6365
   26MOL   H48823038   6.307   8.217   2.547 -1.2140 -0.9034 -0.6671
   26MOL   H48923039   5.933   0.247   2.361 -1.5832  3.1044  0.4677
   26MOL   H49023040   5.764   0.179   2.190  0.7599 -1.4566 -0.1193
   26MOL   H49123041   5.541   8.322   2.483 -0.7372  1.1324 -1.8717
   26MOL   H49223042   5.729   8.342   2.634 -0.7088 -1.7890 -1.7988
   26MOL   H49323043   5.517   0.233   2.137 -0.4559 -0.7759 -1.6058
   26MOL   H49423044   5.315   0.172   1.977 -1.6061 -0.5544 -0.4045
   26MOL   H49523045   5.329   8.145   2.131  1.3645 -1.0749  1.0153
   26MOL   H49623046   5.533   8.199   2.264 -1.2760 -1.0617  0.2983
   26MOL   C49723047   5.230   8.283   1.826  0.1183 -0.0611  0.0513
   26MOL   C49823048   5.118   8.251   1.749 -0.0936 -0.0922 -0.2802
   26MOL   C49923049   5.127   8.215   1.616 -0.4162  0.9883 -0.3330
   26MOL   C50023050   5.256   8.215   1.555  0.5324 -0.2157  0.9389
   26MOL   C50123051   5.371   8.255   1.630  0.1067  1.1318  0.5228
   26MOL   C50223052   5.360   8.300   1.769  0.7616 -0.5393  0.4273
   26MOL   S50323053   5.270   8.153   1.387 -0.2312 -0.0257 -0.1166
   26MOL   O50423054   5.413   8.160   1.349 -0.0252 -0.3547 -0.3355
   26MOL   O50523055   5.165   8.220   1.311  0.1111 -0.2603  0.0428
   26MOL   C50623056   5.225   7.980   1.404  0.3999  1.0588  0.6972
   26MOL   C50723057   5.280   7.897   1.509  0.4609  0.4622  0.3284
   26MOL   C50823058   5.240   7.762   1.512 -0.6583  0.5685  0.6901
   26MOL   C50923059   5.126   7.716   1.436  0.2280 -0.1364  0.0316
   26MOL   C51023060   5.073   7.796   1.340 -0.0347 -0.0714  0.9526
   26MOL   C51123061   5.124   7.928   1.320 -0.6286 -0.0996 -0.0136
   26MOL   O51223062   5.080   7.587   1.459 -0.5821  0.1657  0.1188
   26MOL   C51323063   5.165   7.492   1.407 -0.7248  0.7174 -0.5984
   26MOL   C51423064   5.268   7.433   1.490  0.3716 -0.1051 -0.2767
   26MOL   C51523065   5.363   7.341   1.435  0.3094  0.7648  0.0308
   26MOL   C51623066   5.351   7.287   1.307 -0.1804 -0.1578 -0.6890
   26MOL   C51723067   5.251   7.351   1.227 -1.1149 -0.2973  0.1783
   26MOL   C51823068   5.155   7.445   1.272  0.0230 -1.0321  0.2508
   26MOL   C51923069   5.447   7.179   1.257  0.3985 -1.3303 -0.0605
   26MOL   C52023070   5.556   7.137   1.331 -0.5104  0.2540  0.2441
   26MOL   C52123071   5.644   7.038   1.285  0.8282 -0.2034  0.4183
   26MOL   C52223072   5.622   6.972   1.163 -0.3284 -1.0745 -0.4216
   26MOL   C52323073   5.514   7.023   1.078  0.0292 -0.3419 -0.3609
   26MOL   C52423074   5.426   7.120   1.126 -0.5163 -0.1903 -0.6607
   26MOL   O52523075   5.712   6.873   1.124  0.0687  0.2710  0.2185
   26MOL   H52623076   5.022   8.254   1.799 -0.0068 -0.3966 -0.0991
   26MOL   H52723077   5.038   8.193   1.560  0.0090  1.5769 -1.2665
   26MOL   H52823078   5.462   8.263   1.573 -1.4680 -3.4218 -2.9645
   26MOL   H52923079   5.448   8.332   1.822  0.4130  2.1771 -0.5585
   26MOL   H53023080   5.361   7.935   1.571  1.6948 -1.2308 -0.2038
   26MOL   H53123081   5.283   7.689   1.579  0.2633  1.0443  0.6142
   26MOL   H53223082   4.999   7.754   1.274  1.6512 -2.2579  0.4081
   26MOL   H53323083   5.089   7.985   1.235 -0.8925  0.7902  0.6797
   26MOL   H53423084   5.274   7.474   1.590  0.0881 -1.2173  0.1990
   26MOL   H53523085   5.442   7.308   1.500  0.2083  3.0893  1.3740
   26MOL   H53623086   5.245   7.312   1.127  0.2905 -0.5196  0.1734
   26MOL   H53723087   5.088   7.491   1.201  0.7001 -0.6185 -0.1305
   26MOL   H53823088   5.583   7.180   1.427  1.1728  2.3104 -1.1024
   26MOL   H53923089   5.728   7.011   1.346  2.5261  1.2129 -1.2270
   26MOL   H54023090   5.494   6.995   0.976 -0.9011 -0.1189 -0.2474
   26MOL   H54123091   5.342   7.153   1.066 -1.7063 -1.1359  0.4750
   26MOL   C54223092   5.658   6.754   1.076 -0.5953  0.0496 -0.2623
   26MOL   C54323093   5.556   6.681   1.148  0.3450  0.4684 -0.2864
   26MOL   C54423094   5.515   6.553   1.103 -0.6227 -0.4253 -0.2406
   26MOL   C54523095   5.565   6.498   0.979 -0.1789 -0.8748  0.1915
   26MOL   C54623096   5.655   6.574   0.895 -0.8151  0.6931 -0.5930
   26MOL   C54723097   5.699   6.700   0.951  0.1489  0.8977  0.5094
   26MOL   S54823098   5.539   6.325   0.926  0.4179 -0.1440  0.0199
   26MOL   O54923099   5.497   6.319   0.786  0.2910  0.4427 -0.0160
   26MOL   O55023100   5.450   6.261   1.024  0.2842 -0.5179  0.5037
   26MOL   C55123101   5.696   6.245   0.937 -0.7238 -0.2839 -0.6853
   26MOL   C55223102   5.743   6.166   0.832  0.0424 -0.4727 -0.3160
   26MOL   C55323103   5.860   6.093   0.847  0.0380 -0.3136 -0.3226
   26MOL   C55423104   5.946   6.115   0.960  0.0020  0.5195 -0.4783
   26MOL   C55523105   5.904   6.206   1.062 -0.4839 -0.7631 -0.5509
   26MOL   C55623106   5.775   6.266   1.054 -0.3286  0.1496 -0.8301
   26MOL   O55723107   6.069   6.043   0.954  0.0742  0.2327 -0.2729
   26MOL   C55823108   6.163   6.072   1.048 -0.2894 -0.5163  0.4462
   26MOL   C55923109   6.222   6.201   1.056  0.1853  0.2957  1.1674
   26MOL   C56023110   6.307   6.221   1.166  0.2433  0.2157 -0.0327
   26MOL   C56123111   6.349   6.123   1.261 -0.3826 -0.0036 -0.5529
   26MOL   C56223112   6.294   5.994   1.242  0.3609  0.1472  0.5409
   26MOL   C56323113   6.199   5.970   1.139  0.5509  0.2608 -0.0649
   26MOL   C56423114   6.428   6.150   1.383  0.6321 -0.2324 -0.7094
   26MOL   C56523115   6.429   6.278   1.449  0.1708 -0.7779 -0.2485
   26MOL   C56623116   6.499   6.292   1.577  0.0404  0.7021 -0.5207
   26MOL   C56723117   6.564   6.180   1.635  0.2858 -0.2690 -0.4772
   26MOL   C56823118   6.567   6.061   1.561  0.5655 -0.6638 -0.0099
   26MOL   C56923119   6.503   6.053   1.442 -1.0708  0.1345  0.5649
   26MOL   O57023120   6.650   6.191   1.740  0.5783 -0.0678 -0.4526
   26MOL   H57123121   5.519   6.709   1.245  0.4698  1.2279 -0.4538
   26MOL   H57223122   5.465   6.483   1.167  0.3511  0.5250  1.5827
   26MOL   H57323123   5.679   6.545   0.794  0.1978  0.3839 -0.2680
   26MOL   H57423124   5.752   6.773   0.891  3.0427 -1.2194  0.3987
   26MOL   H57523125   5.679   6.146   0.748  0.2471  0.1174 -0.6208
   26MOL   H57623126   5.884   6.027   0.765  0.3224 -0.9584  0.2866
   26MOL   H57723127   5.976   6.219   1.141 -0.4538 -0.2432 -0.6595
   26MOL   H57823128   5.744   6.335   1.131  3.8472  0.7134  0.4980
   26MOL   H57923129   6.195   6.282   0.991 -1.1122 -0.9875  0.0640
   26MOL   H58023130   6.352   6.319   1.172 -1.2679  0.9152  0.0405
   26MOL   H58123131   6.321   5.918   1.315 -0.3879 -0.9798 -0.3416
   26MOL   H58223132   6.146   5.878   1.122 -2.2566  1.5531  1.3166
   26MOL   H58323133   6.363   6.356   1.415 -1.0897 -0.5491  2.5092
   26MOL   H58423134   6.493   6.384   1.633 -0.3159  0.4476 -0.1382
   26MOL   H58523135   6.619   5.971   1.590 -0.0631 -2.3347 -3.7392
   26MOL   H58623136   6.511   5.959   1.389 -0.3401  1.1273 -1.1122
   26MOL   C58723137   6.611   6.261   1.857 -0.3480 -0.0960 -0.0412
   26MOL   C58823138   6.477   6.262   1.909 -0.5264  0.7823 -0.3347
   26MOL   C58923139   6.452   6.355   2.012 -0.4325 -0.1534  0.3229
   26MOL   C59023140   6.547   6.436   2.075 -0.4021  0.2923  1.0020
   26MOL   C59123141   6.681   6.421   2.031 -0.0552 -0.7104 -0.0918
   26MOL   C59223142   6.709   6.332   1.925 -0.3230 -0.1262 -0.3320
   26MOL   S59323143   6.514   6.555   2.205  0.2451  0.2631  0.2325
   26MOL   O59423144   6.647   6.592   2.258  0.3851 -0.0624 -0.3601
   26MOL   O59523145   6.403   6.492   2.282 -0.3675  0.3937  0.4563
   26MOL   C59623146   6.448   6.700   2.121  0.0044 -0.0852  0.0494
   26MOL   C59723147   6.358   6.687   2.014 -0.0074 -0.2287 -0.4946
   26MOL   C59823148   6.313   6.800   1.942  0.3997 -0.1214  0.1150
   26MOL   C59923149   6.345   6.932   1.985 -0.2913 -0.2798 -0.5850
   26MOL   C60023150   6.428   6.952   2.096 -0.3513  0.4464  0.5820
   26MOL   C60123151   6.480   6.839   2.161 -0.1265  0.8201 -0.3814
   26MOL   O60223152   6.299   7.035   1.910 -0.2610  0.2009  0.0494
   26MOL   C60323153   6.270   7.158   1.975 -0.4977  0.3946  0.0106
   26MOL   C60423154   6.341   7.268   1.931 -0.1225  0.2212 -0.5366
   26MOL   C60523155   6.313   7.391   1.988  0.1735  0.0891 -0.0849
   26MOL   C60623156   6.214   7.400   2.091  0.6315  0.0215 -0.1865
   26MOL   C60723157   6.148   7.288   2.140 -0.5596 -0.5208 -0.1001
   26MOL   C60823158   6.171   7.165   2.077 -0.3423 -0.3106  0.2350
   26MOL   C60923159   6.193   7.528   2.150 -0.6076 -0.4795  0.0915
   26MOL   C61023160   6.160   7.555   2.285  0.2975 -0.0294 -0.3954
   26MOL   C61123161   6.152   7.686   2.332 -0.2857  0.2107 -0.3173
   26MOL   C61223162   6.155   7.801   2.251  0.3122 -0.2707 -0.3808
   26MOL   C61323163   6.180   7.776   2.111 -0.0740 -0.0450 -0.3408
   26MOL   C61423164   6.202   7.647   2.067  0.3481 -0.0265  0.5356
   26MOL   O61523165   6.145   7.920   2.316 -0.2537  0.4230  0.2580
   26MOL   H61623166   6.400   6.197   1.871 -1.8143  0.9907  1.8971
   26MOL   H61723167   6.348   6.351   2.044 -0.4343 -0.2554  0.3042
   26MOL   H61823168   6.755   6.484   2.078 -0.0305  0.5675 -1.7617
   26MOL   H61923169   6.810   6.331   1.885  0.5912 -0.3629  1.8752
   26MOL   H62023170   6.324   6.592   1.976  1.3186 -1.0083  0.2384
   26MOL   H62123171   6.259   6.800   1.848  0.6059  0.0793 -0.0044
   26MOL   H62223172   6.457   7.053   2.122 -1.5200  0.6657  1.0363
   26MOL   H62323173   6.540   6.851   2.250 -0.1543  0.3073 -0.2910
   26MOL   H62423174   6.424   7.256   1.863 -1.7945  1.4345 -2.9216
   26MOL   H62523175   6.367   7.479   1.955 -1.9756  0.3511 -3.1565
   26MOL   H62623176   6.074   7.290   2.219  0.0676 -1.8231  0.5468
   26MOL   H62723177   6.121   7.077   2.111 -1.1775  0.5398  1.2330
   26MOL   H62823178   6.148   7.472   2.353 -4.4866  0.3133 -0.6547
   26MOL   H62923179   6.152   7.690   2.440  0.3099  0.4112 -0.3257
   26MOL   H63023180   6.202   7.858   2.044 -1.0148  0.8607  0.4502
   26MOL   H63123181   6.215   7.628   1.962 -0.2189  2.5006 -0.0122
   26MOL   C63223182   6.262   7.992   2.322  0.8735 -0.0865 -0.3074
   26MOL   C63323183   6.372   7.941   2.396  0.5828 -0.3998  0.5503
   26MOL   C63423184   6.500   8.000   2.395  1.0540  0.1625 -0.1786
   26MOL   C63523185   6.516   8.109   2.313  0.8148 -0.0524 -0.1329
   26MOL   C63623186   6.410   8.167   2.231 -0.3784 -0.5132  0.0436
   26MOL   C63723187   6.283   8.102   2.231  0.5834 -0.1906  0.4997
   26MOL   S63823188   6.675   8.196   2.307  0.6287 -0.1804 -0.1214
   26MOL   O63923189   6.680   8.252   2.174  0.1716 -0.3908 -0.0930
   26MOL   O64023190   6.787   8.101   2.342  0.2998  0.2051 -0.0447
   26MOL   C64123191   6.654   8.323   2.429  0.2557 -0.1177 -0.0530
   26MOL   C64223192   6.610   8.288   2.556  0.3239 -0.5168 -0.5665
   26MOL   C64323193   6.589   0.026   2.654  0.0012 -0.5559  0.3434
   26MOL   C64423194   6.614   0.157   2.615  0.2045 -0.6180 -0.3189
   26MOL   C64523195   6.637   0.194   2.483 -0.4455 -0.1779 -0.7218
   26MOL   C64623196   6.659   0.089   2.390 -0.2341  0.6675  0.5082
   26MOL   O64723197   6.611   0.266   2.701  0.3680 -0.4080 -0.1759
   26MOL   C64823198   6.491   0.335   2.711  0.7980  0.3342 -0.7316
   26MOL   C64923199   6.489   0.466   2.656  0.6819 -0.5289  0.2581
   26MOL   C65023200   6.363   0.534   2.655 -0.7747  0.6383 -0.2947
   26MOL   C65123201   6.242   0.471   2.704  0.6393 -0.0958 -0.5685
   26MOL   C65223202   6.250   0.336   2.760 -0.9126  0.4864 -0.5369
   26MOL   C65323203   6.373   0.274   2.767  0.8801 -0.1318 -0.1247
   26MOL   C65423204   6.118   0.544   2.687  0.0313 -0.3027 -0.1782
   26MOL   C65523205   6.023   0.495   2.593  0.4816 -0.7840 -0.2106
   26MOL   C65623206   5.903   0.561   2.574 -0.1671  0.1321 -0.3972
   26MOL   C65723207   5.870   0.676   2.643 -0.5509  0.2097  0.2395
   26MOL   C65823208   5.965   0.729   2.729  0.2233 -0.7912  0.1721
   26MOL   C65923209   6.088   0.663   2.753  0.1861 -0.3257 -0.0060
   26MOL   O66023210   5.756   0.741   2.616  0.2048 -0.1207 -0.7848
   26MOL   H66123211   6.354   7.849   2.450 -0.5476  0.5164  1.7783
   26MOL   H66223212   6.584   7.963   2.452  0.5892  0.1973  0.5369
   26MOL   H66323213   6.430   8.257   2.176 -1.1363 -0.0141  0.5740
   26MOL   H66423214   6.205   8.130   2.162 -0.1184 -0.3090  1.2250
   26MOL   H66523215   6.607   8.182   2.577  2.3766 -0.2011  1.5061
   26MOL   H66623216   6.548   0.003   2.751 -1.6712 -3.0102 -0.8960
   26MOL   H66723217   6.649   0.300   2.464  1.3425 -0.4137 -1.0022
   26MOL   H66823218   6.695   0.122   2.293 -0.6000  0.8699  0.4380
   26MOL   H66923219   6.571   0.505   2.598 -0.2372  1.1759  0.0764
   26MOL   H67023220   6.357   0.631   2.609  0.1900  1.7366  1.8631
   26MOL   H67123221   6.158   0.291   2.793 -0.1530 -0.7335 -0.0352
   26MOL   H67223222   6.376   0.178   2.815 -0.2658 -0.9425 -1.6234
   26MOL   H67323223   6.033   0.402   2.539 -2.1639  0.5439 -3.1611
   26MOL   H67423224   5.832   0.522   2.503 -1.2575 -0.0908  0.7810
   26MOL   H67523225   5.932   0.811   2.790  2.6624  0.5856 -0.3032
   26MOL   H67623226   6.167   0.706   2.812  1.5566 -2.9132  0.1387
   26MOL   C67723227   5.645   0.665   2.649 -0.1637  0.6612  0.1770
   26MOL   C67823228   5.638   0.613   2.780 -0.4035 -0.8311 -0.0560
   26MOL   C67923229   5.543   0.517   2.818 -0.5313  0.9326 -0.0988
   26MOL   C68023230   5.450   0.480   2.727  0.7640 -0.3920  0.1836
   26MOL   C68123231   5.453   0.525   2.591 -0.3055  0.0327  0.6444
   26MOL   C68223232   5.553   0.616   2.554 -0.6611  0.1869 -0.6615
   26MOL   S68323233   5.339   0.339   2.771 -0.1020  0.2437  0.0382
   26MOL   O68423234   5.238   0.392   2.866 -0.1184 -0.2607 -0.5086
   26MOL   O68523235   5.426   0.226   2.811  0.2123  0.0400  0.0494
   26MOL   C68623236   5.259   0.280   2.619 -0.0052 -0.3678  0.0676
   26MOL   C68723237   5.329   0.214   2.517  0.0142  0.0154  0.0315
   26MOL   C68823238   5.262   0.163   2.406 -0.6695  0.4756  0.6985
   26MOL   C68923239   5.121   0.184   2.403 -0.2201  0.4907  0.8028
   26MOL   C69023240   5.052   0.261   2.501 -1.1277 -0.0863  0.5638
   26MOL   C69123241   5.127   0.310   2.604 -0.0485 -0.0088 -0.1738
   26MOL   O69223242   5.051   0.114   2.302 -0.2721 -0.0726  0.3689
   26MOL   C69323243   4.979   0.000   2.329 -0.1669 -0.0833  0.1944
   26MOL   C69423244   4.990   8.257   2.242  0.3787  0.3880 -0.7789
   26MOL   C69523245   4.911   8.144   2.260  0.7417  0.4392 -0.4149
   26MOL   C69623246   4.829   8.127   2.375 -0.0062 -0.1169 -0.0105
   26MOL   C69723247   4.831   8.232   2.471 -0.5824  0.4561  0.0479
   26MOL   C69823248   4.893   8.356   2.443  0.2837 -0.1283 -0.2611
   26MOL   C69923249   4.749   8.003   2.394 -0.1539  0.0406 -0.0761
   26MOL   C70023250   4.622   8.019   2.456 -0.4166  0.5249 -0.3461
   26MOL   C70123251   4.552   7.899   2.479 -0.2750  0.3996  0.3917
   26MOL   C70223252   4.600   7.770   2.452  1.0805  0.3433  1.0166
   26MOL   C70323253   4.730   7.760   2.400 -1.0183 -0.4237 -0.3952
   26MOL   C70423254   4.809   7.872   2.378  0.4545 -0.2014  1.1503
   26MOL   O70523255   4.523   7.658   2.466 -0.2653 -0.3434 -0.2143
   26MOL   H70623256   5.701   0.648   2.860 -0.6472  0.9850 -0.6373
   26MOL   H70723257   5.536   0.472   2.916 -0.8065  3.7676  1.2069
   26MOL   H70823258   5.380   0.489   2.520 -1.0049  1.1800  0.7541
   26MOL   H70923259   5.573   0.633   2.449  0.1725 -0.7738 -0.6659
   26MOL   H71023260   5.431   0.184   2.539  0.1941 -1.2006 -2.2865
   26MOL   H71123261   5.310   0.101   2.331 -0.3821  1.0482  0.4056
   26MOL   H71223262   4.948   0.289   2.492 -0.7300  0.3672 -3.7841
   26MOL   H71323263   5.074   0.360   2.684  0.0058  0.1668 -0.2475
   26MOL   H71423264   5.055   8.263   2.156  0.6249  2.0931 -0.4970
   26MOL   H71523265   4.915   8.058   2.195  1.7136  0.5066 -0.4599
   26MOL   H71623266   4.772   8.210   2.559  0.7644  0.0338  0.8486
   26MOL   H71723267   4.880   0.070   2.514 -1.7653 -0.1954 -0.5443
   26MOL   H71823268   4.578   8.115   2.477 -1.3180 -0.3299  1.7901
   26MOL   H71923269   4.451   7.906   2.517 -0.7033  1.8366 -0.9833
   26MOL   H72023270   4.764   7.661   2.372  0.6712  0.4014 -1.3189
   26MOL   H72123271   4.906   7.862   2.331  0.1998  0.3034  0.5153
   26MOL   C72223272   4.437   7.623   2.366 -1.3435  0.5894 -0.2454
   26MOL   C72323273   4.468   7.519   2.277  0.5198  0.3078 -0.3449
   26MOL   C72423274   4.378   7.469   2.188  0.7644  0.4174  0.0166
   26MOL   C72523275   4.244   7.525   2.188 -0.4672  0.3033 -0.9769
   26MOL   C72623276   4.215   7.628   2.275 -0.3610 -0.1112  0.4620
   26MOL   C72723277   4.309   7.673   2.364 -0.4860  0.0751 -0.1571
   26MOL   S72823278   4.125   7.452   2.080 -0.1169 -0.4529 -0.3934
   26MOL   O72923279   3.990   7.498   2.125  0.1334  0.8145 -0.3573
   26MOL   O73023280   4.159   7.311   2.073  0.2880  0.3615  0.2373
   26MOL   C73123281   4.154   7.539   1.920 -0.4195 -0.3689 -0.0199
   26MOL   C73223282   4.065   7.632   1.876  0.3966 -0.3191 -0.4904
   26MOL   C73323283   4.084   7.703   1.754  0.1526  0.6600  0.2287
   26MOL   C73423284   4.193   7.673   1.672 -0.1352  0.0594  0.0373
   26MOL   C73523285   4.293   7.584   1.724 -0.1657  0.6604 -0.3210
   26MOL   C73623286   4.272   7.518   1.846 -0.4177 -0.7784  0.7220
   26MOL   O73723287   4.210   7.743   1.554  0.5542 -0.1987 -0.2824
   26MOL   C73823288   4.281   7.684   1.448  0.1874  0.2827 -0.3245
   26MOL   C73923289   4.421   7.683   1.446  0.1123  0.3733 -0.7318
   26MOL   C74023290   4.491   7.628   1.340 -0.5524  0.2967 -0.3220
   26MOL   C74123291   4.427   7.551   1.239 -0.4739 -0.5152  0.0462
   26MOL   C74223292   4.282   7.548   1.246  0.2503  0.0884 -0.2330
   26MOL   C74323293   4.210   7.615   1.345  0.1572 -0.0519 -0.3861
   26MOL   C74423294   4.495   7.474   1.143 -0.0986  0.2000  0.1979
   26MOL   C74523295   4.584   7.526   1.041  0.4799  0.5493  0.1255
   26MOL   C74623296   4.670   7.445   0.970 -0.5809 -0.3738  0.2836
   26MOL   C74723297   4.660   7.302   0.989  0.5438  0.2294 -0.1416
   26MOL   C74823298   4.564   7.251   1.078  0.9362  0.8830  0.1684
   26MOL   C74923299   4.491   7.335   1.164  0.0093  0.9499 -0.9132
   26MOL   O75023300   4.739   7.218   0.910  0.3234 -0.0198  0.0145
   26MOL   H75123301   4.568   7.479   2.269 -0.4783 -2.6651  1.1018
   26MOL   H75223302   4.414   7.390   2.124 -2.2761 -1.3464  0.3812
   26MOL   H75323303   4.110   7.653   2.282 -0.2370  0.2755  0.9591
   26MOL   H75423304   4.275   7.759   2.419 -1.1340  0.2120 -0.7613
   26MOL   H75523305   3.980   7.662   1.935  2.3583  0.6439  1.9223
   26MOL   H75623306   4.015   7.779   1.718 -0.5198  0.0495  0.2279
   26MOL   H75723307   4.388   7.568   1.677 -1.0879 -1.7006 -1.4836
   26MOL   H75823308   4.347   7.445   1.871 -1.3101 -0.9715  2.9654
   26MOL   H75923309   4.475   7.731   1.526 -0.7905  1.3419 -0.6923
   26MOL   H76023310   4.599   7.634   1.344 -0.4284 -0.0948 -2.4358
   26MOL   H76123311   4.229   7.489   1.173  1.6708 -2.9284  1.0908
   26MOL   H76223312   4.103   7.600   1.347  0.0996  0.4664  1.1255
   26MOL   H76323313   4.588   7.634   1.033  3.3645  0.4609 -0.2995
   26MOL   H76423314   4.751   7.487   0.912  0.2849  1.0193  2.4400
   26MOL   H76523315   4.552   7.145   1.095 -0.9593  1.3883  2.2709
   26MOL   H76623316   4.431   7.306   1.249  1.6222 -1.3873 -0.5362
   26MOL   C76723317   4.807   7.128   0.984  0.3859  0.2015  0.3905
   26MOL   C76823318   4.899   7.176   1.077  0.2424 -0.1585  0.0574
   26MOL   C76923319   4.977   7.091   1.155 -0.2009  0.1808  0.5940
   26MOL   C77023320   4.966   6.951   1.133 -0.3209  0.2557 -0.1661
   26MOL   C77123321   4.872   6.902   1.045 -0.4124 -0.4180  0.6349
   26MOL   C77223322   4.790   6.990   0.972 -0.3384  0.1224  1.1709
   26MOL   S77323323   5.054   6.840   1.245  0.1118 -0.2190  0.2208
   26MOL   O77423324   4.955   6.784   1.335  0.4815  0.0169  0.1746
   26MOL   O77523325   5.172   6.913   1.286 -0.4657 -0.2069  0.5319
   26MOL   C77623326   5.110   6.724   1.123 -0.4364 -0.6784  0.5258
   26MOL   C77723327   5.225   6.758   1.047 -1.2534  0.3013  0.5955
   26MOL   C77823328   5.274   6.663   0.955  0.5408 -0.1914 -0.6666
   26MOL   C77923329   5.201   6.549   0.926  0.3391  0.3870 -0.5566
   26MOL   C78023330   5.081   6.525   0.996 -0.4080 -0.4823  0.0653
   26MOL   C78123331   5.039   6.609   1.097  0.4735 -0.5645 -0.0431
   26MOL   O78223332   5.244   6.452   0.838 -0.0591 -0.0586 -0.9473
   26MOL   C78323333   5.242   6.480   0.705 -0.3832 -0.8994 -0.1399
   26MOL   C78423334   5.343   6.554   0.641 -0.2457 -0.1923  0.1078
   26MOL   C78523335   5.336   6.583   0.504 -0.1166 -0.4509 -0.0815
   26MOL   C78623336   5.237   6.520   0.425  0.3351  0.1274 -0.0765
   26MOL   C78723337   5.133   6.447   0.490 -0.5673  0.2984  0.3451
   26MOL   C78823338   5.134   6.437   0.630  0.1402  0.2268 -0.5497
   26MOL   C78923339   5.241   6.529   0.283 -0.4721  0.6164  0.1313
   26MOL   C79023340   5.258   6.658   0.224 -0.4359  0.2724 -0.6027
   26MOL   C79123341   5.288   6.671   0.091 -0.2047 -0.2635  0.0424
   26MOL   C79223342   5.285   6.565   0.002 -0.8994  0.6255  0.2776
   26MOL   C79323343   5.253   6.435   0.060  0.0803  0.4094  0.0207
   26MOL   C79423344   5.237   6.424   0.195  1.1928  0.1326 -0.8137
   26MOL   O79523345   5.315   6.582   8.233  0.4822  0.0394  0.0869
   26MOL   H79623346   4.911   7.284   1.081 -0.7648  0.0048 -0.9848
   26MOL   H79723347   5.050   7.125   1.227  1.5493 -3.1001  0.4611
   26MOL   H79823348   4.855   6.796   1.036  0.9064 -0.8723  3.0368
   26MOL   H79923349   4.715   6.959   0.901  0.4631  1.0685 -0.1026
   26MOL   H80023350   5.283   6.848   1.063  1.1253 -0.9033 -0.9979
   26MOL   H80123351   5.366   6.677   0.900  0.7590 -1.2788 -0.5864
   26MOL   H80223352   5.036   6.427   0.982  0.9104 -0.9938 -0.6125
   26MOL   H80323353   4.958   6.584   1.164  1.5497  0.3281  1.6295
   26MOL   H80423354   5.430   6.592   0.693  1.0821 -0.8389 -1.5885
   26MOL   H80523355   5.416   6.642   0.461  0.0937 -1.3988 -1.0286
   26MOL   H80623356   5.061   6.387   0.437 -1.6309  0.0035  2.0971
   26MOL   H80723357   5.049   6.398   0.684  0.6051  1.0672  0.8044
   26MOL   H80823358   5.265   6.745   0.288 -0.3079 -0.5696  0.5311
   26MOL   H80923359   5.294   6.770   0.047  1.1498 -0.4766 -0.3040
   26MOL   H81023360   5.244   6.344   0.004  0.3423 -0.8302  1.9349
   26MOL   H81123361   5.212   6.328   0.236 -0.4717  0.1708 -1.6792
   26MOL   C81223362   5.355   6.477   8.154 -0.5012 -0.7197  0.1281
   26MOL   C81323363   5.268   6.406   8.071 -0.2409  0.4115  0.0404
   26MOL   C81423364   5.308   6.287   8.009 -0.4142 -0.1377 -0.1435
   26MOL   C81523365   5.441   6.239   8.019 -0.4695 -0.1470 -0.0619
   26MOL   C81623366   5.528   6.313   8.100  0.4561  0.2588 -0.0284
   26MOL   C81723367   5.485   6.428   8.170  0.2500 -0.1852 -0.1493
   26MOL   S81823368   5.495   6.093   7.934  0.1113 -0.1143  0.2834
   26MOL   O81923369   5.582   6.129   7.823  0.1505  0.1864  0.1102
   26MOL   O82023370   5.379   6.012   7.908  0.1359  1.1429 -0.0647
   26MOL   C82123371   5.597   6.001   8.048 -0.2534  0.7329  0.4506
   26MOL   C82223372   5.725   6.030   8.066 -0.3740 -0.3077 -0.3120
   26MOL   C82323373   5.813   5.963   8.150  0.4730  0.1598 -0.0336
   26MOL   C82423374   5.762   5.850   8.218  0.0310 -0.6778 -0.6235
   26MOL   C82523375   5.627   5.813   8.195  0.1275  0.5915  0.1426
   26MOL   C82623376   5.541   5.890   8.115  0.8903 -0.4505  0.5657
   26MOL   O82723377   5.845   5.779   8.300  0.2021  0.2053  0.6908
   26MOL   C82823378   5.901   5.672   8.239  0.2471 -0.6934 -0.5539
   26MOL   C82923379   5.841   5.546   8.255 -0.5885 -0.0821  0.5775
   26MOL   C83023380   5.895   5.434   8.193 -0.0408  0.1722  0.2730
   26MOL   C83123381   5.999   5.435   8.096 -0.0863 -0.3298  0.4266
   26MOL   C83223382   6.065   5.561   8.095 -0.1398  0.0210 -1.0567
   26MOL   C83323383   6.024   5.677   8.166 -0.0293  0.4207  0.1490
   26MOL   C83423384   6.050   5.312   8.030  0.2585  0.5616  0.3165
   26MOL   C83523385   6.058   5.191   8.104 -0.1584 -0.0375 -0.6316
   26MOL   C83623386   6.118   5.075   8.042 -0.5001  0.2177  0.0421
   26MOL   C83723387   6.156   5.080   7.904  0.0613  0.5000 -0.1771
   26MOL   C83823388   6.154   5.202   7.837  0.5559 -0.5962 -0.0453
   26MOL   C83923389   6.095   5.317   7.897  0.1526  0.2983  0.2446
   26MOL   O84023390   6.208   4.968   7.848  0.2405 -0.6973 -0.2583
   26MOL   H84123391   5.169   6.450   8.063 -0.8864 -0.5779  2.1133
   26MOL   H84223392   5.247   6.231   7.939  0.4980 -0.6410 -0.5420
   26MOL   H84323393   5.634   6.293   8.109  0.6048  1.3445  0.6622
   26MOL   H84423394   5.549   6.483   8.237  1.3171 -0.4826 -0.9209
   26MOL   H84523395   5.771   6.112   8.012 -2.6970  1.3327  0.0897
   26MOL   H84623396   5.916   5.995   8.158  0.5904 -0.1268 -0.4144
   26MOL   H84723397   5.585   5.724   8.238  1.6325 -0.5720 -0.7664
   26MOL   H84823398   5.439   5.861   8.097  1.7559 -2.4093 -1.4644
   26MOL   H84923399   5.752   5.529   8.313 -1.3664  0.6019 -0.4074
   26MOL   H85023400   5.844   5.344   8.224 -0.2275  0.6962  1.4788
   26MOL   H85123401   6.157   5.577   8.041 -0.2293  3.1611 -0.3919
   26MOL   H85223402   6.078   5.771   8.169 -0.6765  0.9696 -3.4301
   26MOL   H85323403   6.009   5.194   8.200 -1.6024 -0.7075 -1.3372
   26MOL   H85423404   6.127   4.979   8.090  1.0330  0.3661  0.0848
   26MOL   H85523405   6.170   5.208   7.731  2.3418 -1.2928  0.1688
   26MOL   H85623406   6.097   5.406   7.835  1.1936 -0.7441 -1.2692
   26MOL   C85723407   6.142   4.931   7.732 -0.6649  0.1067 -0.7569
   26MOL   C85823408   6.215   4.899   7.620  0.0952  0.5881  0.0386
   26MOL   C85923409   6.149   4.842   7.508 -0.3490  0.2523 -0.1901
   26MOL   C86023410   6.012   4.817   7.507 -0.2545 -0.1165  0.2575
   26MOL   C86123411   5.934   4.860   7.616  0.2687  0.4790 -0.5666
   26MOL   C86223412   5.996   4.917   7.732 -0.8481 -0.7230 -0.0542
   26MOL   S86323413   5.920   4.768   7.363 -0.4509 -0.0926  0.0701
   26MOL   O86423414   5.802   4.690   7.405  0.2157 -0.4594 -0.5290
   26MOL   O86523415   6.018   4.709   7.270 -0.4862  0.0725 -0.5658
   26MOL   C86623416   5.863   4.921   7.289  0.2160  0.5216  0.4049
   26MOL   C86723417   5.920   5.045   7.325 -0.2674 -1.1559  0.2098
   26MOL   C86823418   5.866   5.160   7.258 -1.0891 -0.1557 -0.5628
   26MOL   C86923419   5.760   5.155   7.164 -0.4284 -0.5582  0.0497
   26MOL   C87023420   5.704   5.028   7.131  0.4730 -0.1696 -0.5328
   26MOL   C87123421   5.758   4.917   7.196  0.4876  0.0294 -0.3995
   26MOL   O87223422   5.719   5.271   7.096 -0.1071  0.6436  0.0382
   26MOL   C87323423   5.711   5.392   7.164  0.7669 -0.2654  0.2071
   26MOL   C87423424   5.766   5.511   7.105 -0.3148 -0.0269  0.2895
   26MOL   C87523425   5.767   5.630   7.174 -0.4706 -0.4821  0.1209
   26MOL   C87623426   5.735   5.635   7.309  0.1698 -0.2638  0.4724
   26MOL   C87723427   5.675   5.516   7.365  0.6461 -0.0181  0.2660
   26MOL   C87823428   5.654   5.400   7.292 -0.0639 -0.0631 -0.2623
   26MOL   C87923429   5.758   5.754   7.390 -0.6629 -0.2826  0.1105
   26MOL   C88023430   5.864   5.849   7.365 -0.3868  0.2593 -0.0831
   26MOL   C88123431   5.882   5.959   7.450 -0.3546 -0.4547  0.0963
   26MOL   C88223432   5.802   5.974   7.563 -0.5462  0.0990  0.4874
   26MOL   C88323433   5.689   5.896   7.586  0.1178 -0.4142 -0.1858
   26MOL   C88423434   5.664   5.794   7.494 -0.0386 -0.3481  0.3184
   26MOL   O88523435   5.837   6.068   7.655 -0.0856  0.2560  1.3491
   26MOL   H88623436   6.316   4.937   7.621  0.1113  0.5218  0.8970
   26MOL   H88723437   6.205   4.822   7.418  0.4841 -0.0227  0.3834
   26MOL   H88823438   5.828   4.841   7.621  0.4995 -0.2991  3.5025
   26MOL   H88923439   5.932   4.953   7.811  0.0886 -0.8370  0.7592
   26MOL   H89023440   6.002   5.050   7.395  0.2979 -2.9159 -0.2994
   26MOL   H89123441   5.905   5.259   7.277 -0.3180 -0.6426  0.5012
   26MOL   H89223442   5.627   5.008   7.058  0.0444 -1.0848  0.1561
   26MOL   H89323443   5.722   4.818   7.174 -0.5811 -0.0015  1.3551
   26MOL   H89423444   5.799   5.508   7.002  2.7479 -3.9192  1.2535
   26MOL   H89523445   5.805   5.718   7.125  1.2067 -0.8691  0.6934
   26MOL   H89623446   5.634   5.523   7.464 -0.2020 -1.5296  0.0369
   26MOL   H89723447   5.623   5.313   7.349  4.1744 -1.0249  0.7363
   26MOL   H89823448   5.937   5.820   7.291 -0.2700  0.3531 -0.0038
   26MOL   H89923449   5.960   6.030   7.425 -1.1479 -0.3071 -2.0788
   26MOL   H90023450   5.630   5.911   7.675 -0.4248 -1.6034 -0.3367
   26MOL   H90123451   5.578   5.734   7.519 -0.1393 -0.0999  0.5716
   26MOL   H90223452   5.784   6.088   7.731  0.8446  0.6064  1.9248
   27MOL     C123453   6.103   1.971   1.282 -0.3258 -0.2319 -0.3480
   27MOL     C223454   6.028   1.974   1.163 -0.3423  0.5754  0.0092
   27MOL     C323455   6.075   2.056   1.053  1.1042 -0.5007  0.0231
   27MOL     C423456   6.179   2.146   1.080 -0.3247  0.1170  0.0353
   27MOL     C523457   6.253   2.143   1.200 -0.3466 -1.1080 -0.1269
   27MOL     C623458   6.212   2.052   1.300  0.3019  0.4070  0.3560
   27MOL     S723459   6.236   2.263   0.952 -0.1871  0.1735 -0.0331
   27MOL     O823460   6.375   2.297   0.985 -0.0788 -0.3879  0.3799
   27MOL     O923461   6.139   2.373   0.950 -0.4264 -0.5286  0.0445
   27MOL    C1023462   6.232   2.195   0.790  0.9001  0.0851 -0.0597
   27MOL    C1123463   6.196   2.274   0.678  0.4715 -0.1043 -0.2276
   27MOL    C1223464   6.225   2.221   0.550  0.4923 -0.7267  0.5069
   27MOL    C1323465   6.300   2.102   0.535  0.4835 -0.0644  0.0049
   27MOL    C1423466   6.314   2.016   0.649  0.3278 -0.1336  0.3698
   27MOL    C1523467   6.281   2.065   0.776 -0.1016 -0.0964  0.5550
   27MOL    O1623468   6.361   2.061   0.417  0.7358 -0.1065 -0.2266
   27MOL    C1723469   6.498   2.079   0.419  0.0655  1.0676  0.0687
   27MOL    C1823470   6.550   2.203   0.376 -0.1895  0.7807 -0.1398
   27MOL    C1923471   6.688   2.221   0.366  0.0521  0.8286  0.1150
   27MOL    C2023472   6.784   2.129   0.420 -0.3075  0.4813 -0.2699
   27MOL    C2123473   6.732   2.006   0.454 -0.3870 -0.2620 -0.4208
   27MOL    C2223474   6.591   1.982   0.471 -0.7746 -0.5730  0.7116
   27MOL    C2323475   6.923   2.159   0.454 -0.4509 -0.1831  0.2605
   27MOL    C2423476   6.948   2.274   0.531  1.1812  0.4684 -0.1773
   27MOL    C2523477   7.070   2.312   0.578 -0.0949  0.3332  0.7465
   27MOL    C2623478   7.185   2.233   0.551  0.4107  0.0709  0.5771
   27MOL    C2723479   7.163   2.128   0.454 -0.8304  0.3992  0.0716
   27MOL    C2823480   7.037   2.092   0.409  0.5722  0.1406 -0.1039
   27MOL    O2923481   7.300   2.270   0.617 -0.4335  0.2011  0.1477
   27MOL    H3023482   5.947   1.904   1.151 -0.3183  0.2218  1.8958
   27MOL    H3123483   6.030   2.058   0.954  0.6628 -0.3714  0.2234
   27MOL    H3223484   6.334   2.211   1.221 -0.9803 -0.7924  1.3941
   27MOL    H3323485   6.278   2.043   1.385 -0.3610 -0.3358  0.8034
   27MOL    H3423486   6.167   2.378   0.689  0.9078  0.0454 -0.5073
   27MOL    H3523487   6.223   2.289   0.465  0.1195 -2.0809 -0.5850
   27MOL    H3623488   6.358   1.919   0.638  0.4965 -0.4691  3.6643
   27MOL    H3723489   6.288   2.002   0.864 -0.7960 -2.0646 -0.7571
   27MOL    H3823490   6.474   2.278   0.357 -1.7963 -0.4100  1.4643
   27MOL    H3923491   6.731   2.311   0.326  0.1102  0.8923  0.3200
   27MOL    H4023492   6.801   1.933   0.493  1.1422  1.4342  0.0868
   27MOL    H4123493   6.554   1.885   0.498 -0.2785 -1.2649 -0.9814
   27MOL    H4223494   6.860   2.327   0.563 -0.0700 -0.5910 -1.7567
   27MOL    H4323495   7.063   2.388   0.653  0.6117  1.0617  0.0856
   27MOL    H4423496   7.245   2.063   0.427 -0.0823  0.8296  1.2739
   27MOL    H4523497   7.023   2.001   0.352 -1.0295 -0.1658  0.7560
   27MOL    H4623498   6.075   1.905   1.363 -0.2029 -0.3768 -0.4240
   27MOL    C4723499   7.346   2.398   0.591 -0.1738  0.0660  0.1922
   27MOL    C4823500   7.311   2.513   0.660  0.0951 -0.0834 -0.0284
   27MOL    C4923501   7.378   2.631   0.635  0.3567  0.3839  0.6720
   27MOL    C5023502   7.473   2.639   0.536  0.0608 -0.2270  0.4656
   27MOL    C5123503   7.522   2.524   0.478 -0.1606 -0.1709  0.6536
   27MOL    C5223504   7.457   2.402   0.502 -0.0017  0.4621  0.6899
   27MOL    S5323505   7.543   2.799   0.492 -0.0556 -0.0828  0.1805
   27MOL    O5423506   7.604   2.782   0.355 -0.1051  0.0339  0.0853
   27MOL    O5523507   7.623   2.845   0.606 -0.2649 -0.0601 -0.2260
   27MOL    C5623508   7.395   2.906   0.482  0.0112 -1.0812 -0.4295
   27MOL    C5723509   7.343   2.963   0.597 -0.2823 -0.3376  0.2956
   27MOL    C5823510   7.230   3.046   0.595 -0.7345 -0.4618  0.5057
   27MOL    C5923511   7.181   3.089   0.467  0.4094 -0.2937 -0.4106
   27MOL    C6023512   7.234   3.034   0.348 -0.0450  0.5433  0.6633
   27MOL    C6123513   7.341   2.937   0.350 -1.1684 -0.4451 -0.4552
   27MOL    O6223514   7.073   3.177   0.458 -0.5342 -0.0620  0.1360
   27MOL    C6323515   7.076   3.298   0.520  0.4312  0.1127 -0.8214
   27MOL    C6423516   6.955   3.359   0.560 -0.3173 -0.4629  0.3225
   27MOL    C6523517   6.967   3.485   0.628  0.6202  0.6622 -0.5855
   27MOL    C6623518   7.094   3.554   0.640 -0.1275 -0.3735  0.2903
   27MOL    C6723519   7.203   3.498   0.573 -0.1528 -0.8906  0.6077
   27MOL    C6823520   7.197   3.373   0.517  0.7125 -0.0669  0.5066
   27MOL    C6923521   7.105   3.685   0.702 -0.2398 -0.0345  0.2939
   27MOL    C7023522   7.215   3.770   0.688 -0.3220  0.1593 -0.0339
   27MOL    C7123523   7.211   3.911   0.727 -0.0539  0.5711  0.4673
   27MOL    C7223524   7.095   3.950   0.802  0.4245 -0.2353 -0.2782
   27MOL    C7323525   6.991   3.856   0.832 -0.4209 -0.0720 -0.2105
   27MOL    C7423526   7.000   3.730   0.781  0.4793 -1.1752 -0.1548
   27MOL    O7523527   7.081   4.075   0.853  0.0404 -0.0722  0.4195
   27MOL    H7623528   7.239   2.512   0.740  0.6383 -1.2541  0.4681
   27MOL    H7723529   7.348   2.722   0.686  2.9022  0.1199  2.7076
   27MOL    H7823530   7.601   2.521   0.405 -2.8679  0.9677 -2.4554
   27MOL    H7923531   7.500   2.320   0.446  0.3569  0.2359  1.2980
   27MOL    H8023532   7.383   2.931   0.692 -0.7002  0.0661  0.6105
   27MOL    H8123533   7.176   3.066   0.686 -0.2494 -2.8497  1.3534
   27MOL    H8223534   7.192   3.054   0.251 -1.1692  1.5631  1.3411
   27MOL    H8323535   7.379   2.887   0.262  0.4029 -0.1572  0.0624
   27MOL    H8423536   6.867   3.298   0.549 -2.0459  1.8464  0.8835
   27MOL    H8523537   6.870   3.513   0.667  0.4204 -2.6300  1.4353
   27MOL    H8623538   7.300   3.543   0.561  0.2695 -2.1092 -0.5863
   27MOL    H8723539   7.270   3.339   0.445  0.2186  2.6123 -1.3519
   27MOL    H8823540   7.303   3.743   0.631 -0.6051  0.0675 -0.4265
   27MOL    H8923541   7.290   3.981   0.707 -1.3545  1.3264 -2.3729
   27MOL    H9023542   6.905   3.886   0.892 -1.9895 -1.6920 -1.5938
   27MOL    H9123543   6.925   3.657   0.810 -0.4379 -0.8361 -1.6144
   27MOL    C9223544   7.041   4.172   0.768  0.3690  0.5578  1.1717
   27MOL    C9323545   7.135   4.238   0.689 -0.0810  0.2505 -0.6448
   27MOL    C9423546   7.104   4.345   0.601  0.3758  0.6553 -0.3241
   27MOL    C9523547   6.965   4.378   0.585 -0.1924  0.4782  0.0109
   27MOL    C9623548   6.867   4.309   0.659  0.1761 -0.0138 -0.5720
   27MOL    C9723549   6.903   4.210   0.755  0.2117  0.2973 -0.6583
   27MOL    S9823550   6.922   4.519   0.487  0.0531 -0.1805  0.2748
   27MOL    O9923551   7.018   4.520   0.374  0.1155 -0.2093  1.1142
   27MOL   O10023552   6.932   4.628   0.586  0.4397  0.0645  0.8463
   27MOL   C10123553   6.748   4.494   0.447 -0.3153 -0.0644  1.0144
   27MOL   C10223554   6.719   4.369   0.384  0.1301  0.1703  0.1598
   27MOL   C10323555   6.587   4.339   0.341  0.1987  0.6370 -0.8122
   27MOL   C10423556   6.484   4.426   0.383 -0.4888 -0.0588 -0.5395
   27MOL   C10523557   6.513   4.544   0.459  0.0239 -0.3846 -0.0757
   27MOL   C10623558   6.648   4.578   0.494  0.0098 -0.3894  1.2234
   27MOL   O10723559   6.353   4.393   0.347  0.0488  0.5288 -0.5379
   27MOL   C10823560   6.315   4.415   0.218 -0.3655 -0.3697  0.0746
   27MOL   C10923561   6.310   4.547   0.175  1.1393 -0.5831 -0.6596
   27MOL   C11023562   6.278   4.582   0.047 -0.5645 -0.1090  0.5437
   27MOL   C11123563   6.244   4.485   8.317  0.4927  0.5426  1.0226
   27MOL   C11223564   6.258   4.351   8.355  0.5498  0.1673 -0.4307
   27MOL   C11323565   6.292   4.314   0.122 -0.6746  0.2567 -0.0948
   27MOL   C11423566   6.210   4.529   8.174 -0.8965 -0.1072  0.6648
   27MOL   C11523567   6.251   4.440   8.074  0.5178  0.2559 -0.1971
   27MOL   C11623568   6.214   4.460   7.938 -0.2708 -0.2610 -0.2916
   27MOL   C11723569   6.152   4.580   7.901  1.0139  0.1703  0.5222
   27MOL   C11823570   6.115   4.670   8.003 -0.1533 -0.4132 -0.9075
   27MOL   C11923571   6.140   4.648   8.140 -0.3499  0.6443 -0.1263
   27MOL   O12023572   6.127   4.615   7.775  0.1456  0.2405  0.0634
   27MOL   H12123573   7.239   4.213   0.699 -0.0587  0.0091 -1.4465
   27MOL   H12223574   7.177   4.400   0.544  0.8446  0.6867  0.2971
   27MOL   H12323575   6.763   4.337   0.643 -0.0791 -0.7168 -0.1364
   27MOL   H12423576   6.825   4.170   0.817 -0.3438  2.6790  0.2288
   27MOL   H12523577   6.790   4.298   0.345 -1.2219 -0.8691 -0.4437
   27MOL   H12623578   6.569   4.246   0.289  2.3239 -0.1317 -0.2290
   27MOL   H12723579   6.432   4.604   0.498  0.3316  0.1870 -0.3161
   27MOL   H12823580   6.664   4.673   0.545  0.4343 -0.2310  0.7974
   27MOL   H12923581   6.334   4.631   0.239  0.4362 -1.7756  1.2072
   27MOL   H13023582   6.289   4.684   0.012  2.5226 -0.5350  0.1487
   27MOL   H13123583   6.253   4.264   8.290 -1.4032  0.4862 -0.7328
   27MOL   H13223584   6.300   4.207   0.134  2.6566  0.3936 -0.4042
   27MOL   H13323585   6.295   4.345   8.101 -0.5112  0.0443  0.7919
   27MOL   H13423586   6.239   4.400   7.852 -1.1017 -1.4682  0.3021
   27MOL   H13523587   6.080   4.768   7.975  1.5359  0.4419 -0.1168
   27MOL   H13623588   6.107   4.713   8.220 -1.1286 -3.4104  3.0114
   27MOL   C13723589   6.074   4.523   7.688  0.3610  0.4121  0.4739
   27MOL   C13823590   5.933   4.503   7.689  0.5346  0.0308 -0.3199
   27MOL   C13923591   5.875   4.409   7.606 -0.2281 -0.1988  0.0597
   27MOL   C14023592   5.954   4.335   7.516  0.6530 -0.1948 -0.4907
   27MOL   C14123593   6.095   4.345   7.518 -0.2210 -0.6942  0.2788
   27MOL   C14223594   6.155   4.453   7.595 -0.5794  0.6010  0.8335
   27MOL   S14323595   5.872   4.215   7.406  0.2275 -0.0480  0.0035
   27MOL   O14423596   5.722   4.214   7.422 -0.2403  0.3845 -0.0681
   27MOL   O14523597   5.952   4.090   7.412 -0.4838 -0.1889 -0.4538
   27MOL   C14623598   5.899   4.284   7.238 -0.2672  0.5716  0.0356
   27MOL   C14723599   5.977   4.209   7.148 -0.6774  0.7159 -0.2046
   27MOL   C14823600   5.978   4.247   7.013 -0.1747 -0.4564  0.2064
   27MOL   C14923601   5.930   4.375   6.972 -0.0356  0.9425 -0.7956
   27MOL   C15023602   5.859   4.454   7.063  0.1783 -0.8746 -0.4829
   27MOL   C15123603   5.840   4.407   7.199  0.2339  0.1757 -0.3508
   27MOL   O15223604   5.949   4.415   6.839 -0.3217  0.5942 -0.0051
   27MOL   C15323605   6.066   4.377   6.774  0.2018 -0.3487  0.6281
   27MOL   C15423606   6.192   4.392   6.834 -0.1242  0.2652 -0.5413
   27MOL   C15523607   6.314   4.355   6.773  0.3884 -0.2743 -0.0066
   27MOL   C15623608   6.309   4.298   6.646 -0.0973 -0.3824 -0.1137
   27MOL   C15723609   6.181   4.273   6.586  0.1830  0.2670 -0.3172
   27MOL   C15823610   6.058   4.310   6.649  0.1185 -0.3488 -0.0508
   27MOL   C15923611   6.431   4.245   6.584 -0.7475 -0.2281  0.7405
   27MOL   C16023612   6.501   4.328   6.498  0.6258 -0.3424 -0.1711
   27MOL   C16123613   6.606   4.272   6.426  0.3657  0.3410  0.1190
   27MOL   C16223614   6.662   4.145   6.453  0.8909 -0.8282 -0.0442
   27MOL   C16323615   6.604   4.077   6.559 -0.0247 -0.5275 -0.2899
   27MOL   C16423616   6.479   4.118   6.614 -0.3773  0.2207  0.0359
   27MOL   O16523617   6.772   4.092   6.391  0.5494 -0.1299 -0.3599
   27MOL   H16623618   5.865   4.561   7.749 -0.1317 -0.2429 -0.8016
   27MOL   H16723619   5.768   4.410   7.596 -0.5414  0.9454  2.7721
   27MOL   H16823620   6.154   4.286   7.450 -1.2702 -1.1415 -0.2661
   27MOL   H16923621   6.262   4.469   7.598 -0.4624 -0.1801  1.0638
   27MOL   H17023622   6.013   4.111   7.176 -1.8438  1.1366  2.9791
   27MOL   H17123623   6.018   4.179   6.939  1.0028 -1.2706  1.5629
   27MOL   H17223624   5.813   4.543   7.023  3.2253  0.8333 -0.3197
   27MOL   H17323625   5.777   4.456   7.271 -0.0344 -1.9886  0.9199
   27MOL   H17423626   6.191   4.435   6.934 -0.3875  2.4973 -1.4631
   27MOL   H17523627   6.410   4.371   6.821  1.1168 -1.6003 -0.9749
   27MOL   H17623628   6.173   4.224   6.490  2.3865 -1.6257  0.4086
   27MOL   H17723629   5.966   4.290   6.597  0.5914 -1.9021 -0.3060
   27MOL   H17823630   6.459   4.425   6.482  1.0076 -0.5435 -2.6081
   27MOL   H17923631   6.646   4.333   6.346  0.1133  0.8429  0.3751
   27MOL   H18023632   6.646   3.985   6.599  0.5155 -0.1829 -0.0711
   27MOL   H18123633   6.430   4.058   6.689  2.7054 -0.3662  1.6490
   27MOL   C18223634   6.873   4.043   6.475  0.2205  0.0825 -0.2901
   27MOL   C18323635   6.945   4.128   6.565 -0.4148  0.2055  0.3559
   27MOL   C18423636   7.041   4.071   6.644 -0.1225 -0.3706  0.8059
   27MOL   C18523637   7.074   3.938   6.637  0.1016 -0.7386  0.0671
   27MOL   C18623638   7.017   3.855   6.537 -0.6967 -0.3158  0.4973
   27MOL   C18723639   6.906   3.906   6.463  0.0887  0.1671  0.0764
   27MOL   S18823640   7.205   3.878   6.744 -0.2358  0.2024  0.0752
   27MOL   O18923641   7.319   3.971   6.734 -0.2949 -0.1509 -0.1667
   27MOL   O19023642   7.223   3.732   6.728 -0.3086 -0.1020  0.4889
   27MOL   C19123643   7.134   3.886   6.911 -0.4832 -0.3275 -0.0813
   27MOL   C19223644   7.102   3.765   6.979 -0.2759 -0.0991 -0.4759
   27MOL   C19323645   7.047   3.771   7.110  0.5212 -0.3492 -0.0355
   27MOL   C19423646   7.014   3.895   7.167  0.0430  0.0557  0.2006
   27MOL   C19523647   7.051   4.015   7.100  0.4719 -0.1696 -0.7655
   27MOL   C19623648   7.116   4.014   6.976  0.7272  0.2851  0.7330
   27MOL   O19723649   6.948   3.900   7.289  0.1764 -0.1657 -0.5773
   27MOL   C19823650   7.016   3.891   7.408  0.1677  0.2012  0.8432
   27MOL   C19923651   6.998   3.771   7.487  0.2782  0.0702  0.4071
   27MOL   C20023652   7.067   3.755   7.609  0.0336 -0.5360  0.1184
   27MOL   C20123653   7.172   3.846   7.645 -0.5412 -0.0679 -0.0871
   27MOL   C20223654   7.202   3.953   7.553  0.2802  0.3194 -0.4532
   27MOL   C20323655   7.125   3.975   7.443  0.1542  0.3592 -0.1424
   27MOL   C20423656   7.232   3.838   7.778 -0.2107  0.4879 -0.5683
   27MOL   C20523657   7.225   3.722   7.856 -0.2018  0.0647  0.6778
   27MOL   C20623658   7.291   3.712   7.981  0.1060  0.5251  0.6014
   27MOL   C20723659   7.368   3.824   8.034  0.4972  0.3512  0.2432
   27MOL   C20823660   7.372   3.940   7.954 -0.4530 -0.1061 -1.0339
   27MOL   C20923661   7.306   3.946   7.828 -0.3976 -0.0712 -0.4010
   27MOL   O21023662   7.441   3.808   8.149  0.4329 -0.3747 -0.2533
   27MOL   H21123663   6.921   4.232   6.578  0.1762  0.5297 -1.1303
   27MOL   H21223664   7.083   4.125   6.727 -1.5273 -1.0836  2.0142
   27MOL   H21323665   7.051   3.753   6.536  1.6787  0.4403  0.8389
   27MOL   H21423666   6.861   3.844   6.387  3.9608 -1.5277 -0.9412
   27MOL   H21523667   7.119   3.668   6.936  1.1874  0.4647 -1.2086
   27MOL   H21623668   7.018   3.682   7.163  0.6277 -1.6015 -2.0459
   27MOL   H21723669   7.030   4.111   7.145  2.4620  0.1040 -0.3673
   27MOL   H21823670   7.136   4.114   6.941 -0.1931  0.0515 -0.4943
   27MOL   H21923671   6.927   3.700   7.449  2.1820 -0.8068 -1.5576
   27MOL   H22023672   7.037   3.672   7.670  0.0044  0.0272  0.8806
   27MOL   H22123673   7.276   4.028   7.576 -0.3369  0.5190  0.9275
   27MOL   H22223674   7.146   4.058   7.377  2.5623 -1.1431 -1.3267
   27MOL   H22323675   7.179   3.634   7.814  0.2881 -0.3144  0.9271
   27MOL   H22423676   7.294   3.630   8.052  2.6848  1.4187  1.5667
   27MOL   H22523677   7.435   4.022   7.984  0.8074 -0.7883 -1.7411
   27MOL   H22623678   7.311   4.039   7.774  2.2794 -0.4911 -0.9440
   27MOL   C22723679   7.396   3.849   8.278  0.1743  0.4877  0.2438
   27MOL   C22823680   7.263   3.870   8.304 -0.5430 -0.6970  0.1586
   27MOL   C22923681   7.232   3.899   0.076 -0.1814  0.5753 -0.5588
   27MOL   C23023682   7.328   3.895   0.177 -0.0563  0.2483  0.6038
   27MOL   C23123683   7.461   3.872   0.143 -0.0860 -0.1126  0.1887
   27MOL   C23223684   7.496   3.852   0.010 -0.0865  0.3188 -0.8201
   27MOL   S23323685   7.289   3.934   0.342 -0.1975 -0.0576 -0.2777
   27MOL   O23423686   7.306   4.078   0.355 -0.4744 -0.1673 -0.8031
   27MOL   O23523687   7.373   3.837   0.419 -0.1789 -0.0194  0.0601
   27MOL   C23623688   7.119   3.887   0.356  0.2404  0.5874 -0.3537
   27MOL   C23723689   7.022   3.981   0.382  0.0182 -0.1315  0.2573
   27MOL   C23823690   6.883   3.948   0.399 -0.0523 -0.3408  0.2771
   27MOL   C23923691   6.845   3.809   0.397 -0.7948  0.3530  0.0927
   27MOL   C24023692   6.944   3.709   0.384  0.6532 -0.3789  0.3219
   27MOL   C24123693   7.077   3.750   0.361 -0.7440  0.4322  0.7339
   27MOL   O24223694   6.709   3.773   0.400  0.1705  0.3159 -0.2620
   27MOL   C24323695   6.634   3.858   0.479 -0.2890 -0.2641  0.6429
   27MOL   C24423696   6.552   3.958   0.426  0.0445  0.2169  0.7587
   27MOL   C24523697   6.475   4.040   0.510  0.4996 -0.6074  0.1620
   27MOL   C24623698   6.480   4.033   0.653 -0.0467  0.0058 -0.2401
   27MOL   C24723699   6.554   3.922   0.701 -1.3852 -0.0329 -0.6595
   27MOL   C24823700   6.637   3.843   0.618  0.1505 -0.1959  0.7276
   27MOL   C24923701   6.385   4.109   0.739 -0.2275  0.5775  0.6376
   27MOL   C25023702   6.288   4.049   0.830 -0.1037  0.5027  0.1872
   27MOL   C25123703   6.198   4.130   0.903  0.4333 -0.0068  0.4921
   27MOL   C25223704   6.206   4.269   0.899  0.1728 -0.4424 -0.1015
   27MOL   C25323705   6.287   4.330   0.802  0.7976  1.1203  0.7437
   27MOL   C25423706   6.373   4.248   0.724  1.0405  0.0875  0.3075
   27MOL   O25523707   6.131   4.335   0.997 -0.2275 -0.4011 -0.7260
   27MOL   H25623708   7.184   3.861   8.231  1.6433 -0.9520 -2.2433
   27MOL   H25723709   7.139   3.938   0.116  0.3597  0.8670  0.4347
   27MOL   H25823710   7.538   3.887   0.217 -1.0029  2.4226  0.6950
   27MOL   H25923711   7.594   3.831   8.336 -0.3666 -0.7425 -0.9664
   27MOL   H26023712   7.056   4.084   0.374  0.5723 -0.3959 -0.8624
   27MOL   H26123713   6.811   4.028   0.403  2.1559  1.8908 -2.4689
   27MOL   H26223714   6.926   3.603   0.383  1.6729 -0.5492 -2.1498
   27MOL   H26323715   7.153   3.676   0.344 -1.5758 -0.7230  1.9534
   27MOL   H26423716   6.536   3.974   0.320 -0.7969 -1.6332  0.5809
   27MOL   H26523717   6.410   4.111   0.461  1.1091 -0.4901 -0.4898
   27MOL   H26623718   6.561   3.901   0.806 -0.5996 -0.3643 -0.7775
   27MOL   H26723719   6.702   3.764   0.651  0.8520  0.5959  1.2700
   27MOL   H26823720   6.285   3.946   0.862  0.1554  1.3022  2.9202
   27MOL   H26923721   6.129   4.085   0.973  1.0167 -0.1518  0.9723
   27MOL   H27023722   6.297   4.437   0.798 -2.3771  1.4715  0.4735
   27MOL   H27123723   6.432   4.294   0.646  0.9678 -0.9758 -0.3889
   27MOL   C27223724   6.083   4.456   0.961  0.1757 -0.3325 -0.0487
   27MOL   C27323725   6.145   4.573   1.023  0.3174  0.8639 -0.5456
   27MOL   C27423726   6.102   4.702   0.988  0.8856  0.1331  0.4627
   27MOL   C27523727   6.013   4.713   0.879 -0.5146 -0.4723 -0.1219
   27MOL   C27623728   5.940   4.603   0.835 -0.0569 -0.2707 -0.2656
   27MOL   C27723729   5.979   4.470   0.866  1.0179 -0.1876  0.3033
   27MOL   S27823730   6.002   4.866   0.794 -0.2388  0.3121 -0.1722
   27MOL   O27923731   6.124   4.946   0.817 -0.7320  0.0199  0.3287
   27MOL   O28023732   5.872   4.925   0.825  0.1725  0.6881  0.3158
   27MOL   C28123733   6.016   4.824   0.622 -0.1716 -0.7533  0.5182
   27MOL   C28223734   6.112   4.733   0.580 -0.3894 -0.5177 -0.3949
   27MOL   C28323735   6.109   4.689   0.448  0.4975  0.0790  0.5939
   27MOL   C28423736   6.013   4.727   0.357 -0.0059 -0.7877 -0.0571
   27MOL   C28523737   5.924   4.830   0.397  0.2533  0.0793  1.4584
   27MOL   C28623738   5.920   4.874   0.528 -0.2870  0.4461  0.9513
   27MOL   O28723739   6.015   4.683   0.228  0.1044  0.2759  0.1927
   27MOL   C28823740   5.912   4.604   0.180 -0.0599  0.2750  0.0908
   27MOL   C28923741   5.896   4.472   0.235 -0.2657 -0.2827  0.2000
   27MOL   C29023742   5.799   4.388   0.173  0.1220  0.8644  0.6871
   27MOL   C29123743   5.713   4.436   0.069 -0.1455 -0.7561  0.3964
   27MOL   C29223744   5.722   4.573   0.030  0.2813  0.3786 -0.3075
   27MOL   C29323745   5.823   4.651   0.082  0.2059  0.2675  0.4499
   27MOL   C29423746   5.625   4.338   0.004  0.1553 -0.3332 -0.4323
   27MOL   C29523747   5.497   4.384   8.334  0.1287  0.2908  0.5819
   27MOL   C29623748   5.406   4.304   8.263  0.0874  0.6463 -0.7721
   27MOL   C29723749   5.445   4.171   8.221 -0.1727 -0.8369  0.4029
   27MOL   C29823750   5.576   4.128   8.254 -0.0984 -0.0955 -0.0543
   27MOL   C29923751   5.665   4.208   8.328 -0.3020  0.2567  0.4914
   27MOL   O30023752   5.354   4.089   8.152  0.2011  0.3539 -0.8112
   27MOL   H30123753   6.229   4.561   1.090 -2.0412  0.6814  2.4562
   27MOL   H30223754   6.151   4.796   1.012 -0.3266  0.7785  0.4430
   27MOL   H30323755   5.868   4.627   0.758  0.7294  1.9183 -0.3659
   27MOL   H30423756   5.940   4.386   0.810  1.6407 -1.3474  1.5937
   27MOL   H30523757   6.189   4.704   0.651 -0.0825 -1.9326 -1.2916
   27MOL   H30623758   6.191   4.627   0.413  1.2437  1.3854 -0.0268
   27MOL   H30723759   5.848   4.862   0.328  1.7443 -0.7049 -0.5780
   27MOL   H30823760   5.839   4.936   0.564 -0.1526 -0.5435  3.0009
   27MOL   H30923761   5.954   4.426   0.313  0.3475  0.6837  0.3128
   27MOL   H31023762   5.782   4.287   0.206 -1.1960  0.5803 -0.8174
   27MOL   H31123763   5.660   4.597   8.312 -1.3778 -2.8133 -0.0718
   27MOL   H31223764   5.833   4.744   0.026 -1.0248  0.3699  0.3933
   27MOL   H31323765   5.473   4.485   8.364  1.2626  1.1651 -1.2802
   27MOL   H31423766   5.310   4.353   8.262 -1.1536 -1.3317  4.1696
   27MOL   H31523767   5.599   4.023   8.241  1.1797  0.2640 -0.7431
   27MOL   H31623768   5.765   4.174   8.349 -0.1620 -1.3938 -2.4572
   27MOL   C31723769   5.222   4.096   8.187 -0.1110  0.7597  0.2189
   27MOL   C31823770   5.137   4.114   8.077  0.7476 -0.1210  0.4828
   27MOL   C31923771   5.001   4.130   8.088 -0.0287  0.3162  0.3474
   27MOL   C32023772   4.941   4.115   8.216 -0.0584  0.8132  0.3480
   27MOL   C32123773   5.026   4.090   8.326  0.0240  0.5500  0.2202
   27MOL   C32223774   5.168   4.090   8.315  0.4514  0.2985 -0.4219
   27MOL   S32323775   4.766   4.114   8.245  0.0330  0.2211 -0.4708
   27MOL   O32423776   4.706   4.146   8.120 -0.0340  0.4230 -0.1906
   27MOL   O32523777   4.735   4.183   0.005 -0.0767  0.1757 -0.3905
   27MOL   C32623778   4.713   3.949   8.275 -0.1412  0.8167 -0.4177
   27MOL   C32723779   4.580   3.927   8.318  0.5603  0.5608 -0.4361
   27MOL   C32823780   4.546   3.793   8.358 -0.3810 -0.4412  0.3909
   27MOL   C32923781   4.630   3.682   8.340  0.4768  1.0436  0.1504
   27MOL   C33023782   4.747   3.699   8.264 -0.0595 -0.3223  0.2175
   27MOL   C33123783   4.794   3.832   8.245  0.2638 -0.5150 -0.4288
   27MOL   O33223784   4.595   3.557   0.025 -0.0951  0.4415  0.2425
   27MOL   C33323785   4.489   3.499   8.335 -0.2384  0.0705 -0.0599
   27MOL   C33423786   4.445   3.374   0.025 -0.3053  0.1554  0.4478
   27MOL   C33523787   4.320   3.313   8.356 -0.3197 -0.5213  0.8601
   27MOL   C33623788   4.234   3.377   8.271  0.4978  0.4510 -0.1448
   27MOL   C33723789   4.277   3.495   8.197  0.6711  0.0854 -0.1672
   27MOL   C33823790   4.408   3.545   8.228  0.1341  0.1201  0.1760
   27MOL   C33923791   4.105   3.312   8.250 -0.3078 -0.5829 -0.0950
   27MOL   C34023792   4.023   3.257   8.352  0.1986  0.1852  0.2054
   27MOL   C34123793   3.899   3.197   8.327 -0.0560 -0.8217  0.1194
   27MOL   C34223794   3.853   3.186   8.192  0.1406 -0.6428  0.3934
   27MOL   C34323795   3.936   3.236   8.086  0.0923 -0.0408  0.3704
   27MOL   C34423796   4.064   3.292   8.112 -0.7122 -0.6498  0.3294
   27MOL   O34523797   3.733   3.130   8.162  0.0134  0.0124 -0.4387
   27MOL   H34623798   5.183   4.126   7.980  2.9126 -0.8657  1.3825
   27MOL   H34723799   4.945   4.149   7.997  0.7869 -0.3349 -0.3006
   27MOL   H34823800   4.972   4.063   0.050  0.2262  1.7694  0.7173
   27MOL   H34923801   5.221   4.070   0.041 -1.2244 -0.6838  0.3639
   27MOL   H35023802   4.509   4.007   8.331 -1.4548 -0.9935 -1.5478
   27MOL   H35123803   4.447   3.793   0.037 -0.7322  3.4552 -0.1925
   27MOL   H35223804   4.810   3.613   8.244  0.0303  0.3320 -2.4581
   27MOL   H35323805   4.894   3.848   8.207  0.1617 -0.5592 -0.7236
   27MOL   H35423806   4.507   3.330   0.101  0.3782 -1.7372 -1.1626
   27MOL   H35523807   4.293   3.221   0.040 -1.5996 -0.3759  0.4446
   27MOL   H35623808   4.224   3.539   8.114 -0.0851 -1.5892 -0.6060
   27MOL   H35723809   4.442   3.632   8.174  3.7388 -1.3064  0.0455
   27MOL   H35823810   4.063   3.275   0.085  0.6703 -0.4559  0.1436
   27MOL   H35923811   3.835   3.165   0.043 -0.5053  0.8675  0.4332
   27MOL   H36023812   3.900   3.235   7.985  0.7252 -1.7794  0.1357
   27MOL   H36123813   4.129   3.318   8.029 -0.9141 -0.8544  0.1047
   27MOL   C36223814   3.654   3.181   8.065 -0.2240  0.5340  0.6017
   27MOL   C36323815   3.608   3.319   8.060 -0.9226 -0.2803 -1.1190
   27MOL   C36423816   3.523   3.363   7.955  0.4355 -0.0789 -0.2088
   27MOL   C36523817   3.484   3.277   7.856  0.3453 -0.7525 -0.1408
   27MOL   C36623818   3.532   3.144   7.855 -0.0687 -0.2664  0.7064
   27MOL   C36723819   3.607   3.094   7.962  0.3029  0.2523 -0.5609
   27MOL   S36823820   3.383   3.343   7.727  0.6836  0.1058  0.1724
   27MOL   O36923821   3.308   3.464   7.777  0.1457 -0.0957  0.3401
   27MOL   O37023822   3.307   3.235   7.665  0.2037 -0.2779 -0.1214
   27MOL   C37123823   3.512   3.396   7.615 -0.1871  0.3010  0.7960
   27MOL   C37223824   3.575   3.520   7.630 -0.5667  0.2522 -0.3255
   27MOL   C37323825   3.698   3.541   7.566  0.4088 -0.7210 -0.0645
   27MOL   C37423826   3.758   3.442   7.487 -0.2436 -0.4928  0.2418
   27MOL   C37523827   3.687   3.330   7.459 -0.3669 -0.2395  0.5020
   27MOL   C37623828   3.568   3.307   7.525 -0.0416 -0.0544  0.1413
   27MOL   O37723829   3.881   3.477   7.439 -0.4445  0.7314 -0.1164
   27MOL   C37823830   3.981   3.459   7.531  0.0896  0.0116  0.4449
   27MOL   C37923831   4.050   3.572   7.578 -0.3705 -0.3892 -0.2436
   27MOL   C38023832   4.148   3.553   7.671  0.2898 -0.1822 -0.9064
   27MOL   C38123833   4.199   3.428   7.716  0.5612  0.0295  0.7065
   27MOL   C38223834   4.121   3.310   7.679 -0.6910 -0.1819  0.0681
   27MOL   C38323835   4.012   3.328   7.580  0.3323  0.1105 -0.1797
   27MOL   C38423836   4.316   3.423   7.804  0.5597 -0.0532 -0.1141
   27MOL   C38523837   4.372   3.296   7.828 -0.5352  0.0254  0.3557
   27MOL   C38623838   4.490   3.281   7.895  0.3683  0.5718  0.2270
   27MOL   C38723839   4.556   3.396   7.943 -0.2803 -0.3972  0.3981
   27MOL   C38823840   4.506   3.526   7.913  0.2317 -0.3420 -0.1637
   27MOL   C38923841   4.389   3.536   7.842  0.4299  0.1449  0.5118
   27MOL   O39023842   4.679   3.388   8.011  0.2986  0.5467 -0.3302
   27MOL   H39123843   3.645   3.386   8.137  0.1316 -1.9171 -0.1651
   27MOL   H39223844   3.500   3.468   7.966 -0.1834 -0.4547  2.4706
   27MOL   H39323845   3.512   3.080   7.771  0.3062  2.8023 -1.8069
   27MOL   H39423846   3.636   2.990   7.958  1.0633  0.4591 -0.3576
   27MOL   H39523847   3.533   3.587   7.703 -1.7547  0.5083 -1.2257
   27MOL   H39623848   3.746   3.636   7.580  0.2727 -0.9278  1.9835
   27MOL   H39723849   3.721   3.265   7.379  0.6692  1.5969 -0.5817
   27MOL   H39823850   3.524   3.209   7.524  0.2963 -0.2116  0.4668
   27MOL   H39923851   4.029   3.673   7.549  0.7082 -0.2843 -0.7033
   27MOL   H40023852   4.194   3.648   7.696 -0.8441 -0.1683  1.2853
   27MOL   H40123853   4.146   3.210   7.711  2.5568  0.3300 -0.7338
   27MOL   H40223854   3.973   3.235   7.542 -0.0197  0.9616 -1.9110
   27MOL   H40323855   4.324   3.210   7.785  1.2684 -1.5502  1.3756
   27MOL   H40423856   4.529   3.181   7.896 -1.1644 -0.0437 -0.6274
   27MOL   H40523857   4.560   3.614   7.942  0.5516 -0.8541  0.7982
   27MOL   H40623858   4.351   3.634   7.817 -1.5646 -0.4657  1.0544
   27MOL   C40723859   4.724   3.263   8.012 -0.4746  0.4144 -0.1532
   27MOL   C40823860   4.802   3.214   7.901 -0.9228  0.0346 -0.1370
   27MOL   C40923861   4.838   3.080   7.896  0.3753  0.0066 -0.9510
   27MOL   C41023862   4.793   2.990   7.995 -0.0793  0.0725 -0.2954
   27MOL   C41123863   4.715   3.038   8.102  0.3489  0.2274 -0.1818
   27MOL   C41223864   4.691   3.175   8.114 -0.0161 -0.2354 -0.2257
   27MOL   S41323865   4.817   2.809   7.996 -0.6189  0.2527  0.1514
   27MOL   O41423866   4.877   2.790   7.867  0.0560  0.0833 -0.1763
   27MOL   O41523867   4.684   2.751   8.021  0.3169 -0.8432  0.3404
   27MOL   C41623868   4.939   2.763   8.126  0.1365 -0.2700  0.6944
   27MOL   C41723869   5.076   2.752   8.097  0.6072 -0.0468 -0.2565
   27MOL   C41823870   5.162   2.694   8.195  0.3591 -0.0143 -0.3375
   27MOL   C41923871   5.104   2.668   8.321  0.3580  0.3903  0.3496
   27MOL   C42023872   4.970   2.686   8.355  0.0602 -0.3361 -0.1463
   27MOL   C42123873   4.882   2.725   8.254  0.0134 -0.1321 -0.4912
   27MOL   O42223874   5.181   2.633   0.058 -0.2640  0.0039  0.3377
   27MOL   C42323875   5.206   2.733   0.150  0.2922 -0.2795  0.3643
   27MOL   C42423876   5.143   2.718   0.273 -0.8244 -0.0340  0.1029
   27MOL   C42523877   5.145   2.826   0.366  0.6361 -0.7905 -0.3559
   27MOL   C42623878   5.217   2.948   0.331  0.2125 -0.0341 -0.1510
   27MOL   C42723879   5.280   2.955   0.205 -0.2441  0.2436 -0.6069
   27MOL   C42823880   5.276   2.842   0.123  0.3399  0.2986 -0.0298
   27MOL   C42923881   5.211   3.062   0.420 -0.6935  0.0919  0.2638
   27MOL   C43023882   5.086   3.093   0.478 -0.4099 -0.1721 -0.2765
   27MOL   C43123883   5.072   3.210   0.559 -0.3433 -0.5561  0.7609
   27MOL   C43223884   5.176   3.304   0.571 -0.1350  0.4927  0.0572
   27MOL   C43323885   5.301   3.267   0.520  0.1974  0.7194  0.1871
   27MOL   C43423886   5.317   3.153   0.440 -0.0006 -0.2117 -0.0951
   27MOL   O43523887   5.146   3.422   0.620 -0.3622  0.1105  0.1448
   27MOL   H43623888   4.827   3.281   7.820 -2.4590 -0.1986 -0.8115
   27MOL   H43723889   4.886   3.038   7.810  0.7793  2.1151 -1.7723
   27MOL   H43823890   4.676   2.973   8.179 -2.8822  2.5755  0.2718
   27MOL   H43923891   4.619   3.198   8.191 -1.9171  0.8074 -2.2543
   27MOL   H44023892   5.112   2.778   7.998 -0.0911 -0.5390 -0.6478
   27MOL   H44123893   5.266   2.675   8.178  0.5330  1.7075 -1.3358
   27MOL   H44223894   4.942   2.660   0.091  1.2235 -0.9536  0.0205
   27MOL   H44323895   4.777   2.746   8.272  0.2663 -0.3360  1.3477
   27MOL   H44423896   5.087   2.629   0.297  1.6872 -1.3182  1.3241
   27MOL   H44523897   5.089   2.811   0.457 -1.9852  2.5717 -1.3141
   27MOL   H44623898   5.335   3.044   0.177  1.9483  0.4729  3.8744
   27MOL   H44723899   5.328   2.845   0.028  1.4295  3.7467  0.6286
   27MOL   H44823900   5.000   3.029   0.469 -1.7347  1.5815 -0.4105
   27MOL   H44923901   4.973   3.237   0.593 -1.5032 -3.7312  0.0513
   27MOL   H45023902   5.390   3.326   0.537  0.4878  0.0255  1.1585
   27MOL   H45123903   5.414   3.121   0.404  1.6402  0.5389  3.4113
   27MOL   C45223904   5.112   3.528   0.532 -0.4579  0.1920  0.1840
   27MOL   C45323905   5.123   3.659   0.580 -0.3303 -0.5187 -0.6441
   27MOL   C45423906   5.083   3.765   0.500  0.4425 -0.3162  0.1241
   27MOL   C45523907   5.028   3.742   0.374 -0.0486  0.8409 -0.6408
   27MOL   C45623908   5.023   3.610   0.327 -0.0782 -0.6583 -0.1504
   27MOL   C45723909   5.064   3.501   0.403 -0.0834  0.0322  0.4962
   27MOL   S45823910   4.977   3.874   0.274 -0.2537 -0.3081  0.0187
   27MOL   O45923911   4.981   3.834   0.133  0.2802 -0.4730 -0.1972
   27MOL   O46023912   5.048   3.995   0.317  0.2984  0.2313  0.5211
   27MOL   C46123913   4.795   3.890   0.295 -0.3309 -0.7273 -0.1340
   27MOL   C46223914   4.721   3.781   0.332 -0.0782 -0.1567 -1.0115
   27MOL   C46323915   4.585   3.797   0.363 -0.2996 -0.0743 -0.0555
   27MOL   C46423916   4.519   3.923   0.350  0.0313  0.3508 -0.1662
   27MOL   C46523917   4.601   4.030   0.316 -0.5472  0.2811 -0.0977
   27MOL   C46623918   4.739   4.019   0.286  0.7103  0.0292 -0.8546
   27MOL   O46723919   4.387   3.941   0.374  0.0812  0.4824 -0.1333
   27MOL   C46823920   4.302   3.890   0.283  0.5242 -0.0632 -0.2000
   27MOL   C46923921   4.272   3.753   0.274 -0.0369  0.7379 -0.5020
   27MOL   C47023922   4.182   3.697   0.185 -1.1447 -0.5758  0.6025
   27MOL   C47123923   4.118   3.782   0.092  0.6113  0.3473 -0.0057
   27MOL   C47223924   4.132   3.920   0.111 -0.7039  0.6868 -0.3149
   27MOL   C47323925   4.227   3.974   0.197 -0.5613 -0.6547  0.1203
   27MOL   C47423926   4.056   3.736   8.339  0.3548  0.1610  0.5620
   27MOL   C47523927   4.085   3.790   8.210  0.4631 -0.1069  0.1718
   27MOL   C47623928   4.015   3.745   8.100 -0.4493  0.0425  0.6247
   27MOL   C47723929   3.925   3.638   8.109  0.3448 -0.2602 -0.5452
   27MOL   C47823930   3.908   3.572   8.233  0.2415  0.0187  0.2380
   27MOL   C47923931   3.966   3.625   8.350 -0.6792  0.5072 -0.2296
   27MOL   O48023932   3.857   3.595   7.999  0.3932  0.1097 -0.8635
   27MOL   H48123933   5.159   3.674   0.681  2.2418 -0.3423 -1.5533
   27MOL   H48223934   5.077   3.864   0.542  0.0273 -0.0909 -0.4468
   27MOL   H48323935   4.985   3.595   0.227  1.1334  1.4007 -0.9408
   27MOL   H48423936   5.062   3.404   0.356  1.1869  0.5402 -0.6413
   27MOL   H48523937   4.773   3.689   0.355  0.0903  0.1401 -0.1804
   27MOL   H48623938   4.530   3.707   0.387 -1.8184  0.4906 -1.3020
   27MOL   H48723939   4.559   4.129   0.303  1.0807  1.0728  0.4914
   27MOL   H48823940   4.796   4.105   0.255 -0.3043  0.4214 -1.6789
   27MOL   H48923941   4.322   3.686   0.343 -0.8553 -0.8934 -1.4749
   27MOL   H49023942   4.162   3.591   0.180 -2.6411 -0.3203  0.6917
   27MOL   H49123943   4.096   3.991   0.038 -0.5536  1.4456  0.3305
   27MOL   H49223944   4.241   4.081   0.206  0.7916 -0.9870  2.6151
   27MOL   H49323945   4.151   3.874   8.195 -2.1443  1.8786 -0.4712
   27MOL   H49423946   4.028   3.788   8.001 -1.2063  0.1953  0.5916
   27MOL   H49523947   3.838   3.492   8.248 -1.3405  1.4565  0.7799
   27MOL   H49623948   3.940   3.575   0.076  1.5580 -4.0104 -1.9206
   27MOL   C49723949   3.772   3.684   7.938  0.2645  0.0890  0.4455
   27MOL   C49823950   3.646   3.704   7.999  0.5719  0.2461 -0.7372
   27MOL   C49923951   3.559   3.802   7.953 -0.5050  0.5712 -0.2916
   27MOL   C50023952   3.594   3.888   7.845 -0.0229  0.0716 -0.2790
   27MOL   C50123953   3.721   3.872   7.788  0.0593  0.1883 -0.4103
   27MOL   C50223954   3.814   3.776   7.838  0.0243 -0.8548  0.0245
   27MOL   S50323955   3.470   4.005   7.780 -0.2762 -0.0116  0.1531
   27MOL   O50423956   3.537   4.113   7.710  0.6288 -0.0342 -0.5388
   27MOL   O50523957   3.379   4.035   7.892  0.4267 -0.1014 -0.3777
   27MOL   C50623958   3.360   3.916   7.666 -0.1750 -0.3883  0.3622
   27MOL   C50723959   3.312   3.986   7.550  0.1607 -0.2190  0.2660
   27MOL   C50823960   3.220   3.922   7.467  0.3284 -0.2776  0.3619
   27MOL   C50923961   3.178   3.786   7.489  0.0715  0.0095 -0.0423
   27MOL   C51023962   3.221   3.724   7.606 -0.5425  0.5440 -0.1466
   27MOL   C51123963   3.306   3.793   7.697  0.5718  0.7315  0.2969
   27MOL   O51223964   3.101   3.723   7.401 -0.1490  0.0370  0.5768
   27MOL   C51323965   3.143   3.601   7.341  0.4894  0.3127  0.1657
   27MOL   C51423966   3.082   3.481   7.365 -0.8291 -0.3725  0.3809
   27MOL   C51523967   3.129   3.363   7.305  0.3163  0.9482  0.2985
   27MOL   C51623968   3.245   3.370   7.220 -0.0961  0.0760  0.1133
   27MOL   C51723969   3.308   3.492   7.197 -0.1525 -1.2742  0.1339
   27MOL   C51823970   3.248   3.605   7.251 -0.0400 -0.2380 -0.0128
   27MOL   C51923971   3.307   3.246   7.166 -0.0967 -0.4103  0.5407
   27MOL   C52023972   3.347   3.243   7.034  0.4242  0.0949  0.6748
   27MOL   C52123973   3.413   3.128   6.983  0.6444  0.3482  0.4696
   27MOL   C52223974   3.445   3.022   7.069 -0.5947  0.1337  0.2998
   27MOL   C52323975   3.404   3.030   7.203  0.0621 -0.1473 -0.9216
   27MOL   C52423976   3.338   3.143   7.249  0.8275  0.1243  0.2518
   27MOL   O52523977   3.521   2.913   7.028  0.0371  0.2605 -0.4773
   27MOL   H52623978   3.624   3.635   8.079  0.1460 -1.0147 -1.9108
   27MOL   H52723979   3.463   3.816   7.999 -1.1758 -2.3154 -0.7518
   27MOL   H52823980   3.739   3.931   7.699  1.3254 -1.1536 -1.0544
   27MOL   H52923981   3.915   3.767   7.801  0.0142  1.1647 -0.5575
   27MOL   H53023982   3.353   4.083   7.525 -0.3463 -0.8410 -3.3323
   27MOL   H53123983   3.182   3.982   7.386  1.3398 -1.4225 -0.9943
   27MOL   H53223984   3.175   3.627   7.619 -0.8914  0.4331 -2.0264
   27MOL   H53323985   3.302   3.739   7.790 -0.4271 -0.6299 -0.5193
   27MOL   H53423986   2.992   3.495   7.422  0.8350  3.3335  2.2895
   27MOL   H53523987   3.076   3.271   7.324  0.8717  0.9375  1.8406
   27MOL   H53623988   3.401   3.499   7.143 -0.1779  1.1798  0.3066
   27MOL   H53723989   3.300   3.698   7.234  0.2347 -0.4945 -0.5557
   27MOL   H53823990   3.321   3.321   6.965  2.6539 -0.9793 -1.4534
   27MOL   H53923991   3.438   3.128   6.878 -1.4739 -1.9034 -0.1015
   27MOL   H54023992   3.412   2.940   7.263  1.9672 -0.6339 -1.8656
   27MOL   H54123993   3.306   3.138   7.352 -1.9010  1.7559 -0.4737
   27MOL   C54223994   3.529   2.868   6.898  0.2407  0.1379  0.4276
   27MOL   C54323995   3.415   2.851   6.811 -0.7395 -0.8903 -0.0431
   27MOL   C54423996   3.434   2.795   6.681  0.2829  0.7291  0.4898
   27MOL   C54523997   3.561   2.755   6.640 -0.1066  0.3456  0.3526
   27MOL   C54623998   3.671   2.787   6.717 -0.0116  0.8032  0.1122
   27MOL   C54723999   3.657   2.837   6.847  0.1073  0.0328  0.2110
   27MOL   S54824000   3.597   2.667   6.484 -0.1013  0.2127 -0.1034
   27MOL   O54924001   3.741   2.653   6.459 -0.2892  0.1899 -0.0903
   27MOL   O55024002   3.499   2.723   6.387  0.4402 -0.1876  0.0569
   27MOL   C55124003   3.536   2.506   6.522  0.6628 -0.4153 -0.3049
   27MOL   C55224004   3.618   2.391   6.518  0.2291  0.3471  0.2042
   27MOL   C55324005   3.566   2.265   6.533  0.1330  0.4351 -0.3565
   27MOL   C55424006   3.430   2.241   6.539  0.3830  0.6763  0.1505
   27MOL   C55524007   3.343   2.351   6.542 -0.0639 -0.0429 -0.5627
   27MOL   C55624008   3.395   2.479   6.539  0.3573  0.2143  0.8865
   27MOL   O55724009   3.388   2.103   6.533 -0.7595 -0.2757 -0.4686
   27MOL   C55824010   3.268   2.071   6.586  0.1354 -0.6944  0.0292
   27MOL   C55924011   3.251   2.055   6.726  0.6145 -0.2017  0.3899
   27MOL   C56024012   3.123   2.027   6.774 -0.0224  0.0366  0.2344
   27MOL   C56124013   3.011   2.006   6.686  0.1366  0.5836  0.3019
   27MOL   C56224014   3.040   2.007   6.544 -0.2882 -0.0760  0.2792
   27MOL   C56324015   3.167   2.049   6.493 -0.0322  0.0349 -0.2876
   27MOL   C56424016   2.875   1.970   6.740  0.0802  0.3491 -0.3082
   27MOL   C56524017   2.833   2.031   6.862 -0.4451  0.4236  0.8067
   27MOL   C56624018   2.713   1.988   6.921 -0.0844 -0.7773 -0.6484
   27MOL   C56724019   2.647   1.871   6.875  0.0676  0.0310  0.3082
   27MOL   C56824020   2.691   1.811   6.753  0.4596  0.3981  0.2221
   27MOL   C56924021   2.807   1.863   6.692 -0.1407 -0.0633  0.0490
   27MOL   O57024022   2.548   1.812   6.945 -0.2803 -0.1239 -0.0223
   27MOL   H57124023   3.318   2.886   6.841 -0.7483 -0.6666 -0.3195
   27MOL   H57224024   3.352   2.766   6.617  0.6054 -0.7228  0.7154
   27MOL   H57324025   3.769   2.753   6.689 -0.1176  0.1988  0.4643
   27MOL   H57424026   3.750   2.850   6.899 -0.1077 -0.2786  0.6766
   27MOL   H57524027   3.723   2.390   6.490  0.0394 -1.3620 -0.4953
   27MOL   H57624028   3.626   2.175   6.527 -0.5029 -0.2208  2.6516
   27MOL   H57724029   3.237   2.330   6.548  0.1622 -0.4837  2.5616
   27MOL   H57824030   3.317   2.553   6.529  1.7505  1.6090  0.1773
   27MOL   H57924031   3.343   2.070   6.782  0.4236 -0.4342  0.7665
   27MOL   H58024032   3.116   2.021   6.882 -0.9490 -3.1476  0.0319
   27MOL   H58124033   2.967   1.972   6.472 -0.7304 -0.2823  0.8199
   27MOL   H58224034   3.186   2.054   6.387  0.5146 -1.9726 -0.3013
   27MOL   H58324035   2.892   2.112   6.903  1.5527 -0.7570  0.3184
   27MOL   H58424036   2.666   2.023   7.012  2.2687 -0.7916  0.5994
   27MOL   H58524037   2.663   1.711   6.720 -0.8985  0.7840  0.1743
   27MOL   H58624038   2.865   1.805   6.621  1.1675  2.4397 -0.9679
   27MOL   C58724039   2.583   1.756   7.068  0.1246  0.6835  0.2759
   27MOL   C58824040   2.695   1.661   7.066 -0.5683 -0.1350 -0.5784
   27MOL   C58924041   2.733   1.596   7.180  1.2485  0.2074 -0.1652
   27MOL   C59024042   2.669   1.624   7.301  0.0843  0.6691 -0.9136
   27MOL   C59124043   2.552   1.703   7.312 -0.7633  0.1549 -0.4767
   27MOL   C59224044   2.508   1.764   7.192 -0.6610 -0.1038 -0.6003
   27MOL   S59324045   2.733   1.540   7.444 -0.0600 -0.2682 -0.0976
   27MOL   O59424046   2.655   1.596   7.562 -0.2932  0.0473  0.9499
   27MOL   O59524047   2.882   1.544   7.438 -0.2752  0.1618  0.4460
   27MOL   C59624048   2.699   1.363   7.430  0.5697  0.0326 -0.0294
   27MOL   C59724049   2.625   1.300   7.536  0.4671  0.7650 -0.1296
   27MOL   C59824050   2.601   1.158   7.522 -0.0640 -0.0850 -0.1234
   27MOL   C59924051   2.663   1.084   7.411 -0.5344  0.0650 -0.3048
   27MOL   C60024052   2.746   1.151   7.318 -0.1572  0.2184 -0.2819
   27MOL   C60124053   2.759   1.285   7.328 -0.0715 -0.3086  0.1973
   27MOL   O60224054   2.619   0.953   7.384 -0.0432 -0.4005 -0.2427
   27MOL   C60324055   2.508   0.960   7.302 -0.8216  0.2594 -0.0446
   27MOL   C60424056   2.382   0.967   7.364  0.2220 -0.4732  0.7045
   27MOL   C60524057   2.267   0.979   7.287 -0.4120  0.4221  0.1527
   27MOL   C60624058   2.278   0.975   7.148 -0.1769 -0.5412 -0.2980
   27MOL   C60724059   2.403   0.968   7.081 -0.8011 -0.3050 -0.1056
   27MOL   C60824060   2.520   0.963   7.161 -0.2229 -0.1646  0.3209
   27MOL   C60924061   2.147   0.982   7.071  0.0679 -0.2112  0.5069
   27MOL   C61024062   2.124   1.089   6.984 -0.4667  1.0571  0.0480
   27MOL   C61124063   1.997   1.112   6.929 -0.7945 -0.0427 -1.0848
   27MOL   C61224064   1.894   1.022   6.958  0.2492  0.3292  0.5486
   27MOL   C61324065   1.916   0.917   7.053  0.3164  0.3854 -0.8172
   27MOL   C61424066   2.044   0.902   7.114 -0.6075  0.4305 -0.0804
   27MOL   O61524067   1.781   1.040   6.888 -0.4570  0.0067  0.6457
   27MOL   H61624068   2.754   1.640   6.978 -0.5924  0.0524 -0.6398
   27MOL   H61724069   2.824   1.539   7.172  2.5717  2.2675 -0.3415
   27MOL   H61824070   2.498   1.721   7.404 -0.0265 -1.2723  0.2518
   27MOL   H61924071   2.421   1.828   7.191  0.3780  1.3357 -0.0535
   27MOL   H62024072   2.598   1.347   7.629  0.9627  0.5255  0.1348
   27MOL   H62124073   2.553   1.103   7.602 -1.9061  2.5375  0.6439
   27MOL   H62224074   2.784   1.099   7.231 -1.3164 -2.0602  0.5382
   27MOL   H62324075   2.825   1.331   7.256 -0.8335 -0.0808 -0.3607
   27MOL   H62424076   2.378   0.953   7.471 -0.9740 -0.4094  0.6724
   27MOL   H62524077   2.176   0.973   7.345 -0.7954  0.4997 -0.4346
   27MOL   H62624078   2.414   0.964   6.973 -1.6065  1.6103 -0.2715
   27MOL   H62724079   2.622   0.954   7.126 -0.1146  0.0284  0.5812
   27MOL   H62824080   2.207   1.149   6.949  0.8616 -1.1695 -0.7232
   27MOL   H62924081   1.982   1.190   6.855 -1.0384  0.8301 -0.1278
   27MOL   H63024082   1.827   0.862   7.081 -0.4095  1.5695 -0.7600
   27MOL   H63124083   2.070   0.818   7.177 -1.6216 -1.4335 -2.1086
   27MOL   C63224084   1.658   1.007   6.951 -0.2693 -1.2905  0.7288
   27MOL   C63324085   1.603   1.112   7.027 -0.2185 -0.3301  1.0439
   27MOL   C63424086   1.480   1.093   7.085 -0.2613  0.7941 -0.4506
   27MOL   C63524087   1.409   0.971   7.072  0.5245 -0.3579  0.1018
   27MOL   C63624088   1.467   0.865   7.001  0.2222  0.3095 -0.4295
   27MOL   C63724089   1.593   0.881   6.935 -0.4612  0.9232  0.2053
   27MOL   S63824090   1.231   0.962   7.110  0.0211 -0.0687  0.0916
   27MOL   O63924091   1.175   0.844   7.051  0.2598  0.4728  0.3895
   27MOL   O64024092   1.189   1.096   7.064 -0.0150  0.1820  0.1849
   27MOL   C64124093   1.215   0.961   7.286 -0.7637  0.4740 -0.0228
   27MOL   C64224094   1.101   1.023   7.345  0.7244  1.1317 -0.1088
   27MOL   C64324095   1.092   1.008   7.487  0.1680 -0.4579  0.0402
   27MOL   C64424096   1.191   0.947   7.565  0.4928  0.3451  0.2071
   27MOL   C64524097   1.305   0.890   7.504  0.5324 -0.2399 -0.1944
   27MOL   C64624098   1.316   0.901   7.367  0.7643 -0.1432  0.2045
   27MOL   O64724099   1.185   0.962   7.699  0.2568  0.1249 -0.2263
   27MOL   C64824100   1.256   0.873   7.780  0.5632 -0.4972 -0.4999
   27MOL   C64924101   1.360   0.920   7.856  0.1792 -0.3973 -0.7307
   27MOL   C65024102   1.431   0.820   7.925 -0.0565 -0.2946 -0.2291
   27MOL   C65124103   1.388   0.691   7.951  0.5204  0.2035  0.0949
   27MOL   C65224104   1.267   0.650   7.888  0.3256  0.5330  0.5971
   27MOL   C65324105   1.206   0.736   7.799 -0.4819 -0.2341  0.2488
   27MOL   C65424106   1.467   0.588   8.021  0.1617  0.2641 -0.3284
   27MOL   C65524107   1.409   0.484   8.097 -0.4666  0.0694 -1.3367
   27MOL   C65624108   1.485   0.385   8.165  0.3773 -0.4162 -0.0139
   27MOL   C65724109   1.628   0.388   8.159  0.0668 -0.5002  0.1268
   27MOL   C65824110   1.690   0.496   8.095 -0.0603  0.5565  0.3437
   27MOL   C65924111   1.606   0.587   8.026 -0.6670 -0.1723 -0.6466
   27MOL   O66024112   1.693   0.299   8.236 -0.3907  0.0063 -0.0535
   27MOL   H66124113   1.643   1.212   7.031 -1.0957  0.0170  1.2520
   27MOL   H66224114   1.433   1.183   7.122 -1.7632 -0.0269 -0.2831
   27MOL   H66324115   1.409   0.774   6.992 -2.9317  2.2405 -0.5499
   27MOL   H66424116   1.636   0.805   6.872 -0.3250  1.4666 -0.3586
   27MOL   H66524117   1.025   1.075   7.288 -0.3035  0.1971  0.3833
   27MOL   H66624118   1.010   1.067   7.527  0.1247  1.3959 -2.6462
   27MOL   H66724119   1.388   0.846   7.556  0.1750 -3.3253 -2.0631
   27MOL   H66824120   1.403   0.848   7.330  0.9726 -1.0704  1.9821
   27MOL   H66924121   1.398   1.021   7.851  2.0761 -0.9529  1.3464
   27MOL   H67024122   1.532   0.835   7.961  0.1367  1.2088 -1.3597
   27MOL   H67124123   1.228   0.549   7.896 -0.8066  0.7183 -2.1765
   27MOL   H67224124   1.120   0.697   7.747 -0.2607  1.5634 -1.5332
   27MOL   H67324125   1.301   0.478   8.101 -0.2168 -5.0674  0.6569
   27MOL   H67424126   1.428   0.309   8.217 -0.4090 -0.4658 -0.9289
   27MOL   H67524127   1.798   0.500   8.101  0.1679 -1.7607 -1.4221
   27MOL   H67624128   1.654   0.666   7.970  4.2688 -0.4663  2.7731
   27MOL   C67724129   1.690   0.324   0.004  0.3426  0.7655 -0.2825
   27MOL   C67824130   1.758   0.433   0.065  0.3837  0.5513  0.0416
   27MOL   C67924131   1.753   0.462   0.205 -1.1279  0.5552  0.5262
   27MOL   C68024132   1.672   0.382   0.289  0.6625 -0.1393 -0.2805
   27MOL   C68124133   1.605   0.277   0.231 -1.0548  0.6654  0.0956
   27MOL   C68224134   1.614   0.245   0.092  0.0822 -0.1467  0.1379
   27MOL   S68324135   1.675   0.409   0.465 -0.0523  0.1179 -0.2357
   27MOL   O68424136   1.649   0.554   0.479 -0.6698  0.0944 -0.0123
   27MOL   O68524137   1.794   0.344   0.522 -0.6100 -0.4357  0.1993
   27MOL   C68624138   1.534   0.324   0.529  0.3468  1.1599 -0.1118
   27MOL   C68724139   1.400   0.352   0.482 -0.4738  0.3050 -0.0942
   27MOL   C68824140   1.286   0.290   0.539 -0.2978 -0.3790  0.0693
   27MOL   C68924141   1.307   0.204   0.652  0.1830  0.5914  0.2018
   27MOL   C69024142   1.438   0.169   0.690 -0.0164 -0.1310  0.2684
   27MOL   C69124143   1.555   0.222   0.628  0.7474 -0.1420 -0.0031
   27MOL   O69224144   1.204   0.136   0.711  0.4883 -0.2907  0.1397
   27MOL   C69324145   1.080   0.190   0.703 -0.4026  0.1271 -0.0148
   27MOL   C69424146   0.974   0.127   0.634  0.0249 -0.0129 -0.7048
   27MOL   C69524147   0.854   0.193   0.610  0.2558  0.1653  0.4367
   27MOL   C69624148   0.830   0.321   0.666  0.1052 -0.5531  1.1072
   27MOL   C69724149   0.930   0.381   0.743 -0.0241  0.7669 -0.5596
   27MOL   C69824150   1.051   0.315   0.756 -0.4200 -0.1476  0.2522
   27MOL   C69924151   0.703   0.391   0.632  0.3067 -0.1621 -0.8551
   27MOL   C70024152   0.661   0.395   0.499 -0.7120 -0.4461 -0.0617
   27MOL   C70124153   0.547   0.465   0.458 -0.1156  0.0643 -0.7090
   27MOL   C70224154   0.471   0.527   0.558  0.3669 -0.3168 -0.6012
   27MOL   C70324155   0.499   0.504   0.690  0.5276 -0.2443  0.4407
   27MOL   C70424156   0.620   0.438   0.733 -0.1277 -0.1244 -0.0656
   27MOL   O70524157   0.355   0.602   0.531  0.4689  0.0956  0.3476
   27MOL   H70624158   1.819   0.499   0.005  2.4960  1.3982  2.9976
   27MOL   H70724159   1.825   0.531   0.247  0.6303 -0.1455 -1.2736
   27MOL   H70824160   1.559   0.199   0.290  2.0898  0.4991  2.4550
   27MOL   H70924161   1.553   0.161   0.063  1.1981 -1.6075  1.9303
   27MOL   H71024162   1.389   0.433   0.411  1.6246  1.0079  0.3434
   27MOL   H71124163   1.187   0.328   0.516  0.4391  1.5523 -0.0542
   27MOL   H71224164   1.448   0.085   0.756  0.0992  0.2665  0.7639
   27MOL   H71324165   1.655   0.191   0.652  0.6835  1.1421  2.0079
   27MOL   H71424166   0.992   0.030   0.590 -1.4722  0.3123 -2.0612
   27MOL   H71524167   0.774   0.140   0.561 -0.2541  0.4562  0.9419
   27MOL   H71624168   0.927   0.480   0.787  2.5581  0.7883 -0.4028
   27MOL   H71724169   1.128   0.361   0.816  1.6615 -1.1186 -1.5789
   27MOL   H71824170   0.725   0.351   0.423  0.2999  2.2577 -0.8269
   27MOL   H71924171   0.523   0.478   0.354 -1.5157  1.0308 -0.2712
   27MOL   H72024172   0.439   0.547   0.769  0.5301 -0.0178  0.3195
   27MOL   H72124173   0.641   0.421   0.837  2.0376  1.2248 -0.2473
   27MOL   C72224174   0.342   0.731   0.577 -0.3714 -0.3531 -0.6592
   27MOL   C72324175   0.402   0.832   0.500 -0.4436  0.5109 -0.9055
   27MOL   C72424176   0.411   0.960   0.549 -0.1337 -0.1435 -0.1177
   27MOL   C72524177   0.334   0.998   0.664 -0.4870  0.8998 -1.1172
   27MOL   C72624178   0.263   0.898   0.737 -0.0407 -0.2586 -0.0678
   27MOL   C72724179   0.274   0.768   0.696  0.3737  0.7529  0.5495
   27MOL   S72824180   0.315   1.159   0.718 -0.0535 -0.0693  0.3000
   27MOL   O72924181   0.244   1.166   0.845 -0.1656 -0.3670  0.2505
   27MOL   O73024182   0.263   1.236   0.606 -0.2827 -0.3295 -0.1773
   27MOL   C73124183   0.480   1.230   0.752  0.3124 -0.3748  0.0530
   27MOL   C73224184   0.491   1.372   0.785  0.2048  0.1548  0.0834
   27MOL   C73324185   0.615   1.423   0.823 -0.7096  0.3635  0.2059
   27MOL   C73424186   0.729   1.338   0.829  0.3536 -0.0764  0.8736
   27MOL   C73524187   0.719   1.201   0.798 -0.1878  0.2358  0.0371
   27MOL   C73624188   0.599   1.152   0.755 -0.2815 -0.2228  0.2424
   27MOL   O73724189   0.850   1.389   0.860  0.1168  0.5500  0.2058
   27MOL   C73824190   0.915   1.462   0.765 -0.0879 -0.0280 -0.5434
   27MOL   C73924191   0.923   1.600   0.774  0.5031 -0.6076 -0.4802
   27MOL   C74024192   1.003   1.673   0.684  0.2073 -0.4661 -0.1037
   27MOL   C74124193   1.060   1.604   0.571 -0.3392 -0.9098  0.7944
   27MOL   C74224194   1.055   1.462   0.570  0.6254  0.4493  0.4224
   27MOL   C74324195   0.988   1.391   0.665 -0.5170  0.4570 -0.0347
   27MOL   C74424196   1.141   1.674   0.464  0.2693  0.4973 -0.0016
   27MOL   C74524197   1.271   1.622   0.432 -0.6408 -0.4413 -0.0743
   27MOL   C74624198   1.350   1.683   0.331 -0.0295  0.5979 -0.9089
   27MOL   C74724199   1.294   1.793   0.260 -0.4491  0.6678  0.0812
   27MOL   C74824200   1.165   1.844   0.286 -0.1838  0.1122  0.2690
   27MOL   C74924201   1.089   1.788   0.393 -0.2706  0.1728 -0.1716
   27MOL   O75024202   1.363   1.845   0.149  0.0064  0.5483 -0.4939
   27MOL   H75124203   0.452   0.805   0.408 -1.7058 -1.3883 -1.0775
   27MOL   H75224204   0.462   1.042   0.501  0.8035 -1.0978 -0.7562
   27MOL   H75324205   0.214   0.929   0.829  1.9732  1.1083  0.5715
   27MOL   H75424206   0.223   0.698   0.761 -0.0504 -1.4443 -2.0611
   27MOL   H75524207   0.396   1.422   0.791 -0.2269 -0.8558  1.9838
   27MOL   H75624208   0.621   1.525   0.857 -1.7963  0.8125 -0.9196
   27MOL   H75724209   0.811   1.144   0.800  0.2662  0.9497 -0.3095
   27MOL   H75824210   0.584   1.045   0.746  0.5867 -0.2002 -1.9251
   27MOL   H75924211   0.868   1.643   0.856  1.0218 -1.1800  0.1724
   27MOL   H76024212   0.990   1.780   0.688  0.1669 -0.4952  0.5559
   27MOL   H76124213   1.105   1.411   0.489 -0.0115 -1.5575  1.2693
   27MOL   H76224214   0.986   1.283   0.654 -0.7190  0.2285  2.0425
   27MOL   H76324215   1.314   1.545   0.494 -0.4240 -0.4287 -0.2093
   27MOL   H76424216   1.452   1.650   0.316 -0.0250 -0.5972  1.3948
   27MOL   H76524217   1.123   1.928   0.232 -0.3375  1.9229  3.0986
   27MOL   H76624218   0.994   1.832   0.420 -0.1317  0.3092  0.0978
   27MOL   C76724219   1.389   1.751   0.057  0.1976  0.2857 -0.5877
   27MOL   C76824220   1.287   1.705   8.334  0.1706  0.7544  0.6781
   27MOL   C76924221   1.301   1.576   8.271  0.2121  0.1712  0.2736
   27MOL   C77024222   1.425   1.518   8.286  0.2655  0.2604  0.4032
   27MOL   C77124223   1.533   1.569   8.358  0.6637  0.0816 -0.5604
   27MOL   C77224224   1.511   1.688   0.067 -0.1585 -0.3729  0.6413
   27MOL   S77324225   1.437   1.344   8.228  0.2471 -0.3805 -0.0865
   27MOL   O77424226   1.330   1.275   8.306 -0.3034 -0.2041 -0.1052
   27MOL   O77524227   1.578   1.305   8.255  0.2286  0.3788 -0.5543
   27MOL   C77624228   1.399   1.335   8.046 -0.2020  0.2813 -0.2914
   27MOL   C77724229   1.501   1.320   7.956  0.2240  0.3968  0.1617
   27MOL   C77824230   1.481   1.292   7.821  0.6859  0.0511 -0.1944
   27MOL   C77924231   1.350   1.290   7.773  0.3678  0.1436  0.2495
   27MOL   C78024232   1.241   1.298   7.864  0.4463  0.0133 -0.5096
   27MOL   C78124233   1.272   1.311   8.004 -0.0417 -0.5403  0.1513
   27MOL   O78224234   1.325   1.271   7.639 -0.2617 -0.8254  0.2554
   27MOL   C78324235   1.304   1.382   7.561  0.1402 -0.9907 -0.2859
   27MOL   C78424236   1.315   1.522   7.606  0.3079  0.3653 -0.2624
   27MOL   C78524237   1.303   1.630   7.519 -0.5420 -0.3455  0.2556
   27MOL   C78624238   1.286   1.615   7.381 -0.6457  0.8436  0.0525
   27MOL   C78724239   1.264   1.474   7.339  0.0991  0.3833  0.2823
   27MOL   C78824240   1.278   1.363   7.423  0.2111 -0.4909 -0.1386
   27MOL   C78924241   1.286   1.721   7.279  0.0141  0.2268 -0.1029
   27MOL   C79024242   1.265   1.854   7.314  0.2903 -0.1130  0.2431
   27MOL   C79124243   1.266   1.953   7.214 -0.7334 -0.4173 -0.3977
   27MOL   C79224244   1.294   1.930   7.080  0.1572  0.8738  0.3871
   27MOL   C79324245   1.315   1.793   7.045  0.2317 -0.2442  0.2363
   27MOL   C79424246   1.306   1.694   7.139  0.4476  0.1141  0.3387
   27MOL   O79524247   1.320   2.028   6.988 -0.4704 -0.3023 -0.2507
   27MOL   H79624248   1.205   1.774   8.330  1.4181  2.2511  0.5790
   27MOL   H79724249   1.214   1.546   8.214 -1.1629  0.1562  2.3533
   27MOL   H79824250   1.618   1.502   0.001 -0.4997 -1.3783 -0.1154
   27MOL   H79924251   1.591   1.729   0.126  0.6441  0.2209 -0.8368
   27MOL   H80024252   1.603   1.342   7.986 -0.2585  0.8557  1.4787
   27MOL   H80124253   1.565   1.287   7.754  2.1437 -0.4878  1.6471
   27MOL   H80224254   1.139   1.286   7.829  0.6752 -1.0805 -0.8046
   27MOL   H80324255   1.193   1.306   8.077 -0.6837 -1.3151 -0.5869
   27MOL   H80424256   1.327   1.544   7.711  2.6558  0.8313 -0.6023
   27MOL   H80524257   1.326   1.727   7.561  0.5804 -0.6022  0.2491
   27MOL   H80624258   1.232   1.450   7.238 -0.7297 -0.2935  0.6986
   27MOL   H80724259   1.272   1.259   7.394  1.7861 -0.2570 -1.3472
   27MOL   H80824260   1.237   1.881   7.414  1.6489 -0.2112  0.6479
   27MOL   H80924261   1.244   2.053   7.250  2.4094 -0.1092  0.8496
   27MOL   H81024262   1.346   1.768   6.945  1.1286  0.4739  0.3317
   27MOL   H81124263   1.323   1.597   7.094 -2.5983 -0.4886  0.4144
   27MOL   C81224264   1.446   2.088   6.995  0.1822 -0.1597 -0.8853
   27MOL   C81324265   1.446   2.225   7.015  0.4093 -0.2947  1.0945
   27MOL   C81424266   1.572   2.290   7.029 -0.4584  0.3047 -0.4864
   27MOL   C81524267   1.692   2.219   7.011  0.4547 -0.1800 -0.6875
   27MOL   C81624268   1.688   2.080   6.979 -0.1297  0.3788 -0.3624
   27MOL   C81724269   1.564   2.020   6.972  0.6241 -0.1815  0.5299
   27MOL   S81824270   1.849   2.300   7.036 -0.1093 -0.3081 -0.0067
   27MOL   O81924271   1.949   2.205   6.987  0.6605  0.1629  0.1781
   27MOL   O82024272   1.850   2.344   7.174 -0.2097 -0.0484  0.7072
   27MOL   C82124273   1.854   2.453   6.933 -0.7178 -0.7946  0.6732
   27MOL   C82224274   1.809   2.579   6.979 -0.5967 -0.2888  0.0818
   27MOL   C82324275   1.806   2.683   6.884 -0.0746 -1.0726 -0.4927
   27MOL   C82424276   1.850   2.669   6.752 -0.2125  0.1299  0.0716
   27MOL   C82524277   1.908   2.547   6.713  1.1622  0.3016 -0.1481
   27MOL   C82624278   1.906   2.435   6.803  0.0427  0.0839  0.2676
   27MOL   O82724279   1.844   2.765   6.654  0.2791  0.1030 -0.2477
   27MOL   C82824280   1.842   2.901   6.684 -0.5993  0.7608  0.4744
   27MOL   C82924281   1.733   2.980   6.649 -0.9158  0.3420  0.4683
   27MOL   C83024282   1.737   3.117   6.678 -0.2208  0.0891  0.2726
   27MOL   C83124283   1.851   3.174   6.740 -0.0652  0.5202  0.6705
   27MOL   C83224284   1.967   3.091   6.766  0.0164 -0.0359  0.2159
   27MOL   C83324285   1.959   2.956   6.739 -0.4433  0.3215  0.3481
   27MOL   C83424286   1.864   3.322   6.776  0.0640 -0.3480 -0.3712
   27MOL   C83524287   1.956   3.372   6.878 -0.0183  1.2596 -0.4371
   27MOL   C83624288   1.951   3.500   6.921 -0.1467 -0.6727  0.2251
   27MOL   C83724289   1.869   3.597   6.863  0.0525  0.3432  0.0851
   27MOL   C83824290   1.778   3.554   6.759  0.1526 -0.8793  0.6565
   27MOL   C83924291   1.781   3.422   6.719 -0.1553 -0.1460 -0.2725
   27MOL   O84024292   1.885   3.728   6.894 -0.5859  0.4859 -0.1922
   27MOL   H84124293   1.358   2.282   7.040  0.8135  0.8402 -0.0279
   27MOL   H84224294   1.572   2.395   7.057  0.5005  1.0467 -3.0959
   27MOL   H84324295   1.783   2.029   6.974 -1.3347 -1.9251 -0.4790
   27MOL   H84424296   1.560   1.913   6.958  0.7434 -0.1010 -0.1473
   27MOL   H84524297   1.790   2.599   7.083 -2.4284 -1.0698 -0.0874
   27MOL   H84624298   1.771   2.780   6.916 -0.2404 -1.5632  0.8003
   27MOL   H84724299   1.949   2.530   6.615  0.4125 -0.4097 -0.3480
   27MOL   H84824300   1.947   2.344   6.761  1.9277  0.2168  1.7548
   27MOL   H84924301   1.641   2.942   6.606 -0.9211 -0.6715  1.3687
   27MOL   H85024302   1.652   3.177   6.649  2.0122  3.3185  0.1380
   27MOL   H85124303   2.055   3.133   6.813  1.1134 -1.4447 -0.5253
   27MOL   H85224304   2.046   2.896   6.763 -0.3877  0.7062  1.1126
   27MOL   H85324305   2.010   3.297   6.933 -0.4857  0.2427 -1.3356
   27MOL   H85424306   2.021   3.526   6.999 -0.8945  1.4778  0.2061
   27MOL   H85524307   1.718   3.630   6.711 -2.9859 -1.7057  3.1210
   27MOL   H85624308   1.729   3.398   6.627  1.5339  0.2550 -1.3610
   27MOL   C85724309   1.965   3.797   6.805  0.4456 -0.4048  1.1308
   27MOL   C85824310   2.029   3.733   6.692 -0.5748  0.1532 -0.2340
   27MOL   C85924311   2.100   3.812   6.601  0.0249 -0.1029  0.6545
   27MOL   C86024312   2.118   3.951   6.615 -0.3444  0.1782  0.3438
   27MOL   C86124313   2.059   4.017   6.725 -0.2856  0.5887 -0.3334
   27MOL   C86224314   1.985   3.939   6.823  0.4587  0.1561 -0.3785
   27MOL   S86324315   2.232   4.038   6.507  0.3278  0.0053 -0.0888
   27MOL   O86424316   2.309   3.930   6.442 -0.3522  0.4469  0.1660
   27MOL   O86524317   2.302   4.150   6.573  0.1018 -0.1692 -0.1630
   27MOL   C86624318   2.123   4.118   6.390  0.1344 -0.4552  0.4541
   27MOL   C86724319   2.136   4.086   6.256  0.2773  0.2173 -0.6213
   27MOL   C86824320   2.054   4.146   6.159 -0.4768  0.4087 -0.4359
   27MOL   C86924321   1.957   4.241   6.206 -0.4927 -0.5945 -0.3077
   27MOL   C87024322   1.943   4.271   6.345 -0.5936 -0.4197 -0.4933
   27MOL   C87124323   2.023   4.206   6.440 -0.1989  0.1007 -0.3330
   27MOL   O87224324   1.897   4.328   6.120 -0.1634  0.1006  0.4040
   27MOL   C87324325   1.769   4.309   6.082  0.5672  0.5322  0.5934
   27MOL   C87424326   1.665   4.377   6.140  0.1911  0.0741 -0.1900
   27MOL   C87524327   1.534   4.368   6.089  0.4705 -0.1650  0.1213
   27MOL   C87624328   1.504   4.301   5.973  0.3835  0.8974  0.8794
   27MOL   C87724329   1.611   4.227   5.921  0.2506 -0.3642  0.6469
   27MOL   C87824330   1.741   4.239   5.969 -0.9155 -0.4180 -0.0427
   27MOL   C87924331   1.369   4.293   5.911 -0.4149  0.1600  0.2488
   27MOL   C88024332   1.357   4.299   5.766 -0.2473  0.0535 -0.9026
   27MOL   C88124333   1.230   4.273   5.708 -0.0955  0.1853 -0.8325
   27MOL   C88224334   1.120   4.255   5.797  0.2614 -0.4676 -0.4395
   27MOL   C88324335   1.132   4.260   5.935  0.6879 -0.1672 -0.3445
   27MOL   C88424336   1.257   4.280   6.000 -0.1098 -0.2935 -0.1258
   27MOL   O88524337   0.994   4.236   5.739  0.3826 -0.1942 -0.2760
   27MOL   H88624338   2.016   3.629   6.665 -0.4331  0.1884 -0.4405
   27MOL   H88724339   2.145   3.760   6.517 -0.7687 -0.7363  0.6065
   27MOL   H88824340   2.092   4.119   6.742  0.6449 -0.0867  2.1080
   27MOL   H88924341   1.951   3.989   6.913  1.0437  0.8250 -0.5267
   27MOL   H89024342   2.199   4.009   6.215 -1.1657 -0.0145 -2.5064
   27MOL   H89124343   2.062   4.128   6.053  0.8312 -0.8058 -0.1433
   27MOL   H89224344   1.869   4.344   6.375 -0.9699 -0.6732 -0.7966
   27MOL   H89324345   2.016   4.220   6.547  0.8252  0.3655 -0.2983
   27MOL   H89424346   1.676   4.438   6.229  0.4837 -3.0054  1.9407
   27MOL   H89524347   1.454   4.420   6.140  2.5403  2.6566  0.6644
   27MOL   H89624348   1.597   4.162   5.835  1.4234 -0.1319  0.2779
   27MOL   H89724349   1.825   4.178   5.938  0.8877  1.7480  0.3992
   27MOL   H89824350   1.442   4.301   5.699  1.5683 -3.2464  1.1542
   27MOL   H89924351   1.212   4.281   5.602  1.2547 -2.7902 -1.3124
   27MOL   H90024352   1.050   4.245   6.004  1.2026 -0.1357  0.2717
   27MOL   H90124353   1.275   4.284   6.106 -1.7137 -1.2676  0.2045
   27MOL   H90224354   0.938   4.303   5.776  1.6842  0.3130  0.8228
   28MOL     C124355   2.965   7.175   6.977 -0.3652  0.3957 -0.0030
   28MOL     C224356   2.902   7.303   6.992  0.4056 -0.5709 -0.3257
   28MOL     C324357   2.972   7.395   7.066 -0.4016 -0.1014 -0.1873
   28MOL     C424358   3.099   7.359   7.120 -0.2182  0.0888 -0.0457
   28MOL     C524359   3.153   7.233   7.112  0.0259 -0.2568 -0.0123
   28MOL     C624360   3.095   7.144   7.023 -0.1149 -0.3153 -0.8292
   28MOL     S724361   3.182   7.477   7.229  0.0098 -0.1563  0.2681
   28MOL     O824362   3.106   7.604   7.224 -0.1172 -0.2632 -0.2036
   28MOL     O924363   3.325   7.483   7.201 -0.1875  0.1306 -0.7923
   28MOL    C1024364   3.146   7.411   7.390 -0.0484 -0.3150 -0.1596
   28MOL    C1124365   3.014   7.428   7.439 -0.3603  0.0700  0.1335
   28MOL    C1224366   2.978   7.370   7.562  0.0533 -0.6288  0.1897
   28MOL    C1324367   3.072   7.306   7.647  0.0786 -0.3905  0.3357
   28MOL    C1424368   3.202   7.290   7.595  0.6152  0.0028  0.0022
   28MOL    C1524369   3.242   7.344   7.470  0.6177 -0.0782 -0.4930
   28MOL    O1624370   3.037   7.258   7.770  0.4584 -0.0200 -0.4651
   28MOL    C1724371   3.017   7.356   7.864  0.1338  0.3533  0.4698
   28MOL    C1824372   2.893   7.396   7.908 -0.1335 -0.3026 -0.3212
   28MOL    C1924373   2.877   7.497   8.003  0.6369  0.7877 -0.0853
   28MOL    C2024374   2.998   7.552   8.065  0.8690 -0.0144  0.1910
   28MOL    C2124375   3.118   7.503   8.021  0.2022  0.3964 -0.2056
   28MOL    C2224376   3.136   7.412   7.921  0.4510 -0.0106 -0.2683
   28MOL    C2324377   2.992   7.650   8.174  0.0871  0.3402 -0.1421
   28MOL    C2424378   2.908   7.630   8.290 -0.3041 -0.3519  0.2723
   28MOL    C2524379   2.903   7.738   0.021 -0.1641  0.7486  0.1245
   28MOL    C2624380   2.986   7.850   0.016  0.4269  0.7120 -0.5876
   28MOL    C2724381   3.068   7.860   8.268 -0.8489 -0.0334  0.0974
   28MOL    C2824382   3.071   7.765   8.165 -0.6991 -0.1838 -0.0895
   28MOL    O2924383   3.003   7.941   0.126 -0.6341  0.3145  0.8214
   28MOL    H3024384   2.814   7.324   6.932  1.6515  1.7706 -1.3883
   28MOL    H3124385   2.945   7.500   7.068 -0.7349 -0.2188  1.5953
   28MOL    H3224386   3.245   7.222   7.168 -1.2592  0.2239  2.2785
   28MOL    H3324387   3.135   7.050   6.987  1.2337 -0.3564  0.7238
   28MOL    H3424388   2.934   7.478   7.386 -0.4313  1.8188  1.8892
   28MOL    H3524389   2.877   7.382   7.597  0.3810  0.3713  0.8328
   28MOL    H3624390   3.278   7.230   7.644 -0.4561 -1.4856 -0.1254
   28MOL    H3724391   3.345   7.332   7.440  1.2253 -1.5107  2.0213
   28MOL    H3824392   2.808   7.346   7.863  2.0016 -2.0196 -2.5850
   28MOL    H3924393   2.780   7.538   8.027  0.8983  2.6632 -2.1200
   28MOL    H4024394   3.211   7.544   8.058  0.5328  1.1655 -1.8601
   28MOL    H4124395   3.235   7.381   7.891  0.8045 -0.6490  1.5437
   28MOL    H4224396   2.845   7.543   8.289  1.8061 -1.9294  1.8416
   28MOL    H4324397   2.828   7.728   0.098  0.9479  0.4085  1.1835
   28MOL    H4424398   3.128   7.949   8.253 -2.0593  0.6004 -1.1323
   28MOL    H4524399   3.134   7.770   8.077  1.0324  1.3601  1.2104
   28MOL    H4624400   2.925   7.094   6.918  1.0496  0.0560 -0.5064
   28MOL    C4724401   2.903   7.955   0.213 -0.4204 -0.6252 -0.5229
   28MOL    C4824402   2.934   7.937   0.347  0.0075  0.0528 -0.2938
   28MOL    C4924403   2.844   7.964   0.448 -0.8162 -0.8832 -0.1144
   28MOL    C5024404   2.720   8.008   0.408 -0.2119  0.6135 -0.1949
   28MOL    C5124405   2.683   8.025   0.275 -0.1549 -0.1641 -0.2301
   28MOL    C5224406   2.774   7.987   0.173  0.5770  0.4267  0.3219
   28MOL    S5324407   2.609   8.066   0.537  0.2428  0.2776  0.3044
   28MOL    O5424408   2.627   7.980   0.653 -0.2706 -0.7892  0.5832
   28MOL    O5524409   2.478   8.077   0.467 -0.1667  0.0746 -0.4817
   28MOL    C5624410   2.661   8.239   0.574 -0.1208  0.4067 -0.5840
   28MOL    C5724411   2.574   8.335   0.621  0.7641  0.2673 -0.2287
   28MOL    C5824412   2.607   0.103   0.639  0.0569  0.2661 -0.2457
   28MOL    C5924413   2.744   0.127   0.616  0.5429  0.0928  0.0156
   28MOL    C6024414   2.836   0.033   0.573 -0.1678  0.1060  0.0735
   28MOL    C6124415   2.801   8.267   0.564  0.5187 -0.1255 -0.2015
   28MOL    O6224416   2.788   0.260   0.637  0.1040 -0.1128  1.1087
   28MOL    C6324417   2.919   0.283   0.659 -0.0305  0.3247  0.4398
   28MOL    C6424418   3.005   0.333   0.556 -0.7005 -0.4140 -0.1663
   28MOL    C6524419   3.144   0.359   0.592 -0.6165  0.3374  0.2428
   28MOL    C6624420   3.200   0.326   0.713  0.1845  0.0799 -0.2755
   28MOL    C6724421   3.107   0.274   0.808  0.0315  0.0321 -0.1184
   28MOL    C6824422   2.974   0.250   0.785  0.6522 -0.2522  0.2461
   28MOL    C6924423   3.343   0.348   0.754 -0.1539  0.1710 -0.7010
   28MOL    C7024424   3.414   0.464   0.730  0.4002 -0.1222  0.9149
   28MOL    C7124425   3.555   0.483   0.754  0.2860  0.7944  0.5438
   28MOL    C7224426   3.619   0.377   0.818  0.0786 -0.5469  0.0535
   28MOL    C7324427   3.551   0.256   0.845  0.0031  0.2608 -0.0000
   28MOL    C7424428   3.419   0.242   0.809  0.0039  0.5783  0.0680
   28MOL    O7524429   3.752   0.386   0.846 -0.3830  0.5460  0.0369
   28MOL    H7624430   3.031   7.905   0.381 -1.0299  0.3711  3.1636
   28MOL    H7724431   2.870   7.956   0.553 -1.3514  2.6862  0.3830
   28MOL    H7824432   2.586   8.065   0.247  0.2571  0.8594 -0.2234
   28MOL    H7924433   2.743   7.989   0.069 -0.1547  1.3728  0.5523
   28MOL    H8024434   2.472   8.303   0.638  1.0929 -0.0903  1.1324
   28MOL    H8124435   2.536   0.171   0.683 -1.1270 -1.2814  0.2620
   28MOL    H8224436   2.943   0.042   0.560 -0.4193  0.6955 -1.7563
   28MOL    H8324437   2.875   8.194   0.534  1.4469  1.1890 -1.1521
   28MOL    H8424438   2.979   0.366   0.457 -1.1111  1.0446  0.4109
   28MOL    H8524439   3.206   0.406   0.516  1.3155  0.7928  2.0528
   28MOL    H8624440   3.138   0.238   0.905 -0.4711  3.7759  1.5388
   28MOL    H8724441   2.914   0.214   0.868  0.1878 -1.7026 -0.6976
   28MOL    H8824442   3.356   0.538   0.677 -1.3112 -0.9275  1.6576
   28MOL    H8924443   3.608   0.573   0.729  0.2222  0.0214 -2.5567
   28MOL    H9024444   3.605   0.168   0.876 -0.7686  0.3217  1.6346
   28MOL    H9124445   3.370   0.147   0.824 -2.8667  2.0952  0.7868
   28MOL    C9224446   3.797   0.323   0.959  0.3213  0.2988 -0.8022
   28MOL    C9324447   3.906   0.240   0.942 -0.0839 -0.5699  0.7682
   28MOL    C9424448   3.951   0.164   1.050  0.2745 -0.0361  0.1928
   28MOL    C9524449   3.890   0.178   1.176  0.2701 -0.0838  0.5919
   28MOL    C9624450   3.783   0.264   1.198  0.0294  0.3372  0.6230
   28MOL    C9724451   3.739   0.340   1.090  0.7484 -0.3422  0.0078
   28MOL    S9824452   3.958   0.076   1.318  0.5956 -0.0169 -0.4163
   28MOL    O9924453   3.973   8.304   1.268 -0.1277 -0.5393  0.3996
   28MOL   O10024454   3.886   0.108   1.444 -0.2675 -0.6605 -0.3271
   28MOL   C10124455   4.120   0.139   1.341 -0.3230 -0.5295 -0.4993
   28MOL   C10224456   4.140   0.270   1.391  0.2928 -0.1310 -0.4608
   28MOL   C10324457   4.274   0.314   1.412 -0.5837  0.3599 -0.8408
   28MOL   C10424458   4.384   0.236   1.376 -0.0847  0.4506  0.3575
   28MOL   C10524459   4.366   0.104   1.324  0.3233  0.1721 -0.2977
   28MOL   C10624460   4.231   0.060   1.310  0.0857  0.7771  0.8552
   28MOL   O10724461   4.511   0.269   1.408 -0.3421 -0.1151 -0.1548
   28MOL   C10824462   4.548   0.396   1.425 -0.9925 -0.5380 -0.4911
   28MOL   C10924463   4.636   0.413   1.530  0.1532  0.6042  0.0435
   28MOL   C11024464   4.669   0.543   1.574  0.1953  0.1239  0.1083
   28MOL   C11124465   4.642   0.656   1.496 -0.2025  0.1908  0.0784
   28MOL   C11224466   4.560   0.637   1.383 -0.0908 -0.2954  0.6892
   28MOL   C11324467   4.509   0.512   1.345 -0.7254  0.8766 -0.1981
   28MOL   C11424468   4.678   0.792   1.533 -0.3020  0.0383  0.2777
   28MOL   C11524469   4.799   0.811   1.608 -0.3073  0.4512 -1.0552
   28MOL   C11624470   4.830   0.940   1.653  0.4078  0.5550 -0.0571
   28MOL   C11724471   4.744   1.046   1.640  0.2787 -0.3824 -0.2916
   28MOL   C11824472   4.620   1.027   1.575 -0.2686 -0.1976 -0.3489
   28MOL   C11924473   4.591   0.904   1.515 -0.1977  0.4961  0.0725
   28MOL   O12024474   4.764   1.169   1.699  0.2348  0.0276  0.1638
   28MOL   H12124475   3.938   0.224   0.840 -1.5682 -1.0291  0.3643
   28MOL   H12224476   4.029   0.090   1.047  0.5918  0.2773  0.5845
   28MOL   H12324477   3.731   0.269   1.293  0.7440  1.0846  0.9822
   28MOL   H12424478   3.656   0.407   1.105  0.1216 -0.8604 -1.0473
   28MOL   H12524479   4.055   0.328   1.424 -0.1900 -2.4716  2.6893
   28MOL   H12624480   4.280   0.405   1.469  0.1184 -0.0223 -0.2955
   28MOL   H12724481   4.449   0.040   1.300  1.0513  0.7390  0.6896
   28MOL   H12824482   4.222   8.320   1.290 -2.2895  1.4611 -1.8633
   28MOL   H12924483   4.662   0.329   1.592  0.5947 -0.1651 -1.1751
   28MOL   H13024484   4.715   0.562   1.669  0.2425  0.9044 -0.0709
   28MOL   H13124485   4.540   0.732   1.337 -0.3858  0.2092  1.8627
   28MOL   H13224486   4.437   0.506   1.265  0.5870 -0.0794 -1.3236
   28MOL   H13324487   4.871   0.732   1.621 -1.9307 -1.3590 -2.5679
   28MOL   H13424488   4.923   0.959   1.705  0.9682 -1.1549 -0.4020
   28MOL   H13524489   4.547   1.105   1.559  0.6379  0.3035 -2.0704
   28MOL   H13624490   4.495   0.891   1.467  0.5669 -0.9435 -1.1325
   28MOL   C13724491   4.893   1.229   1.693  0.7731  0.1433 -0.5625
   28MOL   C13824492   4.976   1.227   1.807  0.0940  0.1278  0.4312
   28MOL   C13924493   5.110   1.270   1.794 -0.2698 -0.0385  0.5220
   28MOL   C14024494   5.164   1.308   1.668 -0.1805 -0.0549  0.7653
   28MOL   C14124495   5.083   1.309   1.555  0.1510 -0.1444 -0.7435
   28MOL   C14224496   4.953   1.267   1.571  0.4475  0.3819  0.1130
   28MOL   S14324497   5.340   1.351   1.653  0.1321  0.3604  0.0707
   28MOL   O14424498   5.388   1.257   1.550  0.5748  0.3350  0.7720
   28MOL   O14524499   5.404   1.354   1.788 -0.7460  0.1939  0.0121
   28MOL   C14624500   5.330   1.514   1.592  0.2913 -0.6569 -0.0140
   28MOL   C14724501   5.291   1.620   1.681  0.2643  0.1781 -0.2316
   28MOL   C14824502   5.290   1.747   1.632 -0.0641 -0.0820 -0.1030
   28MOL   C14924503   5.329   1.782   1.499 -0.5671 -0.1694 -0.5138
   28MOL   C15024504   5.360   1.674   1.408 -0.4988  0.2487  0.1831
   28MOL   C15124505   5.371   1.539   1.462  0.2976 -0.5972 -1.2443
   28MOL   O15224506   5.319   1.913   1.454 -0.5201 -0.1234  0.2209
   28MOL   C15324507   5.403   1.957   1.354 -0.2004  0.1596 -0.1585
   28MOL   C15424508   5.542   1.957   1.378  0.2205 -0.2907  0.0862
   28MOL   C15524509   5.626   2.015   1.285  0.3068 -0.3542  0.0145
   28MOL   C15624510   5.574   2.067   1.165  0.0694  0.4793 -0.1180
   28MOL   C15724511   5.437   2.051   1.137  0.0541 -0.9077 -0.2441
   28MOL   C15824512   5.345   1.995   1.232  0.3202 -0.4908 -0.2810
   28MOL   C15924513   5.667   2.127   1.066 -0.1262 -0.5353 -0.2902
   28MOL   C16024514   5.751   2.233   1.103  0.3340  0.4429  0.5853
   28MOL   C16124515   5.826   2.295   1.003 -0.3843  0.2424  0.2348
   28MOL   C16224516   5.827   2.245   0.872 -0.0514 -0.4071 -0.3880
   28MOL   C16324517   5.758   2.121   0.842  0.0833 -0.4647 -0.5827
   28MOL   C16424518   5.669   2.074   0.934 -0.6744 -0.0493 -0.6414
   28MOL   O16524519   5.900   2.299   0.775 -0.4500  0.1313  0.4958
   28MOL   H16624520   4.932   1.193   1.899  1.5229  2.4584  2.0188
   28MOL   H16724521   5.176   1.271   1.879  0.6312 -0.6347 -0.1539
   28MOL   H16824522   5.125   1.337   1.460 -0.9874  1.5884 -0.7606
   28MOL   H16924523   4.899   1.269   1.478  2.4098  1.5998 -1.0439
   28MOL   H17024524   5.265   1.587   1.780  1.3014 -2.0104 -0.6557
   28MOL   H17124525   5.275   1.826   1.704  1.4718  1.7322 -1.7094
   28MOL   H17224526   5.387   1.697   1.306 -1.4155 -1.6545 -0.5086
   28MOL   H17324527   5.410   1.461   1.399  0.1396 -0.9604 -0.8930
   28MOL   H17424528   5.582   1.916   1.470 -2.2858  0.4883  1.6025
   28MOL   H17524529   5.731   2.012   1.308  0.1828  1.2960  0.8895
   28MOL   H17624530   5.393   2.084   1.044  0.1810  0.8033  0.2961
   28MOL   H17724531   5.240   1.984   1.210 -0.1841  1.7371  0.9032
   28MOL   H17824532   5.747   2.268   1.206 -2.4858  2.0131  0.0019
   28MOL   H17924533   5.888   2.383   1.011 -0.1614  0.0785  0.3299
   28MOL   H18024534   5.765   2.083   0.741 -2.1134  0.0644 -0.9491
   28MOL   H18124535   5.600   1.992   0.922 -0.3393 -0.3937 -0.2350
   28MOL   C18224536   5.840   2.396   0.695 -0.0890 -1.3415 -0.1777
   28MOL   C18324537   5.737   2.481   0.754 -0.5237  0.2676  0.3524
   28MOL   C18424538   5.672   2.577   0.672 -0.5862 -0.2016 -0.3982
   28MOL   C18524539   5.706   2.585   0.539  0.0268  0.5720 -0.2092
   28MOL   C18624540   5.813   2.515   0.480  0.0009 -0.2810  0.3022
   28MOL   C18724541   5.890   2.433   0.566  0.5041 -0.2312  0.2701
   28MOL   S18824542   5.602   2.694   0.436  0.1151  0.0931  0.0211
   28MOL   O18924543   5.486   2.617   0.378 -0.1695  0.1950 -0.0464
   28MOL   O19024544   5.691   2.761   0.338  0.4694  0.2417 -0.1406
   28MOL   C19124545   5.551   2.817   0.549  0.1441 -0.6458 -0.0175
   28MOL   C19224546   5.635   2.920   0.593  0.0511 -0.1519  0.1568
   28MOL   C19324547   5.590   3.018   0.678 -0.0649 -0.3029 -0.1722
   28MOL   C19424548   5.460   3.015   0.738 -0.2809 -0.0167  0.4708
   28MOL   C19524549   5.371   2.920   0.691  0.3311 -0.4780  0.2491
   28MOL   C19624550   5.418   2.821   0.605 -0.6207  0.2133  0.1299
   28MOL   O19724551   5.428   3.111   0.826 -0.1929  0.0444 -0.5758
   28MOL   C19824552   5.396   3.071   0.956 -0.2089 -0.2745  0.6962
   28MOL   C19924553   5.260   3.053   0.996  0.0582  0.1568  0.4296
   28MOL   C20024554   5.230   3.011   1.128  0.0013  0.1987 -0.4540
   28MOL   C20124555   5.342   2.991   1.221 -0.1576  0.2175 -0.0896
   28MOL   C20224556   5.478   3.004   1.180 -0.3486  0.4258  0.8535
   28MOL   C20324557   5.504   3.050   1.051  0.0391 -0.1087  0.3567
   28MOL   C20424558   5.313   2.943   1.357  0.8538 -0.0142 -0.0252
   28MOL   C20524559   5.237   3.025   1.442  0.0232  0.2093 -0.3954
   28MOL   C20624560   5.227   3.000   1.583 -0.2770 -0.0419 -0.2391
   28MOL   C20724561   5.271   2.879   1.634 -0.1695 -0.3140  0.0238
   28MOL   C20824562   5.329   2.786   1.541  0.1690  0.4748 -0.4087
   28MOL   C20924563   5.352   2.820   1.408  0.2886  0.4345 -0.2482
   28MOL   O21024564   5.236   2.839   1.763  0.0312 -0.0541  0.4303
   28MOL   H21124565   5.713   2.464   0.858  1.1042 -0.7720  0.5757
   28MOL   H21224566   5.594   2.635   0.719  1.1849  1.6199  0.3284
   28MOL   H21324567   5.839   2.546   0.381  0.4578  1.2265  0.8816
   28MOL   H21424568   5.968   2.385   0.510 -0.6471 -1.3728 -0.3831
   28MOL   H21524569   5.740   2.924   0.567  0.3265  0.5284  1.3428
   28MOL   H21624570   5.658   3.096   0.710 -0.3669 -0.7628  1.6656
   28MOL   H21724571   5.269   2.913   0.725  0.4059 -1.0826  0.3551
   28MOL   H21824572   5.344   2.752   0.568  1.1265 -1.7776  0.2219
   28MOL   H21924573   5.184   3.080   0.924 -0.3264 -1.1664  0.3163
   28MOL   H22024574   5.128   2.988   1.155  0.4861 -1.4956 -0.0498
   28MOL   H22124575   5.567   2.985   1.238  1.0614  0.4997 -1.2124
   28MOL   H22224576   5.608   3.062   1.027 -0.1689 -0.1518 -0.5548
   28MOL   H22324577   5.197   3.117   1.402 -1.0788  0.3776  1.0668
   28MOL   H22424578   5.175   3.071   1.646  0.9326 -0.4061  1.1981
   28MOL   H22524579   5.354   2.688   1.578  1.6601  0.5479 -1.1758
   28MOL   H22624580   5.400   2.747   1.344  1.9383  2.6102 -1.5831
   28MOL   C22724581   5.334   2.864   1.854 -0.0512 -0.1997  0.0208
   28MOL   C22824582   5.417   2.761   1.910 -1.0211 -0.0370 -0.4826
   28MOL   C22924583   5.520   2.791   1.994 -0.1965 -0.0167 -0.1030
   28MOL   C23024584   5.543   2.930   2.026  0.1532  0.7227  0.2773
   28MOL   C23124585   5.465   3.032   1.968 -0.6069  0.5156  0.3677
   28MOL   C23224586   5.360   2.997   1.887 -1.2666 -0.5610  0.1218
   28MOL   S23324587   5.687   2.985   2.110  0.1509 -0.1422 -0.4895
   28MOL   O23424588   5.636   3.006   2.250 -0.1821 -0.0360  0.1850
   28MOL   O23524589   5.742   3.099   2.034  0.2042  0.2308 -0.0089
   28MOL   C23624590   5.806   2.846   2.112  0.4108  0.3430 -0.2506
   28MOL   C23724591   5.880   2.798   2.000  0.3687 -0.3750  0.2081
   28MOL   C23824592   5.961   2.688   2.004 -0.0184  0.3659  0.7543
   28MOL   C23924593   5.966   2.610   2.118  0.7948  0.2390 -0.0177
   28MOL   C24024594   5.892   2.653   2.228 -0.1761  0.3670  0.4988
   28MOL   C24124595   5.811   2.769   2.233 -0.4652 -0.3263 -0.1245
   28MOL   O24224596   6.040   2.495   2.110 -0.3456 -0.0911  0.0232
   28MOL   C24324597   6.032   2.389   2.196 -0.4431  0.5490 -0.0187
   28MOL   C24424598   5.913   2.355   2.263  0.0222  0.3856 -0.3826
   28MOL   C24524599   5.900   2.235   2.337 -0.0997 -0.0562  0.2377
   28MOL   C24624600   6.014   2.151   2.357  0.5793  0.7134 -0.1279
   28MOL   C24724601   6.133   2.183   2.296 -0.3610  0.6326  0.0803
   28MOL   C24824602   6.139   2.299   2.216 -0.2560  0.9310 -0.5793
   28MOL   C24924603   6.003   2.030   2.441 -0.0985 -0.2140  0.3619
   28MOL   C25024604   6.030   1.904   2.387 -0.0707 -0.5528  0.0970
   28MOL   C25124605   6.024   1.784   2.465 -0.2517 -0.4073  0.4309
   28MOL   C25224606   5.971   1.790   2.593 -0.3710  0.6593  0.4130
   28MOL   C25324607   5.959   1.918   2.661 -0.2738  0.0351  0.3834
   28MOL   C25424608   5.979   2.035   2.581 -0.7150  0.3270  0.0674
   28MOL   O25524609   5.947   1.671   2.653 -0.0713  0.1136 -0.4296
   28MOL   H25624610   5.393   2.659   1.884  0.6760 -0.0533 -2.0743
   28MOL   H25724611   5.583   2.711   2.029  1.8585  0.9075 -1.5454
   28MOL   H25824612   5.494   3.135   1.980 -0.7541  0.7905 -1.4764
   28MOL   H25924613   5.294   3.077   1.856 -0.9835 -0.7988 -1.1178
   28MOL   H26024614   5.853   2.853   1.911 -0.1282 -0.9165  0.0183
   28MOL   H26124615   6.003   2.650   1.912  0.1799 -1.3798  1.5532
   28MOL   H26224616   5.903   2.590   2.315  1.5220  0.5624  0.4545
   28MOL   H26324617   5.766   2.814   2.320  0.8841  0.7065  0.0568
   28MOL   H26424618   5.828   2.422   2.256 -0.2933 -0.1370 -1.7797
   28MOL   H26524619   5.806   2.212   2.383  0.0108 -1.5621 -0.2618
   28MOL   H26624620   6.224   2.127   2.306 -0.4011  0.2476 -1.5738
   28MOL   H26724621   6.225   2.325   2.156 -0.1903 -1.4886 -1.6014
   28MOL   H26824622   6.063   1.899   2.285  1.0422  0.2837  0.3986
   28MOL   H26924623   6.043   1.687   2.421 -0.8561 -0.4202  0.1970
   28MOL   H27024624   5.940   1.928   2.766 -0.2439 -2.8499  0.7178
   28MOL   H27124625   5.957   2.130   2.626 -0.2613 -0.2617  1.5560
   28MOL   C27224626   5.830   1.656   2.722 -0.2660  0.1309 -0.2121
   28MOL   C27324627   5.839   1.640   2.865  0.2128  0.2864 -0.2294
   28MOL   C27424628   5.721   1.637   2.935  0.1471 -0.6465 -0.4289
   28MOL   C27524629   5.598   1.651   2.867 -0.0916 -0.1406 -0.6288
   28MOL   C27624630   5.596   1.681   2.736  1.2010  0.4294 -0.3081
   28MOL   C27724631   5.705   1.675   2.654  0.3253 -0.3227  0.6135
   28MOL   S27824632   5.446   1.661   2.956 -0.0306 -0.2253  0.3806
   28MOL   O27924633   5.391   1.524   2.963 -0.5713 -0.3436 -0.0473
   28MOL   O28024634   5.366   1.764   2.887  0.2677 -0.8152 -0.1385
   28MOL   C28124635   5.488   1.712   3.125  0.0178  0.3113 -0.2549
   28MOL   C28224636   5.483   1.616   3.229 -0.1523 -0.2822 -0.2347
   28MOL   C28324637   5.510   1.663   3.360 -0.0840 -0.4753  0.0045
   28MOL   C28424638   5.550   1.799   3.379  0.7037  0.6779 -0.8800
   28MOL   C28524639   5.554   1.886   3.274 -0.5870  0.4389  0.1750
   28MOL   C28624640   5.522   1.848   3.146 -0.2472  0.2821 -0.0189
   28MOL   O28724641   5.573   1.845   3.506 -0.3074  0.2206 -0.6668
   28MOL   C28824642   5.469   1.837   3.590 -0.1453 -0.1442  0.1343
   28MOL   C28924643   5.466   1.727   3.680 -0.4016 -0.2910 -0.7379
   28MOL   C29024644   5.363   1.724   3.779 -0.1661  0.0615 -0.2830
   28MOL   C29124645   5.273   1.833   3.795  0.9078 -0.6397 -1.0568
   28MOL   C29224646   5.278   1.939   3.706  0.4538 -0.5719 -1.0209
   28MOL   C29324647   5.369   1.936   3.593  0.7960 -1.6887 -0.0294
   28MOL   C29424648   5.181   1.837   3.911  0.4327  0.4666  0.1308
   28MOL   C29524649   5.086   1.737   3.924 -0.5942 -0.1710  0.0785
   28MOL   C29624650   4.988   1.747   4.027 -0.5093  0.0596 -0.5233
   28MOL   C29724651   4.994   1.861   4.116  0.0700  0.5197  0.1778
   28MOL   C29824652   5.100   1.953   4.103  0.0810  0.1900 -0.9703
   28MOL   C29924653   5.201   1.937   4.001  0.7358 -0.5947 -0.3360
   28MOL   O30024654   4.891   1.889   4.199 -0.3810  0.7188  0.1092
   28MOL   H30124655   5.934   1.634   2.916 -0.9986  1.4846  2.2301
   28MOL   H30224656   5.724   1.629   3.043  2.9298  1.7770 -0.2539
   28MOL   H30324657   5.501   1.705   2.689 -0.4436  1.6845  3.4894
   28MOL   H30424658   5.698   1.713   2.553  2.2465  1.9370  1.2783
   28MOL   H30524659   5.450   1.516   3.203  0.0566 -0.5439  0.5091
   28MOL   H30624660   5.515   1.599   3.447 -2.5779 -0.3995  0.2405
   28MOL   H30724661   5.584   1.989   3.282 -0.2560  0.5005 -1.6468
   28MOL   H30824662   5.537   1.921   3.068 -0.4363  0.0820 -0.2451
   28MOL   H30924663   5.534   1.643   3.677  0.5331  0.5094 -3.0158
   28MOL   H31024664   5.373   1.641   3.847  1.9780  2.5664  2.6498
   28MOL   H31124665   5.226   2.031   3.728  1.1504 -0.4264  0.0410
   28MOL   H31224666   5.379   2.020   3.526 -0.3688 -0.4553  1.2909
   28MOL   H31324667   5.072   1.659   3.851  0.4604 -0.2144 -0.0802
   28MOL   H31424668   4.903   1.681   4.024 -1.1509  0.8678 -0.2415
   28MOL   H31524669   5.097   2.045   4.158 -2.1002 -0.1843 -0.4153
   28MOL   H31624670   5.283   2.004   3.984  2.0624 -2.7826 -3.1209
   28MOL   C31724671   4.843   1.802   4.294 -0.1493  0.3535 -0.2500
   28MOL   C31824672   4.705   1.812   4.322 -0.7071  0.5611 -0.9701
   28MOL   C31924673   4.648   1.744   4.431 -0.4921  0.0793 -0.0422
   28MOL   C32024674   4.726   1.661   4.509 -0.1671  0.3378  0.2422
   28MOL   C32124675   4.864   1.641   4.482 -0.4171  0.7682 -0.0291
   28MOL   C32224676   4.923   1.717   4.374 -0.3432  0.1749  0.3077
   28MOL   S32324677   4.646   1.580   4.653  0.3187  0.1738  0.1319
   28MOL   O32424678   4.499   1.578   4.639  0.0181  0.0137  0.5637
   28MOL   O32524679   4.710   1.639   4.770  0.2226 -0.1035  0.1460
   28MOL   C32624680   4.711   1.414   4.636 -0.0417  0.0474 -0.1349
   28MOL   C32724681   4.842   1.392   4.675 -0.1502 -0.1369  0.1494
   28MOL   C32824682   4.897   1.260   4.676  1.0153  0.1309  0.1579
   28MOL   C32924683   4.814   1.155   4.618 -0.0310  0.3122 -0.7605
   28MOL   C33024684   4.688   1.176   4.577  0.2398  0.0878 -0.3826
   28MOL   C33124685   4.635   1.310   4.585 -0.0600  0.0287  0.3246
   28MOL   O33224686   4.865   1.031   4.609  0.4085 -0.2184 -0.6230
   28MOL   C33324687   4.842   0.958   4.722  0.1065  0.6497  0.3761
   28MOL   C33424688   4.741   0.856   4.738  0.0470 -0.1059  0.3470
   28MOL   C33524689   4.737   0.791   4.858 -0.9688 -0.1631 -0.1265
   28MOL   C33624690   4.827   0.816   4.969  0.0896 -0.0115 -0.1854
   28MOL   C33724691   4.931   0.905   4.942  0.2927  0.7218 -0.7393
   28MOL   C33824692   4.942   0.974   4.820  0.4942  0.2648  0.7995
   28MOL   C33924693   4.804   0.749   5.097  0.2216  0.1566 -0.6445
   28MOL   C34024694   4.720   0.633   5.114  0.1669  1.1154 -0.2090
   28MOL   C34124695   4.698   0.578   5.237  0.0108  0.0774  0.0930
   28MOL   C34224696   4.755   0.640   5.354 -0.2905  0.0239 -0.1167
   28MOL   C34324697   4.849   0.749   5.343 -0.0134  0.2546  0.0101
   28MOL   C34424698   4.865   0.805   5.213  0.3564  0.2382  0.6598
   28MOL   O34524699   4.733   0.579   5.471  0.3463  0.3493  0.5621
   28MOL   H34624700   4.638   1.886   4.280 -0.1368  0.4347 -2.1399
   28MOL   H34724701   4.545   1.772   4.451  0.0571  2.0024  0.1835
   28MOL   H34824702   4.934   1.589   4.546  0.6487 -0.5259 -2.1661
   28MOL   H34924703   5.027   1.704   4.348 -0.7468 -1.1166 -0.7189
   28MOL   H35024704   4.902   1.466   4.726  0.3608 -0.4375 -0.0218
   28MOL   H35124705   4.995   1.250   4.720  0.9744  2.8241  0.9529
   28MOL   H35224706   4.622   1.101   4.535 -0.8881  1.3198 -0.8771
   28MOL   H35324707   4.532   1.330   4.558  0.3318  1.3328 -0.2323
   28MOL   H35424708   4.662   0.837   4.667 -2.5675  0.2310  3.0414
   28MOL   H35524709   4.654   0.721   4.863 -0.0817 -1.1706  0.6374
   28MOL   H35624710   5.003   0.922   5.020  0.7564  0.9894 -1.2274
   28MOL   H35724711   5.025   1.040   4.801 -2.0532  2.9718 -1.2985
   28MOL   H35824712   4.679   0.572   5.035  0.6394  1.4636 -0.7232
   28MOL   H35924713   4.640   0.488   5.249 -2.1307  1.2408 -1.1376
   28MOL   H36024714   4.891   0.795   5.431 -1.3740  0.4164  0.5878
   28MOL   H36124715   4.921   0.897   5.206 -1.1241  1.0572 -0.6553
   28MOL   C36224716   4.684   0.652   5.582  0.4292 -0.2374 -0.2094
   28MOL   C36324717   4.630   0.785   5.571  0.7738 -0.0194 -0.2960
   28MOL   C36424718   4.583   0.844   5.690  0.2483 -0.2782  0.1316
   28MOL   C36524719   4.584   0.775   5.813  0.6800 -0.3629 -0.3670
   28MOL   C36624720   4.641   0.648   5.813 -0.3721  0.5525  0.3804
   28MOL   C36724721   4.684   0.580   5.698  0.3349  0.0850 -0.2120
   28MOL   S36824722   4.544   0.864   5.966 -0.2323  0.2521 -0.0966
   28MOL   O36924723   4.664   0.850   6.050 -0.1554 -1.0577 -0.1629
   28MOL   O37024724   4.418   0.807   6.017 -0.0320 -0.0576 -0.8354
   28MOL   C37124725   4.519   1.031   5.926 -0.1717  0.7357 -0.3374
   28MOL   C37224726   4.405   1.099   5.968 -0.0937 -0.7219 -0.0573
   28MOL   C37324727   4.383   1.234   5.938  0.7736 -0.2259  0.0664
   28MOL   C37424728   4.477   1.298   5.854 -0.4004 -0.5828  0.2162
   28MOL   C37524729   4.596   1.234   5.821  0.3094  0.5893  0.1670
   28MOL   C37624730   4.625   1.102   5.863  0.7450 -0.2655  0.4397
   28MOL   O37724731   4.457   1.427   5.808 -0.5521 -0.2744  0.0002
   28MOL   C37824732   4.503   1.531   5.884 -0.1236 -0.1871  0.0745
   28MOL   C37924733   4.625   1.589   5.854 -0.0871  0.1370  0.1990
   28MOL   C38024734   4.678   1.685   5.942  0.1237  0.5627 -0.7048
   28MOL   C38124735   4.606   1.738   6.053 -0.3594 -0.3078  0.3235
   28MOL   C38224736   4.484   1.675   6.082  0.0091 -0.3634 -0.1867
   28MOL   C38324737   4.432   1.574   5.996  0.2249 -0.6729 -0.1824
   28MOL   C38424738   4.664   1.850   6.129  0.3076 -0.6074 -0.6832
   28MOL   C38524739   4.666   1.839   6.272 -0.6172  0.9555 -1.2406
   28MOL   C38624740   4.727   1.934   6.351  0.1647 -0.1813  0.5434
   28MOL   C38724741   4.796   2.043   6.293 -0.3216  1.0063 -0.1258
   28MOL   C38824742   4.795   2.055   6.146  0.4879  0.3675 -0.4883
   28MOL   C38924743   4.728   1.957   6.071  0.0261  0.3066  0.0740
   28MOL   O39024744   4.874   2.122   6.373 -0.4308  0.1787 -0.5312
   28MOL   H39124745   4.629   0.847   5.482 -0.6387  0.1691 -0.1550
   28MOL   H39224746   4.538   0.942   5.680 -1.2243 -0.6292  2.8532
   28MOL   H39324747   4.666   0.596   5.904  0.6787  0.5506  0.1044
   28MOL   H39424748   4.723   0.480   5.692  0.5436 -0.0202  2.3155
   28MOL   H39524749   4.336   1.044   6.030  0.5586 -2.4768 -0.8715
   28MOL   H39624750   4.299   1.288   5.979 -0.6070 -1.2762 -1.2905
   28MOL   H39724751   4.661   1.292   5.756  1.9779  0.3382  1.5731
   28MOL   H39824752   4.712   1.045   5.836  0.1700  0.0359 -2.2379
   28MOL   H39924753   4.668   1.571   5.756 -1.3846  3.2658 -1.0137
   28MOL   H40024754   4.777   1.723   5.918 -0.0483  1.7693  0.4375
   28MOL   H40124755   4.429   1.718   6.164  0.9921  0.4852  0.0448
   28MOL   H40224756   4.338   1.531   6.026  0.4901 -0.1254  1.5007
   28MOL   H40324757   4.605   1.767   6.324  2.7717 -0.4114  1.0092
   28MOL   H40424758   4.719   1.920   6.457  0.2261  0.0477  0.5786
   28MOL   H40524759   4.848   2.132   6.092 -0.3161  0.7980 -0.6819
   28MOL   H40624760   4.728   1.967   5.964 -4.3709 -0.1799 -0.0540
   28MOL   C40724761   4.814   2.232   6.432  0.1659 -0.3818 -0.3402
   28MOL   C40824762   4.869   2.358   6.410 -0.2267  0.2142  0.3898
   28MOL   C40924763   4.809   2.473   6.464  0.0171  0.3144 -0.3010
   28MOL   C41024764   4.684   2.465   6.529 -0.1166  0.4707 -0.1160
   28MOL   C41124765   4.621   2.337   6.545 -0.1415 -0.0980 -0.3991
   28MOL   C41224766   4.691   2.225   6.492 -0.4199 -0.1505  0.1433
   28MOL   S41324767   4.598   2.602   6.602  0.1358  0.1189  0.2074
   28MOL   O41424768   4.612   2.590   6.750  0.3441  0.0075 -0.2479
   28MOL   O41524769   4.459   2.598   6.548 -0.3706 -0.3059  0.2291
   28MOL   C41624770   4.669   2.757   6.541 -0.4387  0.4951 -0.0776
   28MOL   C41724771   4.679   2.779   6.406  0.3700 -0.0797  0.8029
   28MOL   C41824772   4.753   2.894   6.364 -0.2657  0.5945  0.6103
   28MOL   C41924773   4.810   2.981   6.455  0.4772 -0.9689 -1.1359
   28MOL   C42024774   4.803   2.952   6.594  0.9030  0.2923  0.3900
   28MOL   C42124775   4.726   2.840   6.635 -0.8458 -0.0109  0.3963
   28MOL   O42224776   4.897   3.081   6.418 -0.2803  0.4457  0.5978
   28MOL   C42324777   4.981   3.048   6.315 -0.2052  0.5480 -0.0634
   28MOL   C42424778   5.079   2.948   6.326 -0.1115  0.5945 -0.1502
   28MOL   C42524779   5.166   2.925   6.218 -0.0085  1.1070 -0.2819
   28MOL   C42624780   5.157   2.994   6.098 -0.2900  0.1991 -0.6811
   28MOL   C42724781   5.067   3.104   6.089  1.0175  0.4990 -0.3202
   28MOL   C42824782   4.975   3.124   6.199 -0.1502 -0.2856 -0.3020
   28MOL   C42924783   5.250   2.977   5.987 -0.0816  0.4917 -0.2672
   28MOL   C43024784   5.273   2.847   5.928 -0.4325 -0.8343 -0.2886
   28MOL   C43124785   5.351   2.824   5.819 -0.4823 -0.7303  0.3564
   28MOL   C43224786   5.408   2.937   5.756 -0.6247  0.3136  0.0072
   28MOL   C43324787   5.392   3.072   5.805  0.1669 -0.6266  0.3531
   28MOL   C43424788   5.307   3.091   5.917 -1.1574  0.1579  0.2979
   28MOL   O43524789   5.503   2.916   5.655  0.4708 -0.5053  0.0793
   28MOL   H43624790   4.965   2.375   6.363  0.3573 -4.3846 -0.2602
   28MOL   H43724791   4.856   2.568   6.447 -1.8579  1.2433 -0.4520
   28MOL   H43824792   4.526   2.319   6.593  0.5835 -2.8689  0.0685
   28MOL   H43924793   4.637   2.131   6.497 -2.4475  0.9160 -0.8536
   28MOL   H44024794   4.644   2.710   6.330 -1.0984  0.7191  0.7127
   28MOL   H44124795   4.772   2.909   6.258  1.4260  3.5614  1.2852
   28MOL   H44224796   4.854   3.015   6.665  1.2984 -1.1233  1.3753
   28MOL   H44324797   4.721   2.825   6.742 -1.3411  3.4192  0.9005
   28MOL   H44424798   5.088   2.884   6.412 -2.7332  0.8112  0.3350
   28MOL   H44524799   5.225   2.837   6.240  0.5122  1.3266 -0.7901
   28MOL   H44624800   5.059   3.162   5.998 -0.7480  0.6160 -0.0957
   28MOL   H44724801   4.890   3.190   6.195  0.3491  0.2932 -3.3668
   28MOL   H44824802   5.222   2.761   5.967 -1.1638 -0.2251  0.1000
   28MOL   H44924803   5.373   2.728   5.774  2.9167 -0.6691  1.7328
   28MOL   H45024804   5.453   3.150   5.761 -1.9964  0.6934 -0.3612
   28MOL   H45124805   5.302   3.194   5.947  0.1265  0.6984 -1.3137
   28MOL   C45224806   5.518   2.999   5.543  0.2734  0.0176 -0.5336
   28MOL   C45324807   5.648   3.034   5.502  0.5853 -0.3177  0.4161
   28MOL   C45424808   5.676   3.109   5.384  0.8046  0.6104 -0.4805
   28MOL   C45524809   5.564   3.159   5.308  0.5482 -0.1979 -0.0337
   28MOL   C45624810   5.432   3.129   5.351 -0.4290  0.4576  0.2734
   28MOL   C45724811   5.410   3.045   5.466 -0.0043  0.2087  0.2489
   28MOL   S45824812   5.589   3.265   5.166 -0.0297 -0.4747 -0.2134
   28MOL   O45924813   5.719   3.326   5.179 -0.1286  0.5607 -0.2287
   28MOL   O46024814   5.480   3.359   5.156 -0.1257  0.0195  0.2717
   28MOL   C46124815   5.602   3.156   5.021 -0.1301  0.0018 -0.0327
   28MOL   C46224816   5.693   3.049   5.017  0.6109 -0.9390  0.8730
   28MOL   C46324817   5.699   2.972   4.901  0.8934  0.6096 -0.3765
   28MOL   C46424818   5.598   2.994   4.806  0.6868 -0.0048 -0.1770
   28MOL   C46524819   5.512   3.104   4.809 -0.1139 -0.2546 -0.9885
   28MOL   C46624820   5.518   3.194   4.922 -0.0094  0.4041  0.5170
   28MOL   O46724821   5.581   2.914   4.696  0.6003 -0.1978 -0.7167
   28MOL   C46824822   5.513   2.794   4.716  0.3474 -0.2605  0.7563
   28MOL   C46924823   5.371   2.782   4.726 -0.5591  0.7798  0.4780
   28MOL   C47024824   5.310   2.669   4.775  0.0361 -0.5213  0.3600
   28MOL   C47124825   5.383   2.556   4.812 -0.5088  0.1910 -0.2119
   28MOL   C47224826   5.521   2.559   4.787 -0.3937 -0.5480 -0.0823
   28MOL   C47324827   5.590   2.674   4.740 -0.3410  0.0315 -0.0275
   28MOL   C47424828   5.307   2.442   4.870  0.2540 -0.0514  0.5933
   28MOL   C47524829   5.199   2.383   4.807 -0.8369 -0.2335 -0.5305
   28MOL   C47624830   5.133   2.266   4.869 -0.1221  0.2519 -0.2191
   28MOL   C47724831   5.173   2.228   4.997 -0.0002 -0.5502 -0.2449
   28MOL   C47824832   5.285   2.289   5.050  0.6057 -0.3131 -0.1734
   28MOL   C47924833   5.357   2.393   4.992  0.0286  0.7909 -0.2224
   28MOL   O48024834   5.103   2.131   5.064 -0.5306  0.5395 -0.6449
   28MOL   H48124835   5.728   2.996   5.563  1.2330  0.1212 -0.1476
   28MOL   H48224836   5.778   3.134   5.356  0.1138  0.9969 -2.7777
   28MOL   H48324837   5.352   3.169   5.291  0.0317 -1.1004 -1.4180
   28MOL   H48424838   5.316   3.017   5.510 -0.6787 -0.3360 -1.4851
   28MOL   H48524839   5.746   3.029   5.109 -1.5122  0.2159  2.3979
   28MOL   H48624840   5.771   2.892   4.890 -0.4694 -0.6053 -0.6492
   28MOL   H48724841   5.434   3.110   4.735 -2.4200 -2.1385  1.2336
   28MOL   H48824842   5.445   3.272   4.936  1.3195  1.2885  2.6827
   28MOL   H48924843   5.310   2.868   4.703  0.0378  1.1062  0.0848
   28MOL   H49024844   5.203   2.674   4.780  0.0237  0.7560 -0.8580
   28MOL   H49124845   5.574   2.468   4.810  0.8043  0.6475  2.0994
   28MOL   H49224846   5.695   2.676   4.717 -1.0430  1.1811 -3.3913
   28MOL   H49324847   5.157   2.419   4.714 -1.6486 -3.4613 -1.4971
   28MOL   H49424848   5.048   2.223   4.818  1.0387 -2.3985  0.0549
   28MOL   H49524849   5.320   2.261   5.149  0.4957 -0.3228 -0.1372
   28MOL   H49624850   5.437   2.442   5.045  0.7236  0.8926 -1.3379
   28MOL   C49724851   5.157   2.017   5.117  0.2385  0.9062  0.3664
   28MOL   C49824852   5.247   1.946   5.036 -0.0617 -0.0549 -0.6953
   28MOL   C49924853   5.301   1.820   5.073 -0.0760  0.0187 -0.4379
   28MOL   C50024854   5.268   1.766   5.201  0.0312  0.2349 -0.9858
   28MOL   C50124855   5.184   1.838   5.289 -0.4616  0.6939  0.5638
   28MOL   C50224856   5.128   1.961   5.243 -0.1119 -1.0918  0.3816
   28MOL   S50324857   5.304   1.591   5.230 -0.0072 -0.1102 -0.3441
   28MOL   O50424858   5.307   1.561   5.374 -0.2429 -0.2711 -0.0841
   28MOL   O50524859   5.428   1.562   5.155 -0.6933 -0.8039 -0.5727
   28MOL   C50624860   5.162   1.494   5.161 -0.0612 -0.7870 -0.4021
   28MOL   C50724861   5.037   1.560   5.146  0.5393 -0.2903 -0.5568
   28MOL   C50824862   4.925   1.494   5.095  0.2512  1.0769 -0.7455
   28MOL   C50924863   4.940   1.365   5.042  0.4133  0.5831 -0.1692
   28MOL   C51024864   5.065   1.302   5.045 -0.2681 -0.9511  0.5780
   28MOL   C51124865   5.176   1.373   5.092 -0.1599 -0.0190  0.3469
   28MOL   O51224866   4.833   1.316   4.979  0.1031  0.0438  0.3963
   28MOL   C51324867   4.734   1.239   5.046 -0.2959 -0.2904  0.1393
   28MOL   C51424868   4.753   1.174   5.170 -0.2118 -0.9899 -0.4480
   28MOL   C51524869   4.655   1.087   5.212  0.3630 -0.4505 -0.5408
   28MOL   C51624870   4.531   1.075   5.141  0.1472 -0.0651 -0.4066
   28MOL   C51724871   4.520   1.142   5.017 -0.0729 -0.3466  1.0427
   28MOL   C51824872   4.621   1.222   4.967  0.4895 -0.1135 -0.4569
   28MOL   C51924873   4.425   0.983   5.194  0.0673 -1.0115 -0.4062
   28MOL   C52024874   4.460   0.861   5.254 -0.0876  0.0942  0.3131
   28MOL   C52124875   4.364   0.788   5.333  0.5765  0.1526 -0.1405
   28MOL   C52224876   4.233   0.836   5.352 -0.3526 -0.4784  0.0766
   28MOL   C52324877   4.197   0.962   5.295  0.7018  0.9901  0.4249
   28MOL   C52424878   4.296   1.031   5.217  0.7689  0.0348  0.1172
   28MOL   O52524879   4.143   0.757   5.420  1.0402 -0.1371 -0.0456
   28MOL   H52624880   5.270   1.987   4.938 -1.3065 -0.6967 -1.2763
   28MOL   H52724881   5.371   1.775   5.004  0.6640  1.9107 -0.9581
   28MOL   H52824882   5.155   1.798   5.385 -1.8488  2.1394  0.7710
   28MOL   H52924883   5.053   2.009   5.304 -0.3917 -1.8819  0.6696
   28MOL   H53024884   5.044   1.665   5.170  2.6663 -0.5857  0.3059
   28MOL   H53124885   4.830   1.543   5.083 -1.0390 -0.8796  1.0273
   28MOL   H53224886   5.075   1.209   4.991 -1.2338 -0.4915 -0.4165
   28MOL   H53324887   5.274   1.332   5.077 -0.0697  0.2768  0.1289
   28MOL   H53424888   4.845   1.169   5.227 -1.0024 -2.9738  0.6947
   28MOL   H53524889   4.659   1.027   5.302 -2.5840 -0.9322 -0.6692
   28MOL   H53624890   4.432   1.137   4.955 -1.1185  3.2514  2.1400
   28MOL   H53724891   4.629   1.266   4.869 -0.9313  1.3619  0.0599
   28MOL   H53824892   4.561   0.826   5.239  0.0687 -0.3062  2.2436
   28MOL   H53924893   4.406   0.699   5.377  0.8680 -0.7836 -2.2487
   28MOL   H54024894   4.100   1.007   5.311  0.2949 -0.0961  1.0186
   28MOL   H54124895   4.282   1.133   5.182 -0.9682 -0.6274 -1.1679
   28MOL   C54224896   4.106   0.796   5.545 -0.3526  0.7405 -0.5623
   28MOL   C54324897   4.176   0.747   5.655 -0.4146 -0.6642 -0.4583
   28MOL   C54424898   4.135   0.780   5.783 -0.6662  0.1272 -0.1859
   28MOL   C54524899   4.018   0.852   5.801  0.6099 -0.4069  0.9327
   28MOL   C54624900   3.945   0.898   5.691  0.2473  0.0942 -0.7525
   28MOL   C54724901   3.990   0.867   5.567  1.2086 -0.8546  0.4530
   28MOL   S54824902   3.940   0.861   5.960  0.4446  0.0543 -0.2430
   28MOL   O54924903   3.938   0.722   6.006 -0.3193  0.6302  0.3029
   28MOL   O55024904   3.815   0.937   5.942  0.3734  0.1301  0.2094
   28MOL   C55124905   4.045   0.950   6.069 -0.4591  0.0184 -0.4715
   28MOL   C55224906   4.028   1.094   6.081 -0.0375  0.1752  0.1689
   28MOL   C55324907   4.098   1.162   6.180 -0.0107 -0.2609 -0.3630
   28MOL   C55424908   4.186   1.095   6.269  0.1685 -0.1605 -0.0260
   28MOL   C55524909   4.210   0.958   6.247 -0.2721  0.2700 -0.3798
   28MOL   C55624910   4.144   0.885   6.146 -0.8202  0.0866 -0.2123
   28MOL   O55724911   4.251   1.162   6.366 -0.0704 -0.1330  0.4548
   28MOL   C55824912   4.381   1.201   6.334  0.4980  0.2959 -0.5833
   28MOL   C55924913   4.498   1.118   6.333  0.6216 -0.0350  0.1135
   28MOL   C56024914   4.619   1.169   6.290 -0.1959 -0.1328 -0.4416
   28MOL   C56124915   4.628   1.301   6.239  0.0590  0.1936  0.8909
   28MOL   C56224916   4.518   1.388   6.257 -0.3460 -0.3898  0.6260
   28MOL   C56324917   4.396   1.338   6.302  0.4530 -0.4111 -0.1290
   28MOL   C56424918   4.756   1.341   6.173  0.8268 -0.3497  0.3472
   28MOL   C56524919   4.826   1.253   6.089  0.4067 -0.4674  0.0305
   28MOL   C56624920   4.952   1.286   6.040  0.0430 -0.2469 -0.2216
   28MOL   C56724921   5.006   1.418   6.056 -0.6364 -0.2786  0.0133
   28MOL   C56824922   4.930   1.513   6.122 -0.0389  0.2117 -0.0327
   28MOL   C56924923   4.808   1.473   6.192 -0.8683  0.3851  0.1482
   28MOL   O57024924   5.130   1.453   6.001  0.2622 -0.4710  0.0990
   28MOL   H57124925   4.269   0.695   5.637  2.0517  3.6527 -0.9559
   28MOL   H57224926   4.181   0.741   5.872 -0.4927 -0.2023 -0.4197
   28MOL   H57324927   3.848   0.939   5.712  0.2680  0.0662 -0.6074
   28MOL   H57424928   3.924   0.898   5.487  0.0957 -1.5059  1.1028
   28MOL   H57524929   3.949   1.144   6.027  0.2507  0.9618  0.4693
   28MOL   H57624930   4.068   1.263   6.204  3.5822  0.0291  3.4659
   28MOL   H57724931   4.269   0.899   6.315  0.3864  2.5518  1.0994
   28MOL   H57824932   4.149   0.777   6.144 -0.0082  0.0816  1.2748
   28MOL   H57924933   4.500   1.015   6.364  0.5712  0.0560  0.4193
   28MOL   H58024934   4.705   1.105   6.302 -1.0056 -1.1816 -0.2034
   28MOL   H58124935   4.521   1.490   6.221  0.4181 -1.0846 -1.3924
   28MOL   H58224936   4.308   1.401   6.301  0.1075 -0.8907 -0.3954
   28MOL   H58324937   4.792   1.151   6.083 -0.2274 -0.2915  0.5061
   28MOL   H58424938   5.011   1.212   5.988  1.0729  1.0030 -0.8800
   28MOL   H58524939   4.976   1.609   6.138  0.2262 -0.0544  0.8483
   28MOL   H58624940   4.763   1.546   6.258  1.8006  1.2901  1.0511
   28MOL   C58724941   5.233   1.474   6.091 -0.2757  0.4383 -0.0919
   28MOL   C58824942   5.300   1.593   6.099 -0.4570 -0.3189 -0.4105
   28MOL   C58924943   5.403   1.614   6.197 -0.2606 -0.1577 -0.4199
   28MOL   C59024944   5.436   1.513   6.300 -0.4548 -0.4502  0.2079
   28MOL   C59124945   5.356   1.398   6.287  0.5099 -0.2870 -0.4498
   28MOL   C59224946   5.263   1.376   6.190  0.2681 -0.1064 -0.1298
   28MOL   S59324947   5.529   1.551   6.451  0.1313 -0.2214 -0.1497
   28MOL   O59424948   5.539   1.696   6.483 -0.3528 -0.1978  0.1788
   28MOL   O59524949   5.647   1.468   6.447 -0.0648 -0.2942 -0.1826
   28MOL   C59624950   5.415   1.491   6.571  0.2671  0.1458  0.4602
   28MOL   C59724951   5.303   1.571   6.601 -0.2220  0.2245 -0.3401
   28MOL   C59824952   5.206   1.528   6.687 -0.3498 -1.0616 -0.2746
   28MOL   C59924953   5.215   1.401   6.751 -0.2601 -0.3532  0.2378
   28MOL   C60024954   5.330   1.324   6.718 -0.4664 -0.1877 -0.4866
   28MOL   C60124955   5.431   1.369   6.634 -0.1683  0.2702  0.7873
   28MOL   O60224956   5.115   1.354   6.831  0.0372  0.3279  0.8326
   28MOL   C60324957   5.020   1.281   6.773  0.4251 -0.2868  0.1430
   28MOL   C60424958   4.904   1.336   6.717  0.4778 -0.1824  0.1014
   28MOL   C60524959   4.814   1.249   6.654  0.1065  0.1338 -0.3303
   28MOL   C60624960   4.818   1.109   6.675  0.1105 -0.2600 -0.3011
   28MOL   C60724961   4.943   1.063   6.725  0.5428 -0.0024  0.1879
   28MOL   C60824962   5.048   1.141   6.770 -0.4121 -0.1392 -0.6242
   28MOL   C60924963   4.715   1.014   6.642 -0.1846 -0.0539 -0.4788
   28MOL   C61024964   4.752   0.895   6.573  0.4787  0.2272  0.8215
   28MOL   C61124965   4.642   0.809   6.536  0.0707  0.0308  0.4019
   28MOL   C61224966   4.513   0.831   6.587 -0.6163 -0.4065  1.0713
   28MOL   C61324967   4.479   0.956   6.644  0.2017  0.0184  0.5205
   28MOL   C61424968   4.582   1.044   6.678  0.2189 -0.9513 -0.0329
   28MOL   O61524969   4.408   0.740   6.576 -0.1244 -0.1772 -0.1093
   28MOL   H61624970   5.281   1.673   6.029 -0.5999 -0.0624 -0.0805
   28MOL   H61724971   5.459   1.706   6.206 -0.0256 -0.0337 -2.8889
   28MOL   H61824972   5.377   1.327   6.365 -0.2500  0.4070  0.3985
   28MOL   H61924973   5.199   1.289   6.201 -0.7247  0.4471 -1.3916
   28MOL   H62024974   5.294   1.665   6.548  0.1831 -0.7623 -2.2404
   28MOL   H62124975   5.121   1.588   6.717 -0.5675 -1.6884  0.3720
   28MOL   H62224976   5.350   1.234   6.774  0.5926  0.0197 -0.5354
   28MOL   H62324977   5.516   1.305   6.617  1.0951  1.9583  0.6431
   28MOL   H62424978   4.899   1.443   6.728  0.9071 -0.1859  0.3316
   28MOL   H62524979   4.721   1.286   6.614 -0.5004  0.2569  1.1591
   28MOL   H62624980   4.954   0.956   6.730  0.7488 -0.0805 -1.4505
   28MOL   H62724981   5.143   1.099   6.799 -0.4352  0.5725  0.5179
   28MOL   H62824982   4.852   0.866   6.544  0.0261 -0.2274 -0.3441
   28MOL   H62924983   4.669   0.714   6.492 -0.9793 -0.7658  1.4287
   28MOL   H63024984   4.374   0.969   6.669  0.2259 -1.6640  1.6494
   28MOL   H63124985   4.556   1.135   6.729  1.0333 -1.9932  2.3263
   28MOL   C63224986   4.411   0.637   6.493  0.4401 -0.4880 -0.2860
   28MOL   C63324987   4.425   0.656   6.352 -0.0222  0.1421  0.0440
   28MOL   C63424988   4.410   0.542   6.270  0.0846  0.7487 -0.0791
   28MOL   C63524989   4.384   0.413   6.327  0.4083 -0.1055 -0.2480
   28MOL   C63624990   4.379   0.398   6.464 -0.2862 -0.1565 -0.3188
   28MOL   C63724991   4.400   0.504   6.546 -0.3419  0.2922 -0.5491
   28MOL   S63824992   4.347   0.268   6.226 -0.0063  0.0243  0.0157
   28MOL   O63924993   4.210   0.232   6.262  0.1113 -0.4014 -0.2228
   28MOL   O64024994   4.457   0.168   6.226 -0.1349 -0.2003 -0.4147
   28MOL   C64124995   4.342   0.323   6.053 -1.1351 -0.6378 -0.4832
   28MOL   C64224996   4.457   0.300   5.972 -0.0446  0.1442  0.2787
   28MOL   C64324997   4.447   0.350   5.845 -0.6208 -0.2107 -0.4722
   28MOL   C64424998   4.335   0.414   5.790 -0.6629  0.5226 -0.2541
   28MOL   C64524999   4.220   0.436   5.866 -0.1740  0.2784 -0.1553
   28MOL   C64625000   4.227   0.380   5.996  0.0108 -0.5086  0.6609
   28MOL   O64725001   4.346   0.465   5.664  0.2569  0.3400  0.9946
   28MOL   C64825002   4.338   0.372   5.566  0.1988  0.1963 -0.0901
   28MOL   C64925003   4.462   0.314   5.529  0.1806 -0.5610  0.4422
   28MOL   C65025004   4.469   0.210   5.432  0.3430 -0.1338  0.4454
   28MOL   C65125005   4.349   0.160   5.376 -0.2022  0.4984 -0.2430
   28MOL   C65225006   4.223   0.215   5.418 -0.6836 -0.5282 -0.0060
   28MOL   C65325007   4.220   0.322   5.509  0.0364  0.1532 -0.8411
   28MOL   C65425008   4.358   0.054   5.275  0.6775  0.5960 -0.1160
   28MOL   C65525009   4.326   0.084   5.144 -0.8537  0.6247  0.0653
   28MOL   C65625010   4.342   8.353   5.041  0.6615 -0.1151  0.0492
   28MOL   C65725011   4.391   8.222   5.082  0.6775 -0.3292  0.1703
   28MOL   C65825012   4.417   8.189   5.222  0.5187  0.5006  0.1717
   28MOL   C65925013   4.409   8.292   5.316  0.6759 -0.3601  0.1708
   28MOL   O66025014   4.425   8.131   4.985  0.2822  0.1976 -0.2737
   28MOL   H66125015   4.436   0.755   6.312 -1.9413  1.0906  1.8162
   28MOL   H66225016   4.425   0.562   6.165 -0.5370  0.1923 -0.2743
   28MOL   H66325017   4.352   0.300   6.502 -0.7683  0.4711  1.0116
   28MOL   H66425018   4.395   0.483   6.652  1.0618 -2.3993 -0.9627
   28MOL   H66525019   4.546   0.247   6.002  0.5578 -0.3508 -2.3273
   28MOL   H66625020   4.542   0.346   5.792 -0.7020  2.4240 -0.8738
   28MOL   H66725021   4.136   0.497   5.839 -1.1561 -1.8761 -2.0777
   28MOL   H66825022   4.143   0.401   6.060 -1.1394 -0.9166 -0.7018
   28MOL   H66925023   4.551   0.352   5.578  0.0928 -0.3866  0.4648
   28MOL   H67025024   4.562   0.166   5.401 -0.4684 -1.4805 -0.1155
   28MOL   H67125025   4.129   0.173   5.386 -0.3195 -0.8593 -0.6589
   28MOL   H67225026   4.121   0.360   5.532  1.5773  2.6676  1.9136
   28MOL   H67325027   4.292   0.184   5.119  2.9336  2.0707  0.4532
   28MOL   H67425028   4.307   0.003   4.940  1.5083 -2.7099 -0.7085
   28MOL   H67525029   4.446   8.094   5.263  1.5478 -0.5807 -2.9040
   28MOL   H67625030   4.431   8.286   5.421 -2.4202 -0.4385  0.8419
   28MOL   C67725031   4.550   8.079   4.992 -0.3181 -0.2163 -0.7442
   28MOL   C67825032   4.665   8.153   5.010  0.5562  0.4069 -0.4924
   28MOL   C67925033   4.788   8.092   5.004 -0.2764  0.1563  0.4094
   28MOL   C68025034   4.805   7.949   4.981  0.1977 -0.5251  0.6770
   28MOL   C68125035   4.686   7.876   4.965  0.0065 -0.3076  0.5594
   28MOL   C68225036   4.559   7.938   4.975  0.4914  0.1176 -0.1432
   28MOL   S68325037   4.968   7.879   4.961 -0.4449  0.2258  0.0579
   28MOL   O68425038   5.069   7.976   5.001  0.5672 -0.1137  0.1447
   28MOL   O68525039   4.971   7.811   4.833 -0.3915 -0.0496  0.7956
   28MOL   C68625040   4.971   7.757   5.093 -0.4082  0.6546 -0.3107
   28MOL   C68725041   4.977   7.619   5.067 -0.2404 -0.6577 -0.2007
   28MOL   C68825042   4.962   7.522   5.171 -0.2035  0.0221 -0.2324
   28MOL   C68925043   4.950   7.563   5.301  0.3378  0.2133  0.2033
   28MOL   C69025044   4.937   7.703   5.325 -0.4512  0.1200 -0.1745
   28MOL   C69125045   4.949   7.795   5.225 -0.4903 -0.8064 -0.0574
   28MOL   O69225046   4.923   7.480   5.399  0.1782  0.4553 -0.4844
   28MOL   C69325047   4.788   7.462   5.441 -0.0720  0.1248  0.1439
   28MOL   C69425048   4.757   7.453   5.578  0.6831  0.3701  0.6032
   28MOL   C69525049   4.632   7.438   5.630 -0.3141  0.4005 -0.6010
   28MOL   C69625050   4.524   7.429   5.543  0.8584 -0.2479  0.5648
   28MOL   C69725051   4.551   7.427   5.405  1.0728  0.2935  0.1342
   28MOL   C69825052   4.677   7.450   5.353  0.2544  0.3926 -0.4485
   28MOL   C69925053   4.383   7.409   5.590  0.1466  0.1340 -0.3868
   28MOL   C70025054   4.353   7.331   5.704  0.4388 -0.0570 -0.5366
   28MOL   C70125055   4.224   7.312   5.750  0.3823 -0.1154 -0.8905
   28MOL   C70225056   4.114   7.361   5.681  0.6344 -0.3968  0.1387
   28MOL   C70325057   4.138   7.421   5.552 -0.4476  0.0077 -0.8023
   28MOL   C70425058   4.268   7.452   5.512  0.0541  0.0387  0.1632
   28MOL   O70525059   3.980   7.340   5.722 -0.1621  0.1304 -0.0724
   28MOL   H70625060   4.680   8.259   5.028  0.8081  0.5162 -1.3357
   28MOL   H70725061   4.876   8.153   5.021  0.1393 -0.1348 -0.6586
   28MOL   H70825062   4.693   7.771   4.942  1.1809 -0.4545  1.5195
   28MOL   H70925063   4.472   7.874   4.979 -1.5902  2.8454 -0.1368
   28MOL   H71025064   4.987   7.578   4.968 -1.5121 -1.1018 -0.1438
   28MOL   H71125065   4.965   7.417   5.146  0.2269  0.1798 -0.8559
   28MOL   H71225066   4.928   7.743   5.425 -0.3069  1.6453 -0.7624
   28MOL   H71325067   4.938   7.899   5.251  1.9094 -0.3593 -0.6917
   28MOL   H71425068   4.847   7.451   5.638  0.1424  1.4402  1.4684
   28MOL   H71525069   4.616   7.439   5.736 -0.3647  0.4078 -0.6088
   28MOL   H71625070   4.468   7.410   5.338  0.2544  0.7768  1.0196
   28MOL   H71725071   4.693   7.439   5.247 -0.3921  1.7089 -0.6823
   28MOL   H71825072   4.424   7.278   5.766 -2.1170 -0.7698  1.9237
   28MOL   H71925073   4.218   7.263   5.846  2.5261 -0.1844 -0.7613
   28MOL   H72025074   4.049   7.443   5.495 -1.0852 -0.7757 -0.1253
   28MOL   H72125075   4.278   7.503   5.417  1.1680  0.1367  0.3354
   28MOL   C72225076   3.880   7.414   5.665  0.3996  0.6748  0.2078
   28MOL   C72325077   3.886   7.554   5.675  0.2708  0.2961 -0.1324
   28MOL   C72425078   3.787   7.629   5.605 -0.0670  0.0439  0.8564
   28MOL   C72525079   3.685   7.565   5.538  0.7426  0.0428  1.1715
   28MOL   C72625080   3.675   7.422   5.542 -0.0320  0.0997  0.4371
   28MOL   C72725081   3.776   7.346   5.601  0.6983 -0.0947 -0.3655
   28MOL   S72825082   3.567   7.653   5.457 -0.0214  0.0817  0.3476
   28MOL   O72925083   3.445   7.652   5.539  0.3793 -0.3192 -0.0767
   28MOL   O73025084   3.563   7.597   5.321  0.1271  0.3104  0.5056
   28MOL   C73125085   3.626   7.830   5.434  0.2588  0.0744  0.8652
   28MOL   C73225086   3.758   7.845   5.386 -0.3538 -0.3932 -0.6768
   28MOL   C73325087   3.799   7.970   5.335  0.0239  0.1886 -0.3190
   28MOL   C73425088   3.711   8.080   5.355 -0.2312 -0.1061 -0.3229
   28MOL   C73525089   3.591   8.068   5.417  0.5830 -0.1640 -0.0063
   28MOL   C73625090   3.543   7.941   5.458  0.4615  0.4576  0.5609
   28MOL   O73725091   3.739   8.204   5.312 -0.1975  0.4727 -0.2917
   28MOL   C73825092   3.716   8.241   5.190  0.4325  0.3244  0.4516
   28MOL   C73925093   3.587   8.290   5.159  0.7799  0.2991  0.0731
   28MOL   C74025094   3.564   8.333   5.030 -0.0495  0.2859  0.1341
   28MOL   C74125095   3.655   8.323   4.921 -0.0683  0.6887 -0.5504
   28MOL   C74225096   3.778   8.260   4.950  0.6155  0.4103 -0.0818
   28MOL   C74325097   3.809   8.225   5.084  0.3271 -0.6820  0.0464
   28MOL   C74425098   3.621   0.002   4.789  0.7319  0.9594  0.0568
   28MOL   C74525099   3.484   0.023   4.755 -0.6447  0.4129  0.1656
   28MOL   C74625100   3.437   0.042   4.624 -0.0733  0.1300 -0.3536
   28MOL   C74725101   3.530   0.052   4.521  0.0889 -0.0341 -0.5913
   28MOL   C74825102   3.669   0.050   4.557  0.0491 -0.4986  0.2755
   28MOL   C74925103   3.716   0.024   4.685  0.5568  0.2957 -0.0945
   28MOL   O75025104   3.484   0.076   4.395 -0.4747  0.0854 -0.2829
   28MOL   H75125105   3.969   7.597   5.729 -1.3233 -0.0888  2.7220
   28MOL   H75225106   3.782   7.736   5.621 -2.6561 -0.2200  1.9879
   28MOL   H75325107   3.605   7.377   5.473  1.0981 -1.8553  0.5409
   28MOL   H75425108   3.777   7.240   5.582  0.5895 -0.0224 -0.7892
   28MOL   H75525109   3.827   7.762   5.388  2.1884  1.6310  0.2960
   28MOL   H75625110   3.897   7.995   5.297  0.3363  2.3440  1.8032
   28MOL   H75725111   3.532   8.153   5.449  1.8904  0.1547  1.5979
   28MOL   H75825112   3.440   7.939   5.492 -0.1008  1.2528 -1.0072
   28MOL   H75925113   3.512   8.305   5.235  2.5279  2.5520  1.4411
   28MOL   H76025114   3.465   0.008   5.019 -0.9247 -1.0949  2.5103
   28MOL   H76125115   3.855   8.247   4.876  1.2626 -0.8284  0.7985
   28MOL   H76225116   3.910   8.190   5.101  0.3657 -0.4114  0.3821
   28MOL   H76325117   3.403   0.018   4.826  0.7530 -2.4528  1.5811
   28MOL   H76425118   3.331   0.058   4.617 -0.2292  0.7586  2.6770
   28MOL   H76525119   3.738   0.077   4.479 -1.8273  2.1234 -0.5707
   28MOL   H76625120   3.822   0.026   4.702  0.6207 -2.3479  0.1490
   28MOL   C76725121   3.553   0.015   4.294 -0.2548  0.0631 -0.5316
   28MOL   C76825122   3.603   0.085   4.184  0.2150  0.1514  0.1357
   28MOL   C76925123   3.696   0.026   4.097 -0.4778 -0.5624  0.4044
   28MOL   C77025124   3.732   8.254   4.116  0.4714 -0.7351  0.8402
   28MOL   C77125125   3.675   8.180   4.221 -0.2174 -0.1413  0.3938
   28MOL   C77225126   3.577   8.237   4.300 -0.8241 -0.6133  1.0332
   28MOL   S77325127   3.864   8.183   4.021  0.4219 -0.2021 -0.0976
   28MOL   O77425128   3.867   8.261   3.894 -0.6720 -0.1741  0.3418
   28MOL   O77525129   3.854   8.036   4.010  0.3390 -0.6872  0.0622
   28MOL   C77625130   4.011   8.222   4.110  0.3265 -0.2015 -0.5441
   28MOL   C77725131   4.044   8.158   4.234  0.6262 -0.6062 -0.0911
   28MOL   C77825132   4.162   8.190   4.297 -0.4835 -0.2540 -0.5084
   28MOL   C77925133   4.252   8.291   4.256 -0.7631 -0.6766  0.1342
   28MOL   C78025134   4.221   8.360   4.135  0.4386  0.5636 -0.2449
   28MOL   C78125135   4.100   8.324   4.057  0.2410  0.5567 -0.1727
   28MOL   O78225136   4.373   8.308   4.324  0.5685 -0.1381  0.8690
   28MOL   C78325137   4.434   0.066   4.333 -0.5744  1.2224  0.6530
   28MOL   C78425138   4.554   0.074   4.260 -0.0508  0.1515 -0.6332
   28MOL   C78525139   4.634   0.192   4.272  0.4389  0.3473 -0.1206
   28MOL   C78625140   4.581   0.302   4.341 -0.2146 -0.3387  0.0767
   28MOL   C78725141   4.463   0.290   4.413  0.1761  0.7937 -0.5398
   28MOL   C78825142   4.391   0.169   4.413 -0.7885 -0.0261  0.0871
   28MOL   C78925143   4.658   0.428   4.358 -0.3576  0.4405  0.1739
   28MOL   C79025144   4.640   0.535   4.265  0.3635  0.6085  0.8387
   28MOL   C79125145   4.724   0.653   4.272 -0.4086 -0.1187  0.1110
   28MOL   C79225146   4.809   0.675   4.383  0.3491 -0.4589  0.5687
   28MOL   C79325147   4.827   0.574   4.477 -0.3018  0.0698  0.5115
   28MOL   C79425148   4.760   0.450   4.455  0.7493 -0.1741  0.3845
   28MOL   O79525149   4.867   0.795   4.399  0.2305  0.1944  0.0605
   28MOL   H79625150   3.587   0.191   4.169  0.1486  0.1025 -0.1510
   28MOL   H79725151   3.735   0.088   4.018  0.4600 -1.8134 -0.1292
   28MOL   H79825152   3.714   8.084   4.252  0.7552 -0.2694 -1.1983
   28MOL   H79925153   3.525   8.192   4.384 -3.5644  0.4708 -0.0144
   28MOL   H80025154   3.981   8.078   4.272 -1.5010  1.2003  0.2954
   28MOL   H80125155   4.195   8.135   4.383 -2.8293 -0.2421  0.4555
   28MOL   H80225156   4.293   0.059   4.086 -0.3753 -0.2713 -2.6285
   28MOL   H80325157   4.084   8.361   3.957 -3.3321 -1.2057 -0.3392
   28MOL   H80425158   4.570   0.003   4.181  0.5869  0.2972 -0.6365
   28MOL   H80525159   4.726   0.200   4.217  0.2659  1.1735 -0.2992
   28MOL   H80625160   4.422   0.369   4.474  1.8966  0.4551  1.0926
   28MOL   H80725161   4.305   0.165   4.478 -0.5989  3.4978  0.6589
   28MOL   H80825162   4.573   0.519   4.181  0.5574  0.3153  0.7398
   28MOL   H80925163   4.702   0.728   4.196  0.4016  0.5278  0.5098
   28MOL   H81025164   4.893   0.586   4.562  1.7789  0.0859 -1.0708
   28MOL   H81125165   4.798   0.371   4.519 -1.8018 -1.5555  0.2698
   28MOL   C81225166   4.929   0.855   4.294  0.2206 -0.2093  0.0436
   28MOL   C81325167   4.862   0.951   4.216  0.8174  0.2576 -0.2486
   28MOL   C81425168   4.917   1.009   4.104  0.8707 -0.1878  0.7950
   28MOL   C81525169   5.049   0.965   4.063  0.4060  0.5199  0.9771
   28MOL   C81625170   5.124   0.879   4.141  0.6030 -0.5380 -0.2253
   28MOL   C81725171   5.061   0.813   4.251  0.5347 -0.8393 -0.3115
   28MOL   S81825172   5.106   1.045   3.910  0.4773  0.1296  0.3836
   28MOL   O81925173   5.248   1.027   3.901 -0.2971 -0.0952  0.2846
   28MOL   O82025174   5.042   1.176   3.895 -0.1464 -0.3728 -0.4508
   28MOL   C82125175   5.045   0.945   3.782 -0.4906 -0.0715  0.2023
   28MOL   C82225176   5.126   0.915   3.669  0.4914 -0.9599 -0.3428
   28MOL   C82325177   5.079   0.826   3.571 -0.6188  0.1837 -0.3323
   28MOL   C82425178   4.960   0.763   3.587 -0.0896  0.3100 -0.1299
   28MOL   C82525179   4.872   0.790   3.696 -0.4301 -0.1491 -0.5930
   28MOL   C82625180   4.919   0.883   3.793 -0.1456  1.2370  0.2535
   28MOL   O82725181   4.918   0.671   3.491  0.0245 -0.0718  0.2588
   28MOL   C82825182   4.950   0.537   3.507 -0.3213 -0.3408  0.2225
   28MOL   C82925183   5.043   0.502   3.608 -0.4577  0.3828  0.8612
   28MOL   C83025184   5.081   0.368   3.624 -0.0150  0.3905  0.1949
   28MOL   C83125185   5.030   0.270   3.539  0.0216 -0.3323  0.6383
   28MOL   C83225186   4.948   0.313   3.429 -0.0983 -0.1417  0.1443
   28MOL   C83325187   4.898   0.444   3.416 -0.9982  0.3592  0.6552
   28MOL   C83425188   5.056   0.128   3.565  0.4409  0.0431  0.1228
   28MOL   C83525189   5.104   0.053   3.454  0.3200 -0.6851 -0.8894
   28MOL   C83625190   5.119   8.281   3.467 -0.3453 -0.1718 -0.0394
   28MOL   C83725191   5.096   8.221   3.593  0.6618  0.0674  0.5047
   28MOL   C83825192   5.075   8.302   3.706 -0.0383  0.5332  0.2132
   28MOL   C83925193   5.052   0.077   3.692 -0.1329  0.3336 -0.2601
   28MOL   O84025194   5.099   8.087   3.611  0.3974  0.2503  0.7899
   28MOL   H84125195   4.765   0.985   4.247  1.2429  1.5842 -0.3699
   28MOL   H84225196   4.857   1.076   4.044  1.5580 -1.1144 -0.9588
   28MOL   H84325197   5.228   0.860   4.121  1.3719  1.0272  2.0794
   28MOL   H84425198   5.124   0.740   4.301  3.4516  1.1429 -0.9982
   28MOL   H84525199   5.221   0.968   3.664  1.2869 -2.4720 -1.6646
   28MOL   H84625200   5.140   0.807   3.484 -0.8779  2.2064 -1.0018
   28MOL   H84725201   4.779   0.736   3.693 -0.7913  0.5274 -2.4137
   28MOL   H84825202   4.862   0.900   3.883  1.7530  2.2876  1.2801
   28MOL   H84925203   5.085   0.559   3.689 -0.3151  0.2385  0.8902
   28MOL   H85025204   5.144   0.342   3.708  0.2125  0.7326  0.1284
   28MOL   H85125205   4.912   0.235   3.363  1.4117  0.5422 -1.5423
   28MOL   H85225206   4.835   0.467   3.332 -0.4539  0.4758  0.2765
   28MOL   H85325207   5.120   0.091   3.354  0.6980 -0.5009 -0.7608
   28MOL   H85425208   5.139   8.219   3.380  0.1249 -0.3152  0.1676
   28MOL   H85525209   5.071   8.263   3.807 -2.3806  1.0640  0.3501
   28MOL   H85625210   5.025   0.134   3.780 -1.5411  0.2445 -0.6309
   28MOL   C85725211   5.220   8.029   3.619  0.2495  0.1447 -0.2857
   28MOL   C85825212   5.272   7.978   3.741  0.0403 -0.2488  0.1042
   28MOL   C85925213   5.395   7.905   3.750  0.1216  0.4848 -0.0338
   28MOL   C86025214   5.462   7.888   3.629 -0.4393 -0.3496 -0.2909
   28MOL   C86125215   5.414   7.938   3.505 -0.4126 -0.3675 -0.2910
   28MOL   C86225216   5.291   8.010   3.502 -0.7850 -0.1224 -0.1877
   28MOL   S86325217   5.619   7.797   3.628 -0.1722  0.2499 -0.2812
   28MOL   O86425218   5.577   7.673   3.569  0.2498  0.2946 -0.4063
   28MOL   O86525219   5.680   7.802   3.760  0.0983  0.8010  0.2142
   28MOL   C86625220   5.729   7.871   3.516  0.2757  0.6050  0.7307
   28MOL   C86725221   5.756   7.809   3.390  0.2936 -0.3386 -0.3496
   28MOL   C86825222   5.832   7.876   3.290  1.3440  0.4203  0.0498
   28MOL   C86925223   5.893   8.004   3.324 -0.1294  0.0199  0.3782
   28MOL   C87025224   5.876   8.056   3.450  0.7999  0.0368 -0.1744
   28MOL   C87125225   5.795   7.993   3.549  0.2159  0.6671  0.1040
   28MOL   O87225226   5.978   8.062   3.234  0.3255 -0.5170  0.0425
   28MOL   C87325227   5.968   8.205   3.206 -0.0845 -0.2369  0.1708
   28MOL   C87425228   6.090   8.268   3.164  0.1062 -0.1289  0.0689
   28MOL   C87525229   6.092   0.043   3.143 -0.1738 -0.2781 -0.6787
   28MOL   C87625230   5.972   0.118   3.147  0.0522 -0.3623  0.0425
   28MOL   C87725231   5.851   0.055   3.179  0.0782  0.0838  0.7469
   28MOL   C87825232   5.852   8.285   3.212  0.9427 -0.6034 -0.8956
   28MOL   C87925233   5.981   0.261   3.129  0.3215 -0.2353 -0.2796
   28MOL   C88025234   5.933   0.329   3.017 -0.0573  0.8136 -0.8174
   28MOL   C88125235   5.934   0.470   3.008 -0.9749  0.2621 -0.2747
   28MOL   C88225236   5.994   0.544   3.111 -0.3465  0.1600 -0.1550
   28MOL   C88325237   6.046   0.476   3.224 -0.3233  0.5161 -0.3903
   28MOL   C88425238   6.049   0.336   3.233  0.7674 -0.0099 -0.1549
   28MOL   O88525239   5.992   0.679   3.122  0.3063  0.2582 -0.4983
   28MOL   H88625240   5.216   7.994   3.831 -1.3675 -0.7526 -0.6639
   28MOL   H88725241   5.436   7.865   3.842  0.7396  0.9103 -0.1181
   28MOL   H88825242   5.466   7.915   3.413 -1.1101  3.2113 -1.6345
   28MOL   H88925243   5.262   8.057   3.409  3.0363  0.1917 -1.3169
   28MOL   H89025244   5.700   7.720   3.366 -0.7104  0.1791  0.0314
   28MOL   H89125245   5.852   7.844   3.189  0.7563 -2.1501  0.7093
   28MOL   H89225246   5.913   8.154   3.473  2.0010 -0.7071  1.1060
   28MOL   H89325247   5.770   8.028   3.648  1.6777 -0.5768  0.9424
   28MOL   H89425248   6.187   8.221   3.161  0.3267  0.3408 -0.3876
   28MOL   H89525249   6.180   0.093   3.106  1.0933 -1.4056  0.7669
   28MOL   H89625250   5.757   0.104   3.200 -1.2694 -0.8031 -2.8615
   28MOL   H89725251   5.752   8.257   3.242  0.2907  0.6227 -1.8838
   28MOL   H89825252   5.878   0.288   2.934  0.6197  2.5101 -2.1321
   28MOL   H89925253   5.894   0.533   2.929  0.3348  0.7464 -0.5681
   28MOL   H90025254   6.087   0.526   3.310 -0.8131  0.2874 -0.0265
   28MOL   H90125255   6.088   0.288   3.321 -0.7305  2.4835  1.9684
   28MOL   H90225256   6.022   0.718   3.203  0.0731 -1.2140  0.3077
   29MOL     C125257   7.842   5.174   7.726  0.1564  0.0760  0.1472
   29MOL     C225258   7.869   5.059   7.802 -0.3856  0.5244 -0.0634
   29MOL     C325259   7.961   5.055   7.905  0.3231 -0.2093  0.2681
   29MOL     C425260   8.031   5.170   7.937 -0.0378  0.1589 -0.5718
   29MOL     C525261   8.001   5.284   7.863 -0.1388 -0.4445  0.4278
   29MOL     C625262   7.902   5.294   7.765 -1.3000  0.2402  0.3596
   29MOL     S725263   8.149   5.175   8.072  0.0847  0.1349  0.3443
   29MOL     O825264   8.066   5.186   8.193 -0.5682 -0.9155  0.0367
   29MOL     O925265   8.260   5.272   8.050 -0.1946 -0.1962 -0.1232
   29MOL    C1025266   8.223   5.014   8.080 -0.8387  0.8080 -0.2934
   29MOL    C1125267   8.162   4.926   8.172 -0.2438  0.5190 -0.0781
   29MOL    C1225268   8.227   4.802   8.194  0.6254  0.2864 -0.2503
   29MOL    C1325269   8.344   4.763   8.125 -0.1343 -0.3057  0.1709
   29MOL    C1425270   0.030   4.843   8.021  0.2972  0.1618  0.3250
   29MOL    C1525271   8.333   4.972   7.996  0.3070  0.4686  0.2924
   29MOL    O1625272   0.026   4.639   8.155 -0.3556  0.1712  0.2681
   29MOL    C1725273   8.322   4.527   8.120  0.3690  0.6589  0.0445
   29MOL    C1825274   8.337   4.406   8.198 -0.3896  0.1962  0.0366
   29MOL    C1925275   8.279   4.290   8.150  0.1178  0.2302 -0.0765
   29MOL    C2025276   8.206   4.286   8.028 -0.9557 -0.3598  0.4229
   29MOL    C2125277   8.196   4.408   7.953  0.3767 -0.1032  0.1374
   29MOL    C2225278   8.245   4.529   8.004  0.7766 -0.0162 -0.1390
   29MOL    C2325279   8.145   4.169   7.978  0.1522  0.5089  0.4093
   29MOL    C2425280   8.023   4.178   7.914  0.0252 -0.6194  0.1724
   29MOL    C2525281   7.964   4.071   7.844 -0.0648  0.6435  0.3347
   29MOL    C2625282   8.035   3.946   7.838  0.3097  0.3612 -0.5061
   29MOL    C2725283   8.160   3.936   7.902  0.5649  0.7140 -0.1194
   29MOL    C2825284   8.213   4.046   7.975 -0.4073 -0.0995  0.2198
   29MOL    O2925285   7.978   3.836   7.781 -0.0072  0.0482  0.6100
   29MOL    H3025286   7.801   4.975   7.793 -0.8491  0.9708 -0.8122
   29MOL    H3125287   7.980   4.962   7.956  0.4074 -0.6169 -0.4922
   29MOL    H3225288   8.058   5.371   7.894 -0.7520 -0.1994  0.8719
   29MOL    H3325289   7.869   5.383   7.713 -2.3262 -0.3145  0.0604
   29MOL    H3425290   8.079   4.968   8.226  1.2603 -1.6454  4.1670
   29MOL    H3525291   8.187   4.729   8.264  0.9035 -0.2559 -0.6559
   29MOL    H3625292   0.121   4.820   7.968  0.4365 -1.4042  1.2016
   29MOL    H3725293   0.004   5.047   7.928 -2.3224 -1.0850 -3.0115
   29MOL    H3825294   0.034   4.410   8.285 -2.1107  2.4916  1.2011
   29MOL    H3925295   8.279   4.198   8.207 -2.1713 -1.4295 -2.6102
   29MOL    H4025296   8.149   4.404   7.856 -1.6330  1.8147  0.9925
   29MOL    H4125297   8.230   4.613   7.939 -2.3107 -0.8552 -0.5938
   29MOL    H4225298   7.963   4.267   7.910  1.2961  0.1759 -2.5257
   29MOL    H4325299   7.873   4.088   7.789 -1.4459 -0.0511  2.3435
   29MOL    H4425300   8.225   3.852   7.882 -0.4517 -0.4143  1.2413
   29MOL    H4525301   8.315   4.039   8.007 -1.1474 -0.9478  2.4490
   29MOL    H4625302   7.758   5.171   7.657 -0.1365  3.0063  0.3278
   29MOL    C4725303   8.039   3.776   7.675 -0.0169 -0.1964  0.1621
   29MOL    C4825304   7.989   3.648   7.644  0.2638 -0.6882 -0.2789
   29MOL    C4925305   8.042   3.589   7.533  0.6505 -0.7348  0.4734
   29MOL    C5025306   8.120   3.657   7.441  0.6906 -0.4684  0.8165
   29MOL    C5125307   8.170   3.782   7.467  0.0158  0.3635 -0.3826
   29MOL    C5225308   8.130   3.845   7.585  0.0642 -0.9771  0.0802
   29MOL    S5325309   8.182   3.557   7.297  0.1724 -0.2199  0.3547
   29MOL    O5425310   8.128   3.420   7.302  0.3235 -1.1257 -0.7335
   29MOL    O5525311   8.326   3.577   7.296  0.0323  0.1168 -0.4136
   29MOL    C5625312   8.124   3.629   7.143  0.9329 -0.9524 -0.0597
   29MOL    C5725313   8.127   3.547   7.026 -0.6044  0.1283 -0.4004
   29MOL    C5825314   8.070   3.585   6.902  0.8107 -0.0604  0.4837
   29MOL    C5925315   8.013   3.717   6.893  0.0854  0.3101  0.6892
   29MOL    C6025316   8.010   3.793   7.010 -0.0852 -0.3268  0.0437
   29MOL    C6125317   8.065   3.759   7.134 -0.0070 -0.0024  0.0242
   29MOL    O6225318   7.967   3.756   6.769  0.0834  0.3589 -0.2340
   29MOL    C6325319   7.843   3.708   6.730 -0.4703  0.5266  0.6840
   29MOL    C6425320   7.776   3.763   6.616 -0.0462  0.6550  0.1392
   29MOL    C6525321   7.651   3.719   6.579 -0.0751  0.4046 -0.1856
   29MOL    C6625322   7.586   3.620   6.648  0.7399  0.1629 -0.1459
   29MOL    C6725323   7.657   3.551   6.751 -0.0058 -0.6943 -0.1848
   29MOL    C6825324   7.782   3.595   6.794  0.5303 -0.2693  0.3704
   29MOL    C6925325   7.463   3.555   6.584 -0.2851  0.3025 -0.7392
   29MOL    C7025326   7.451   3.415   6.590  0.1690  0.0261 -0.5163
   29MOL    C7125327   7.344   3.349   6.521  0.1446  0.4815  0.4268
   29MOL    C7225328   7.257   3.424   6.447 -1.0527  0.1256  0.8339
   29MOL    C7325329   7.280   3.561   6.425 -0.6735 -0.1306  0.2136
   29MOL    C7425330   7.376   3.620   6.500  0.2637 -0.4127  0.2935
   29MOL    O7525331   7.158   3.363   6.374 -0.3505  0.3633  0.2591
   29MOL    H7625332   7.909   3.603   7.703  0.1780 -2.8295 -1.9540
   29MOL    H7725333   7.993   3.498   7.501 -2.2149  0.1653  2.1520
   29MOL    H7825334   8.242   3.824   7.397 -0.6379 -0.4981 -1.5980
   29MOL    H7925335   8.162   3.947   7.597  0.2096 -0.9697 -0.3705
   29MOL    H8025336   8.165   3.447   7.020 -0.7246  0.0143  0.7042
   29MOL    H8125337   8.077   3.517   6.818  2.3654 -2.1824  2.2625
   29MOL    H8225338   7.951   3.884   7.017  1.0330  0.6053 -2.0020
   29MOL    H8325339   8.063   3.818   7.224 -0.6101 -0.0129  0.0173
   29MOL    H8425340   7.822   3.844   6.560  1.2637 -0.6855 -0.7841
   29MOL    H8525341   7.595   3.760   6.496 -1.9186 -1.9636 -0.1521
   29MOL    H8625342   7.622   3.459   6.797 -0.2811  0.0771  1.1807
   29MOL    H8725343   7.821   3.547   6.883  0.1827 -1.9249 -0.3659
   29MOL    H8825344   7.521   3.349   6.640 -0.9664  0.1154  1.2417
   29MOL    H8925345   7.345   3.242   6.528  0.0436  0.5516  1.5781
   29MOL    H9025346   7.219   3.612   6.352 -0.7032  0.3344  0.5563
   29MOL    H9125347   7.390   3.724   6.477  0.8029 -0.9964 -2.2449
   29MOL    C9225348   7.033   3.395   6.411 -1.2103 -0.1585 -0.5222
   29MOL    C9325349   6.962   3.492   6.344  0.8931 -0.2446  0.1388
   29MOL    C9425350   6.832   3.522   6.378  0.2086 -0.2203  0.2379
   29MOL    C9525351   6.778   3.454   6.485  0.1429 -0.3601 -0.3454
   29MOL    C9625352   6.851   3.367   6.565  0.2045 -0.2385 -0.0745
   29MOL    C9725353   6.985   3.342   6.533 -0.6224  0.4815  0.1399
   29MOL    S9825354   6.610   3.492   6.539  0.5942  0.3456 -0.1005
   29MOL    O9925355   6.527   3.507   6.421 -0.0491  0.0949 -0.2306
   29MOL   O10025356   6.622   3.612   6.625 -0.3833  0.3221 -0.6655
   29MOL   C10125357   6.554   3.347   6.638 -0.1861 -0.0513 -0.1184
   29MOL   C10225358   6.494   3.230   6.583 -0.3990  0.4807  0.2448
   29MOL   C10325359   6.430   3.134   6.666 -0.1078 -1.3708 -0.0470
   29MOL   C10425360   6.463   3.137   6.802  0.0670 -0.5326 -0.0198
   29MOL   C10525361   6.536   3.242   6.853 -0.0846  0.6563 -0.1062
   29MOL   C10625362   6.586   3.351   6.777  0.1607  0.6839  0.2298
   29MOL   O10725363   6.419   3.024   6.875 -0.0432  0.3489 -0.3750
   29MOL   C10825364   6.454   3.016   7.012 -1.0903 -0.7756  0.0873
   29MOL   C10925365   6.588   2.986   7.052  0.1312  0.1837 -0.0631
   29MOL   C11025366   6.629   2.987   7.189  0.1311 -0.0669 -0.0504
   29MOL   C11125367   6.532   3.024   7.288 -0.0300  0.6372 -0.0510
   29MOL   C11225368   6.401   3.058   7.249 -0.9717 -0.0663 -0.3048
   29MOL   C11325369   6.368   3.061   7.114  0.1984  0.1451  0.8777
   29MOL   C11425370   6.566   3.026   7.433  0.0592 -0.2426  0.3619
   29MOL   C11525371   6.701   3.039   7.483  0.0799 -0.2892 -0.4699
   29MOL   C11625372   6.729   3.045   7.627 -0.4056 -0.2219 -0.1758
   29MOL   C11725373   6.620   3.046   7.717  0.3837 -0.0244  0.5736
   29MOL   C11825374   6.494   3.010   7.672 -0.9733  0.4275  0.0780
   29MOL   C11925375   6.468   3.003   7.532  0.0275 -0.4649  0.5578
   29MOL   O12025376   6.640   3.056   7.849 -0.5442  0.1871 -0.1211
   29MOL   H12125377   6.995   3.549   6.259  0.3225 -0.1436 -0.0120
   29MOL   H12225378   6.773   3.589   6.317  0.8612 -0.5476 -0.7681
   29MOL   H12325379   6.807   3.320   6.652  0.8900  1.1916  1.0629
   29MOL   H12425380   7.033   3.271   6.598  1.2410  3.2133  1.8296
   29MOL   H12525381   6.471   3.230   6.478 -1.2482  1.1591  0.4287
   29MOL   H12625382   6.361   3.058   6.632 -2.6298  1.0624 -0.5230
   29MOL   H12725383   6.553   3.238   6.960 -0.1899 -1.0371 -0.1393
   29MOL   H12825384   6.636   3.434   6.824  0.2632  0.8328 -0.1434
   29MOL   H12925385   6.648   2.969   6.963  0.4788  2.0640 -0.2005
   29MOL   H13025386   6.730   2.958   7.210  0.0223 -0.6886 -0.3773
   29MOL   H13125387   6.322   3.093   7.314 -0.9712 -0.1625 -0.2512
   29MOL   H13225388   6.268   3.089   7.086 -0.2426 -1.9805  0.1808
   29MOL   H13325389   6.787   3.026   7.419 -0.7312 -0.1011 -1.6231
   29MOL   H13425390   6.829   3.061   7.665  0.2667 -1.4596 -1.4032
   29MOL   H13525391   6.414   2.993   7.742 -2.5957  1.0846 -1.5952
   29MOL   H13625392   6.365   2.985   7.504  0.1704  0.5403 -0.6609
   29MOL   C13725393   6.551   3.127   7.927  0.1542 -0.5792 -0.1866
   29MOL   C13825394   6.488   3.063   8.031  0.9655 -0.7471 -0.2552
   29MOL   C13925395   6.392   3.136   8.111  0.7243  0.1345  0.4244
   29MOL   C14025396   6.357   3.263   8.075  0.5491  0.3258  0.3974
   29MOL   C14125397   6.430   3.330   7.976  0.1348 -0.1954 -0.3615
   29MOL   C14225398   6.524   3.265   7.899 -0.2783 -0.3797 -0.4663
   29MOL   S14325399   6.229   3.355   8.162 -0.2965 -0.2864 -0.3420
   29MOL   O14425400   6.100   3.325   8.098  0.4187 -0.2725  0.0410
   29MOL   O14525401   6.271   3.496   8.158 -0.7971 -0.3113  0.0161
   29MOL   C14625402   6.217   3.307   8.338  0.8347  0.3167  0.3238
   29MOL   C14725403   6.124   3.204   0.012  0.1182  0.0316  0.7364
   29MOL   C14825404   6.116   3.179   0.155  0.2157 -0.6322  0.4784
   29MOL   C14925405   6.198   3.253   0.247 -0.1077 -0.0715  0.0975
   29MOL   C15025406   6.298   3.338   0.199 -0.3023  0.6266 -0.4824
   29MOL   C15125407   6.308   3.367   0.059  0.1780 -0.4870 -0.3640
   29MOL   O15225408   6.178   3.227   0.376 -0.6240  0.2114 -0.6487
   29MOL   C15325409   6.287   3.208   0.450  0.0414 -0.1580 -0.2261
   29MOL   C15425410   6.316   3.296   0.558  0.4604  0.0650  0.1320
   29MOL   C15525411   6.439   3.284   0.624  0.2312  0.1936  0.0606
   29MOL   C15625412   6.528   3.174   0.610  0.5491  1.2207 -0.0706
   29MOL   C15725413   6.484   3.081   0.512  0.2285 -0.6104  0.0107
   29MOL   C15825414   6.373   3.100   0.430  0.2832 -0.4046 -0.3451
   29MOL   C15925415   6.646   3.164   0.696 -0.3755  0.4403 -0.1191
   29MOL   C16025416   6.749   3.073   0.660  0.8519  0.1347  0.0252
   29MOL   C16125417   6.863   3.049   0.742  0.0157  0.4613 -0.6400
   29MOL   C16225418   6.870   3.115   0.871 -0.1728 -0.2906  0.5332
   29MOL   C16325419   6.769   3.209   0.903  0.4708 -0.6365 -0.3679
   29MOL   C16425420   6.660   3.231   0.818 -0.5528  0.5868 -0.4954
   29MOL   O16525421   6.987   3.093   0.938 -0.4070 -0.2981 -0.6427
   29MOL   H16625422   6.514   2.961   8.057 -0.9702 -1.2708 -0.2995
   29MOL   H16725423   6.343   3.086   8.194 -1.5435  0.5225 -0.6530
   29MOL   H16825424   6.398   3.429   7.946 -0.7659 -0.4449 -0.2653
   29MOL   H16925425   6.578   3.323   7.826  1.7410 -0.0045  1.2737
   29MOL   H17025426   6.062   3.162   8.300  3.3105  0.7599 -2.3245
   29MOL   H17125427   6.038   3.111   0.184  0.8752 -0.6426  2.3065
   29MOL   H17225428   6.368   3.379   0.270  0.1343 -2.6770  1.0809
   29MOL   H17325429   6.379   3.439   0.023 -0.6287 -0.0465 -1.0957
   29MOL   H17425430   6.253   3.382   0.575  0.5710  0.2886 -0.5641
   29MOL   H17525431   6.459   3.365   0.691 -4.8701  0.4662  1.4509
   29MOL   H17625432   6.543   2.992   0.496 -0.0094 -1.2362  2.3930
   29MOL   H17725433   6.348   3.026   0.354 -0.5280  0.6531 -1.1237
   29MOL   H17825434   6.738   3.018   0.568 -1.2024 -0.3160  0.5184
   29MOL   H17925435   6.929   2.968   0.715  0.8823  0.6717  0.7933
   29MOL   H18025436   6.767   3.258   1.000 -0.8599 -1.4875  0.0406
   29MOL   H18125437   6.594   3.308   0.855 -2.3986 -1.7259  1.1333
   29MOL   C18225438   7.043   3.197   1.012 -0.7285  0.0656  0.0092
   29MOL   C18325439   7.117   3.299   0.944 -0.4479  0.4084 -0.7928
   29MOL   C18425440   7.180   3.405   1.004 -0.2804 -0.1617  0.2878
   29MOL   C18525441   7.168   3.406   1.143  0.1874  0.1043  0.2035
   29MOL   C18625442   7.099   3.302   1.217  0.2873 -0.5405  0.1631
   29MOL   C18725443   7.033   3.197   1.151 -0.6649  0.5234  0.3551
   29MOL   S18825444   7.223   3.539   1.249  0.2493  0.1830 -0.0851
   29MOL   O18925445   7.290   3.480   1.366  0.5703  0.4761 -0.6165
   29MOL   O19025446   7.105   3.621   1.280  0.2330  0.0552 -0.0938
   29MOL   C19125447   7.348   3.621   1.156  0.3250  0.8699  0.3749
   29MOL   C19225448   7.468   3.547   1.135  0.1757 -0.4769  0.4275
   29MOL   C19325449   7.568   3.607   1.060  0.0224 -0.0121 -0.9438
   29MOL   C19425450   7.554   3.739   1.010  0.5522  0.4146  0.2287
   29MOL   C19525451   7.433   3.800   1.021  0.5786 -0.9318  0.0737
   29MOL   C19625452   7.325   3.749   1.092  0.4596  0.3312  0.0798
   29MOL   O19725453   7.650   3.799   0.930  0.0414 -0.6648 -0.4234
   29MOL   C19825454   7.754   3.855   1.001 -0.4540  0.1996  0.3104
   29MOL   C19925455   7.875   3.778   1.012 -0.4439 -0.0233  0.2625
   29MOL   C20025456   7.990   3.836   1.066 -0.4989  0.0304 -0.3263
   29MOL   C20125457   7.987   3.966   1.123 -0.6817 -0.1071 -0.0514
   29MOL   C20225458   7.871   4.037   1.111 -0.1123 -0.5967 -0.0725
   29MOL   C20325459   7.754   3.985   1.056  0.3256  0.5328  0.1986
   29MOL   C20425460   8.108   4.033   1.176  0.0293  0.2588  0.0576
   29MOL   C20525461   8.094   4.117   1.291 -0.5880  0.0401  0.5753
   29MOL   C20625462   8.210   4.190   1.337 -0.7668 -0.6629  0.3391
   29MOL   C20725463   8.329   4.178   1.264 -0.6398  1.1283 -0.1442
   29MOL   C20825464   8.341   4.088   1.159  0.2321 -0.0436  0.6177
   29MOL   C20925465   8.238   4.011   1.114 -0.1495 -0.0321 -0.2642
   29MOL   O21025466   0.073   4.245   1.299 -0.0779  0.3764  0.5722
   29MOL   H21125467   7.123   3.305   0.836 -1.3795 -0.9300 -0.9334
   29MOL   H21225468   7.228   3.485   0.948 -0.5664  0.5417  1.0248
   29MOL   H21325469   7.101   3.326   1.322  0.4496  1.7412 -0.3456
   29MOL   H21425470   6.979   3.123   1.209 -0.5677 -0.2788 -0.5548
   29MOL   H21525471   7.485   3.447   1.172 -0.5182  0.4736  3.4125
   29MOL   H21625472   7.658   3.551   1.037  1.3142  0.0265  3.3809
   29MOL   H21725473   7.423   3.894   0.968 -0.1040 -1.0858 -0.0773
   29MOL   H21825474   7.239   3.813   1.104  1.0342  2.1799 -4.7229
   29MOL   H21925475   7.870   3.679   0.970  2.2185 -0.5078  0.9991
   29MOL   H22025476   8.081   3.782   1.085 -0.0222  0.1007 -2.3110
   29MOL   H22125477   7.876   4.142   1.137  1.7264 -0.1647 -2.0630
   29MOL   H22225478   7.665   4.044   1.042  0.2621  0.7583  1.4731
   29MOL   H22325479   7.998   4.130   1.339 -0.3031 -1.2341  1.5370
   29MOL   H22425480   8.204   4.254   1.423 -1.5812  1.9832 -1.6108
   29MOL   H22525481   0.067   4.085   1.104  0.3926  3.2869  0.6106
   29MOL   H22625482   8.255   3.942   1.033  0.9343  2.0404 -1.8368
   29MOL   C22725483   0.075   4.375   1.292 -0.3062  0.5700  0.3545
   29MOL   C22825484   0.074   4.427   1.165  0.9054 -0.1605 -0.5545
   29MOL   C22925485   0.080   4.564   1.153 -0.0674 -0.4169  0.4182
   29MOL   C23025486   0.080   4.656   1.266  0.2480  0.0636 -0.1915
   29MOL   C23125487   0.083   4.594   1.395 -0.1485  0.3963 -0.0390
   29MOL   C23225488   0.081   4.456   1.409  0.6336 -0.1184 -0.3614
   29MOL   S23325489   0.062   4.831   1.234 -0.0674 -0.2644 -0.3052
   29MOL   O23425490   8.291   4.845   1.180  0.0140  0.6447 -0.0450
   29MOL   O23525491   0.177   4.868   1.154 -0.4894 -0.6308  0.6375
   29MOL   C23625492   0.068   4.912   1.398 -0.7317 -0.2233  0.1160
   29MOL   C23725493   0.189   4.937   1.462  0.5036 -0.1110 -0.7646
   29MOL   C23825494   0.200   5.025   1.572 -0.2703  0.0063  0.1971
   29MOL   C23925495   0.083   5.089   1.612 -0.0128  0.2428 -0.4468
   29MOL   C24025496   8.321   5.054   1.558 -0.9017 -0.4190 -0.8434
   29MOL   C24125497   8.319   4.976   1.441 -0.1698 -0.1701 -0.5093
   29MOL   O24225498   0.090   5.186   1.708 -0.8369  1.0071  0.0015
   29MOL   C24325499   0.088   5.154   1.845  1.2219 -1.0855 -0.6908
   29MOL   C24425500   0.185   5.074   1.906  0.0752 -0.3438 -0.0388
   29MOL   C24525501   0.174   5.038   2.044  0.4048 -0.5061 -0.1628
   29MOL   C24625502   0.078   5.101   2.126 -1.1156  0.6056 -0.5402
   29MOL   C24725503   8.352   5.192   2.065 -0.3501  0.4629 -0.3614
   29MOL   C24825504   8.365   5.224   1.928 -0.2115  0.0213  1.6608
   29MOL   C24925505   0.069   5.053   2.262  0.2667 -0.0059  0.4066
   29MOL   C25025506   0.042   5.137   2.374  0.6520 -0.6453 -0.1610
   29MOL   C25125507   0.032   5.083   2.504 -0.1045 -0.1942 -0.1209
   29MOL   C25225508   0.086   4.951   2.532  0.4604 -0.1207  0.9196
   29MOL   C25325509   0.099   4.870   2.419 -0.1696  0.2896 -0.5811
   29MOL   C25425510   0.093   4.919   2.288 -0.3391  0.1590  1.0324
   29MOL   O25525511   0.093   4.896   2.658 -0.3014 -0.4164 -0.4327
   29MOL   H25625512   0.086   4.363   1.078  3.0753 -1.2328  0.4764
   29MOL   H25725513   0.078   4.606   1.053 -1.8603 -1.4845 -0.0296
   29MOL   H25825514   0.076   4.656   1.484 -1.3520  0.9460 -0.5093
   29MOL   H25925515   0.090   4.411   1.507 -0.4613 -1.2828 -0.7837
   29MOL   H26025516   0.279   4.887   1.429  0.3358 -1.2583  0.4452
   29MOL   H26125517   0.300   5.038   1.612 -0.3124 -0.3336  0.4133
   29MOL   H26225518   8.238   5.102   1.608 -0.5975 -0.5601 -0.1898
   29MOL   H26325519   8.226   4.963   1.387  0.7010 -2.2618 -1.5528
   29MOL   H26425520   0.264   5.033   1.845 -0.4061 -1.7164  0.2570
   29MOL   H26525521   0.245   4.964   2.080 -0.8043 -0.8262  1.6205
   29MOL   H26625522   8.264   5.225   2.118 -0.2844  1.0303 -0.6033
   29MOL   H26725523   8.299   5.294   1.878  0.5856 -1.1554 -1.1242
   29MOL   H26825524   0.022   5.239   2.344  2.7818 -0.5943 -1.5213
   29MOL   H26925525   0.020   5.150   2.588  1.5236  1.5111 -1.2128
   29MOL   H27025526   0.136   4.771   2.438 -2.6299 -0.2726  1.4592
   29MOL   H27125527   0.101   4.855   2.201 -1.3353  2.1562 -0.5737
   29MOL   C27225528   0.180   4.947   2.746 -1.0205 -0.6689 -0.2473
   29MOL   C27325529   0.127   4.971   2.874 -0.2208  0.6994 -0.6612
   29MOL   C27425530   0.211   5.016   2.976  0.6356  0.2168  0.7186
   29MOL   C27525531   0.345   5.049   2.947 -0.5604 -0.1705 -0.0852
   29MOL   C27625532   0.392   5.032   2.814 -0.2148  0.0616  0.5612
   29MOL   C27725533   0.309   4.985   2.718  0.3712 -0.2402 -0.0600
   29MOL   S27825534   0.460   5.115   3.074 -0.3487 -0.3102 -0.1126
   29MOL   O27925535   0.583   5.028   3.076  0.3566 -0.2610  0.0865
   29MOL   O28025536   0.388   5.151   3.193  0.5265  0.4395  0.2751
   29MOL   C28125537   0.501   5.269   2.999 -0.0437 -0.0269 -0.7708
   29MOL   C28225538   0.628   5.306   2.953 -0.0368 -0.0518 -0.6762
   29MOL   C28325539   0.644   5.430   2.885  0.3911 -0.1389  0.0405
   29MOL   C28425540   0.539   5.521   2.877  0.1195  0.3137  0.3142
   29MOL   C28525541   0.419   5.488   2.941  0.7776 -0.3242 -0.5159
   29MOL   C28625542   0.400   5.366   3.006  0.5661 -0.4784  0.6110
   29MOL   O28725543   0.557   5.636   2.803  0.5025 -0.5795  0.0836
   29MOL   C28825544   0.534   5.628   2.665 -0.7870  0.4260 -0.1165
   29MOL   C28925545   0.462   5.731   2.602  0.3462 -0.3251 -0.5893
   29MOL   C29025546   0.423   5.726   2.466  0.0533 -0.3587  0.0669
   29MOL   C29125547   0.457   5.614   2.384 -0.2182 -0.3106  0.5389
   29MOL   C29225548   0.535   5.516   2.453  0.0884  0.9080  0.0965
   29MOL   C29325549   0.574   5.516   2.586 -0.4235 -1.4744  0.3588
   29MOL   C29425550   0.426   5.602   2.243 -0.0345  0.3391  0.1593
   29MOL   C29525551   0.463   5.701   2.152 -0.6141 -0.2431 -0.2353
   29MOL   C29625552   0.432   5.695   2.013  0.0948  0.2735  0.1791
   29MOL   C29725553   0.358   5.584   1.967 -1.0942  0.8671  0.3026
   29MOL   C29825554   0.327   5.478   2.060  0.3184 -0.9885  0.2421
   29MOL   C29925555   0.368   5.482   2.195  0.1561  0.3130  0.1690
   29MOL   O30025556   0.326   5.577   1.837 -0.1636  0.4510 -0.1916
   29MOL   H30125557   0.027   4.936   2.893  1.4121 -2.5894  2.4531
   29MOL   H30225558   0.174   5.024   3.077  1.3517  1.6474  0.8761
   29MOL   H30325559   0.490   5.066   2.782 -0.5981 -0.5710 -1.3383
   29MOL   H30425560   0.346   4.984   2.617  0.7358 -0.1289  0.0733
   29MOL   H30525561   0.704   5.231   2.969 -0.8974 -0.8282 -0.2169
   29MOL   H30625562   0.735   5.463   2.838  1.6142  0.5695  2.8017
   29MOL   H30725563   0.340   5.561   2.932 -0.7897 -1.8206  0.7366
   29MOL   H30825564   0.300   5.354   3.045  0.3794  1.2700  0.6795
   29MOL   H30925565   0.419   5.810   2.661 -0.5397  0.3831 -2.1393
   29MOL   H31025566   0.355   5.800   2.428 -2.5717 -2.0060  1.4563
   29MOL   H31125567   0.571   5.428   2.402 -1.4101  0.6092 -0.4909
   29MOL   H31225568   0.626   5.434   2.632 -0.1451  0.0390  2.8621
   29MOL   H31325569   0.523   5.786   2.181  1.3294 -1.0042 -1.9122
   29MOL   H31425570   0.472   5.762   1.939  0.9125  0.2684  0.6064
   29MOL   H31525571   0.268   5.399   2.017  1.3296 -0.6604 -1.8293
   29MOL   H31625572   0.331   5.405   2.260 -0.1003  0.8694  0.6944
   29MOL   C31725573   0.396   5.498   1.745  0.1720 -0.0335  0.0652
   29MOL   C31825574   0.393   5.361   1.767  0.3176 -0.0785  0.8566
   29MOL   C31925575   0.473   5.278   1.681 -0.3046  0.0719  0.1637
   29MOL   C32025576   0.557   5.330   1.582  0.0540  0.1639  0.3135
   29MOL   C32125577   0.557   5.473   1.562 -0.7424 -0.2640  0.2617
   29MOL   C32225578   0.475   5.552   1.643  0.0614 -0.0739 -0.1104
   29MOL   S32325579   0.655   5.223   1.472  0.0960 -0.0468 -0.0698
   29MOL   O32425580   0.563   5.178   1.367 -0.0018  0.1443 -0.3045
   29MOL   O32525581   0.719   5.125   1.562  0.0396 -0.3688  0.4454
   29MOL   C32625582   0.777   5.329   1.395 -0.6897 -0.5682 -0.0314
   29MOL   C32725583   0.872   5.380   1.482 -0.0359  0.4958 -0.1013
   29MOL   C32825584   0.985   5.447   1.436  0.1156  0.3042  0.1313
   29MOL   C32925585   1.016   5.456   1.300 -0.1000  0.5678 -0.1075
   29MOL   C33025586   0.924   5.402   1.208  0.1783  0.4315 -0.4661
   29MOL   C33125587   0.805   5.339   1.263  0.6695  0.1664  0.7792
   29MOL   O33225588   1.124   5.524   1.265  0.2778 -0.7052 -0.2452
   29MOL   C33325589   1.239   5.464   1.242  0.2289  1.0142  0.0485
   29MOL   C33425590   1.322   5.431   1.350  0.1859  0.3573 -0.1349
   29MOL   C33525591   1.446   5.372   1.336 -0.0812  0.2942 -0.3787
   29MOL   C33625592   1.484   5.321   1.216 -0.6389 -0.0276 -0.5962
   29MOL   C33725593   1.403   5.355   1.101 -0.6036  0.3209  0.4022
   29MOL   C33825594   1.282   5.424   1.113  0.3021  0.2576 -0.3051
   29MOL   C33925595   1.602   5.229   1.200  0.1233 -0.3597 -0.0456
   29MOL   C34025596   1.627   5.135   1.302 -0.3507 -0.4584  0.0183
   29MOL   C34125597   1.737   5.046   1.294  0.1571 -0.3609  0.0466
   29MOL   C34225598   1.833   5.056   1.185  0.0643  0.2996  0.4216
   29MOL   C34325599   1.800   5.147   1.077 -0.1754  0.9389 -0.0020
   29MOL   C34425600   1.691   5.229   1.091  0.0347 -0.4045  0.1601
   29MOL   O34525601   1.945   4.975   1.162 -1.0075 -0.0868  0.0856
   29MOL   H34625602   0.320   5.309   1.828 -0.7777  0.5117  0.0646
   29MOL   H34725603   0.465   5.171   1.688 -0.0144 -0.0929 -1.7164
   29MOL   H34825604   0.612   5.517   1.481 -0.4450  1.3935  1.3299
   29MOL   H34925605   0.481   5.660   1.634  0.6517  0.2367  3.5004
   29MOL   H35025606   0.853   5.376   1.589  0.8029 -0.2310  0.0173
   29MOL   H35125607   1.057   5.497   1.499  3.1203 -2.5312 -0.8589
   29MOL   H35225608   0.945   5.409   1.102 -1.3222  0.9338 -0.7446
   29MOL   H35325609   0.740   5.282   1.197 -0.8515  3.0765 -0.3516
   29MOL   H35425610   1.290   5.462   1.448 -4.0128  0.4668 -1.4548
   29MOL   H35525611   1.509   5.365   1.424  1.6435  2.1985 -1.4092
   29MOL   H35625612   1.430   5.324   1.001 -1.0279 -1.6347  0.8677
   29MOL   H35725613   1.221   5.451   1.028  1.1246 -0.9817 -1.2940
   29MOL   H35825614   1.547   5.124   1.374 -0.8735  2.1802 -0.0793
   29MOL   H35925615   1.739   4.964   1.364  1.5132  0.3608  0.8849
   29MOL   H36025616   1.864   5.145   0.991 -0.2802  1.6595 -0.0928
   29MOL   H36125617   1.674   5.296   1.007 -1.3862  0.0568  0.8039
   29MOL   C36225618   1.979   4.893   1.267  0.3781  0.7874 -0.8227
   29MOL   C36325619   2.078   4.939   1.356 -0.4318  0.5741 -0.2943
   29MOL   C36425620   2.105   4.872   1.475 -0.4983 -0.3860 -0.1594
   29MOL   C36525621   2.039   4.751   1.504 -0.0413 -0.2467 -0.3084
   29MOL   C36625622   1.943   4.696   1.412 -0.6852  0.4971  0.1785
   29MOL   C36725623   1.913   4.773   1.295 -0.3143  0.3710  0.1016
   29MOL   S36825624   2.071   4.677   1.663  0.2468  0.1475 -0.4972
   29MOL   O36925625   2.095   4.784   1.762  0.0589 -0.2728  0.2225
   29MOL   O37025626   2.171   4.574   1.644 -0.6543 -0.8364 -0.6295
   29MOL   C37125627   1.913   4.592   1.702  0.7316 -0.4884  0.2552
   29MOL   C37225628   1.800   4.664   1.697 -0.5813  0.4272 -0.8191
   29MOL   C37325629   1.673   4.600   1.696  0.0244 -0.1994  0.1020
   29MOL   C37425630   1.667   4.461   1.710  0.5206 -0.1454  0.0936
   29MOL   C37525631   1.784   4.391   1.721  0.9124 -0.4695  0.4793
   29MOL   C37625632   1.907   4.454   1.711  0.0834  0.3055  0.4993
   29MOL   O37725633   1.544   4.391   1.712  0.5591  0.1971  0.5455
   29MOL   C37825634   1.448   4.417   1.805 -0.8200 -0.3930  0.8326
   29MOL   C37925635   1.455   4.340   1.925  0.0662  0.2890 -0.4345
   29MOL   C38025636   1.373   4.385   2.033 -0.8908  0.3231  0.6141
   29MOL   C38125637   1.268   4.479   2.013  0.4062 -0.1800 -0.7990
   29MOL   C38225638   1.251   4.538   1.888  0.1584 -0.0074  0.4388
   29MOL   C38325639   1.342   4.507   1.788  0.5935 -0.0033  0.5565
   29MOL   C38425640   1.183   4.513   2.123 -0.7430 -0.6000  0.7746
   29MOL   C38525641   1.037   4.511   2.124 -0.4279 -0.3536  0.8266
   29MOL   C38625642   0.964   4.549   2.241  1.2024  0.8594  0.1389
   29MOL   C38725643   1.026   4.606   2.357 -0.0188 -0.4301  0.3975
   29MOL   C38825644   1.163   4.633   2.345 -0.4462 -0.8558  0.3523
   29MOL   C38925645   1.246   4.575   2.238  0.1988  0.1900  1.0122
   29MOL   O39025646   0.940   4.664   2.451  0.2579 -0.0603  0.1948
   29MOL   H39125647   2.130   5.033   1.340 -0.5741  0.3495 -2.1308
   29MOL   H39225648   2.194   4.901   1.528 -0.5534 -1.9088  0.7967
   29MOL   H39325649   1.880   4.618   1.451  0.3208  0.5468  1.9856
   29MOL   H39425650   1.828   4.739   1.238  0.8568 -1.6590 -0.5163
   29MOL   H39525651   1.808   4.771   1.694  0.3638  0.4201  0.8146
   29MOL   H39625652   1.583   4.657   1.679  1.3581  2.2724  1.0156
   29MOL   H39725653   1.787   4.283   1.722  3.1832 -0.4175  0.2936
   29MOL   H39825654   2.004   4.409   1.697 -0.2796  0.0112 -1.1207
   29MOL   H39925655   1.547   4.286   1.941  0.7277  1.0522 -1.5527
   29MOL   H40025656   1.386   4.343   2.132 -1.7601 -1.2443  0.0833
   29MOL   H40125657   1.183   4.622   1.881  2.6280  1.9117 -1.2027
   29MOL   H40225658   1.337   4.560   1.695  2.1899  0.9617  0.9984
   29MOL   H40325659   0.979   4.477   2.040  0.4060 -3.0406  1.3132
   29MOL   H40425660   0.858   4.557   2.226  1.1883 -1.5405 -1.2091
   29MOL   H40525661   1.199   4.695   2.425  1.2959 -3.1778  1.4150
   29MOL   H40625662   1.352   4.593   2.224 -0.2646  2.7519  0.4558
   29MOL   C40725663   0.958   4.646   2.582  0.4532  0.8041 -0.1490
   29MOL   C40825664   0.904   4.543   2.656  0.8445  0.0459  0.8587
   29MOL   C40925665   0.942   4.516   2.788  0.0729  0.2529 -0.3455
   29MOL   C41025666   1.024   4.612   2.855 -0.0739  0.0835  0.3344
   29MOL   C41125667   1.071   4.726   2.785  0.1546 -0.0303  0.1124
   29MOL   C41225668   1.039   4.739   2.648 -0.5340  0.8465  0.4050
   29MOL   S41325669   1.056   4.608   3.032  0.4963  0.3275 -0.0260
   29MOL   O41425670   0.997   4.734   3.088  0.1442  0.2161 -0.2206
   29MOL   O41525671   1.201   4.597   3.052  0.0281 -0.3813 -0.1250
   29MOL   C41625672   0.970   4.473   3.102 -0.1301  0.0215 -0.2139
   29MOL   C41725673   1.019   4.344   3.080 -1.3219 -0.0160 -0.2479
   29MOL   C41825674   0.955   4.233   3.141 -0.1299  0.1444 -0.5497
   29MOL   C41925675   0.853   4.253   3.233  0.4742 -0.4231  0.3102
   29MOL   C42025676   0.807   4.386   3.256  0.7216  0.7568  0.2368
   29MOL   C42125677   0.863   4.500   3.191 -0.5304 -0.1465 -0.4154
   29MOL   O42225678   0.794   4.147   3.302  0.1107 -0.0043  0.0647
   29MOL   C42325679   0.721   4.058   3.225 -0.9998  0.3827  0.6198
   29MOL   C42425680   0.579   4.068   3.218  0.7563 -0.3846 -0.5678
   29MOL   C42525681   0.503   3.967   3.151  0.3529  0.5514 -0.0787
   29MOL   C42625682   0.569   3.864   3.077 -0.2991  0.4094  0.0042
   29MOL   C42725683   0.703   3.853   3.084  0.1021  0.6771  0.1953
   29MOL   C42825684   0.780   3.942   3.162  0.3261 -0.2275  0.3988
   29MOL   C42925685   0.490   3.776   2.995  0.2663 -0.5245 -0.4294
   29MOL   C43025686   0.374   3.816   2.917 -0.0850  0.4712  0.1678
   29MOL   C43125687   0.299   3.718   2.847  0.4317 -0.0799  0.2315
   29MOL   C43225688   0.336   3.587   2.837  0.0142  0.7174  1.0418
   29MOL   C43325689   0.450   3.545   2.903 -0.0693  0.3338  0.2027
   29MOL   C43425690   0.522   3.632   2.989  0.4519  0.1363 -0.6461
   29MOL   O43525691   0.279   3.503   2.745  0.0059 -1.0614  0.5778
   29MOL   H43625692   0.829   4.475   2.618  0.2821  1.1346  0.0023
   29MOL   H43725693   0.893   4.427   2.824 -0.3336  0.8147  0.5127
   29MOL   H43825694   1.130   4.803   2.832  0.2719  0.0072 -0.0950
   29MOL   H43925695   1.083   4.817   2.588 -2.8218  0.7739 -1.4323
   29MOL   H44025696   1.101   4.330   3.011 -0.5172  0.4270  0.6022
   29MOL   H44125697   0.997   4.135   3.128 -1.6605 -0.6904  0.5892
   29MOL   H44225698   0.740   4.406   3.338 -0.7090 -0.2186 -0.6769
   29MOL   H44325699   0.833   4.602   3.212  1.9208  0.7485 -1.0197
   29MOL   H44425700   0.533   4.151   3.269  0.8189  0.7638 -2.3495
   29MOL   H44525701   0.398   3.983   3.133 -0.9142 -3.8543  2.5855
   29MOL   H44625702   0.754   3.776   3.028  0.9173  1.4630 -0.1541
   29MOL   H44725703   0.888   3.934   3.160  0.4387  1.0319  0.6630
   29MOL   H44825704   0.345   3.920   2.914  0.4588  0.6252  0.1613
   29MOL   H44925705   0.217   3.754   2.786  1.3778  1.5276 -0.1254
   29MOL   H45025706   0.486   3.444   2.894  0.3532  0.3461  1.5450
   29MOL   H45125707   0.605   3.583   3.039 -2.1403 -2.9342  0.7744
   29MOL   C45225708   0.332   3.504   2.621 -0.1598 -0.3472 -0.3715
   29MOL   C45325709   0.450   3.570   2.577 -0.3567  0.3705 -0.1812
   29MOL   C45425710   0.482   3.565   2.438  0.0362  0.1914 -0.3887
   29MOL   C45525711   0.422   3.481   2.347  0.6988  0.0573 -0.0589
   29MOL   C45625712   0.307   3.414   2.389 -0.2373 -0.9508  0.5461
   29MOL   C45725713   0.262   3.430   2.521  0.7369 -0.4519  0.1075
   29MOL   S45825714   0.464   3.475   2.168  0.0437  0.7440  0.2935
   29MOL   O45925715   0.605   3.514   2.148 -0.1090 -0.4313  0.0463
   29MOL   O46025716   0.355   3.535   2.093 -0.1812  0.1389  0.2090
   29MOL   C46125717   0.457   3.294   2.130 -0.2535  0.6642  0.0295
   29MOL   C46225718   0.574   3.215   2.148  0.3091 -0.4153  0.3507
   29MOL   C46325719   0.571   3.074   2.129 -0.0727  0.3372  0.5466
   29MOL   C46425720   0.449   3.020   2.077  0.2630 -0.5525 -0.3673
   29MOL   C46525721   0.335   3.099   2.050  0.0049 -0.1046 -0.1813
   29MOL   C46625722   0.338   3.238   2.081 -0.1768 -0.0180 -0.4066
   29MOL   O46725723   0.449   2.889   2.048  0.1483 -0.0332  0.2343
   29MOL   C46825724   0.346   2.810   2.091 -0.0874 -0.0866  0.5210
   29MOL   C46925725   0.253   2.752   2.000  0.0585  0.1746  0.0023
   29MOL   C47025726   0.152   2.672   2.056 -0.1868  0.0027  0.1205
   29MOL   C47125727   0.130   2.673   2.196  0.5702 -1.1506  0.2691
   29MOL   C47225728   0.221   2.738   2.283  0.1292  0.0862 -0.4258
   29MOL   C47325729   0.331   2.804   2.229 -0.3507  0.1049  0.0754
   29MOL   C47425730   0.018   2.603   2.259 -0.9982  0.5716 -0.2408
   29MOL   C47525731   8.261   2.623   2.198 -0.5454  0.2205  0.6510
   29MOL   C47625732   8.148   2.564   2.261  0.2356  0.3336 -0.1767
   29MOL   C47725733   8.159   2.480   2.374 -0.0196 -0.4683 -0.7230
   29MOL   C47825734   8.285   2.470   2.434 -0.2532  0.9145 -0.1133
   29MOL   C47925735   0.030   2.534   2.382  0.1617 -0.1743  0.2793
   29MOL   O48025736   8.044   2.420   2.421  0.1086  0.3504 -0.2577
   29MOL   H48125737   0.520   3.620   2.644 -0.0517 -0.9232  0.4760
   29MOL   H48225738   0.572   3.615   2.404 -0.1556  0.8500  0.0766
   29MOL   H48325739   0.249   3.357   2.318  0.9252 -0.3540 -0.8987
   29MOL   H48425740   0.171   3.378   2.547 -0.9595  1.4129 -1.9223
   29MOL   H48525741   0.668   3.257   2.181  0.1625  1.2462 -1.2386
   29MOL   H48625742   0.662   3.016   2.142  1.6740  3.2125  1.5640
   29MOL   H48725743   0.248   3.057   2.002  0.4413 -2.5132  1.0438
   29MOL   H48825744   0.259   3.310   2.068  0.0801  0.5485  1.0265
   29MOL   H48925745   0.252   2.761   1.893 -1.0129 -1.4179 -0.1422
   29MOL   H49025746   0.084   2.627   1.986  0.2408 -1.0187  0.3619
   29MOL   H49125747   0.223   2.728   2.390  2.6247  1.1763 -0.3342
   29MOL   H49225748   0.403   2.854   2.292  0.7028 -0.6000 -0.5479
   29MOL   H49325749   8.247   2.679   2.107  0.9655  0.1131  0.3549
   29MOL   H49425750   8.048   2.581   2.223  1.3272  2.9139 -2.0219
   29MOL   H49525751   8.294   2.414   2.525  0.7571  1.8708  0.3849
   29MOL   H49625752   0.123   2.503   2.429  1.0035 -1.1673 -1.9509
   29MOL   C49725753   8.003   2.428   2.548 -0.1929  0.0369  0.0041
   29MOL   C49825754   7.908   2.334   2.596  0.4740  0.6599  0.6855
   29MOL   C49925755   7.864   2.350   2.730 -0.4767  0.2437 -0.2707
   29MOL   C50025756   7.906   2.458   2.808  0.1835 -0.4911  0.3402
   29MOL   C50125757   8.000   2.554   2.761 -0.2094  0.0074  0.0693
   29MOL   C50225758   8.046   2.533   2.632 -0.0017 -1.0115  0.1069
   29MOL   S50325759   7.840   2.480   2.974 -0.0670  0.0113  0.6209
   29MOL   O50425760   7.714   2.405   2.992 -0.0260  0.2459 -0.1431
   29MOL   O50525761   7.839   2.626   2.990 -0.2346 -0.6452 -0.1623
   29MOL   C50625762   7.957   2.404   3.076  0.8299  0.0495 -0.4499
   29MOL   C50725763   7.958   2.438   3.217  0.2787  0.2527 -0.0016
   29MOL   C50825764   8.031   2.359   3.310 -0.5567  0.4557 -0.4490
   29MOL   C50925765   8.109   2.249   3.264 -0.4287 -0.0458 -0.0179
   29MOL   C51025766   8.116   2.217   3.125  1.0183  0.5544 -0.3561
   29MOL   C51125767   8.041   2.297   3.030 -0.5850  0.7402 -0.0003
   29MOL   O51225768   8.191   2.182   3.347 -0.1325 -0.2954 -0.2958
   29MOL   C51325769   8.317   2.228   3.370  0.5214  0.1153  0.1565
   29MOL   C51425770   8.343   2.287   3.496  0.2728 -0.6821  0.2419
   29MOL   C51525771   0.108   2.343   3.509  0.6770  0.0712  0.2232
   29MOL   C51625772   0.206   2.326   3.411  0.2064  0.0111  0.0089
   29MOL   C51725773   0.171   2.267   3.286  0.2763  0.3501 -0.0792
   29MOL   C51825774   0.043   2.229   3.263 -0.2839  0.1325 -0.0878
   29MOL   C51925775   0.343   2.379   3.433  0.6160  0.3193 -0.3467
   29MOL   C52025776   0.457   2.315   3.383 -0.4064  1.1293  0.2013
   29MOL   C52125777   0.592   2.358   3.397  0.2863  0.4006 -0.0039
   29MOL   C52225778   0.620   2.470   3.479 -0.8914  0.7633  0.4489
   29MOL   C52325779   0.508   2.537   3.535 -0.3286 -0.4254 -0.2170
   29MOL   C52425780   0.375   2.491   3.518  0.5198  0.1608 -0.7158
   29MOL   O52525781   0.748   2.520   3.482  0.1267 -0.0188 -0.5378
   29MOL   H52625782   7.886   2.251   2.530  4.3031 -0.5997  0.8987
   29MOL   H52725783   7.813   2.270   2.782 -0.9277  0.2112 -0.7567
   29MOL   H52825784   8.025   2.641   2.819  2.5754  0.0986 -1.1789
   29MOL   H52925785   8.120   2.603   2.596 -2.0058  1.3827  0.5250
   29MOL   H53025786   7.897   2.521   3.253  0.4017  1.3535 -2.2211
   29MOL   H53125787   8.039   2.383   3.415  1.8611 -1.9916 -0.0305
   29MOL   H53225788   8.184   2.138   3.095 -0.3348 -0.1927 -1.5192
   29MOL   H53325789   8.048   2.277   2.924 -0.8637  2.9295 -0.4447
   29MOL   H53425790   8.263   2.286   3.569 -1.2672 -0.0830 -1.4068
   29MOL   H53525791   0.141   2.388   3.601  0.6312 -0.8716  0.7070
   29MOL   H53625792   0.243   2.258   3.206 -0.8545 -0.1460 -1.0579
   29MOL   H53725793   0.013   2.178   3.173 -1.7051  3.3053 -1.5068
   29MOL   H53825794   0.437   2.224   3.327  0.3290  0.5314  0.8952
   29MOL   H53925795   0.674   2.312   3.343  1.0370  1.3392  0.3051
   29MOL   H54025796   0.526   2.628   3.591 -3.7549 -0.1455  0.5051
   29MOL   H54125797   0.297   2.548   3.566  0.9644 -0.2346  0.4754
   29MOL   C54225798   0.794   2.594   3.371 -0.2008 -0.5437 -0.6614
   29MOL   C54325799   0.718   2.628   3.259 -1.1525  0.6014  0.2117
   29MOL   C54425800   0.770   2.702   3.154  0.0175 -0.0309 -0.2427
   29MOL   C54525801   0.903   2.741   3.150  0.9663  0.2437  0.0801
   29MOL   C54625802   0.993   2.702   3.256 -0.0824 -0.3908 -0.2049
   29MOL   C54725803   0.932   2.634   3.366  0.2090 -0.7915 -0.0781
   29MOL   S54825804   0.978   2.829   3.010 -0.2122  0.0021 -0.0087
   29MOL   O54925805   0.899   2.794   2.889 -0.3083  0.4571  0.1667
   29MOL   O55025806   1.126   2.804   3.020 -0.7419 -0.3444  0.3711
   29MOL   C55125807   0.948   3.007   3.040  0.5393  0.2562 -0.1753
   29MOL   C55225808   0.885   3.059   3.156 -0.5157 -0.1037 -0.2460
   29MOL   C55325809   0.855   3.193   3.165  0.0694  0.1612 -0.0755
   29MOL   C55425810   0.905   3.292   3.078 -0.1398  0.7082  0.7302
   29MOL   C55525811   0.964   3.241   2.962  0.1760  0.0380 -0.0646
   29MOL   C55625812   0.994   3.102   2.944 -0.4646 -0.1079  0.2355
   29MOL   O55725813   0.866   3.420   3.082  0.7248 -0.0224 -0.5885
   29MOL   C55825814   0.943   3.503   3.156 -0.0696 -0.6462  0.2318
   29MOL   C55925815   0.914   3.519   3.294 -0.2521  0.6188  0.3237
   29MOL   C56025816   0.975   3.610   3.378 -0.0244 -0.1090  0.2506
   29MOL   C56125817   1.059   3.707   3.308  0.9818 -0.1999  0.1790
   29MOL   C56225818   1.101   3.683   3.174 -0.0777 -0.1075 -0.4082
   29MOL   C56325819   1.043   3.585   3.099 -0.0536  0.0832 -0.3334
   29MOL   C56425820   1.112   3.826   3.380  0.0699 -0.5580  1.0068
   29MOL   C56525821   1.021   3.924   3.430  0.1128  0.3422  0.1899
   29MOL   C56625822   1.058   4.048   3.486 -0.0559 -0.1004 -0.1727
   29MOL   C56725823   1.196   4.085   3.494  1.1726 -0.0493 -0.5233
   29MOL   C56825824   1.290   3.985   3.469  0.2517  0.6139  0.7435
   29MOL   C56925825   1.251   3.862   3.403  0.7115 -0.2539 -0.0868
   29MOL   O57025826   1.226   4.215   3.533 -0.4974 -0.4257  0.0124
   29MOL   H57125827   0.617   2.592   3.244 -1.2823  1.1482 -0.2158
   29MOL   H57225828   0.702   2.729   3.075 -0.5202 -1.9086 -0.4455
   29MOL   H57325829   1.099   2.722   3.262  0.2794 -2.3454  0.2628
   29MOL   H57425830   0.994   2.607   3.450 -1.3898 -2.6699  0.5325
   29MOL   H57525831   0.862   2.985   3.232  0.1241  0.1737  0.2168
   29MOL   H57625832   0.800   3.229   3.250 -1.2256 -1.6321 -0.1339
   29MOL   H57725833   0.975   3.313   2.882  0.6108 -2.1422 -2.0165
   29MOL   H57825834   1.039   3.060   2.855  0.3713 -1.6788  1.3684
   29MOL   H57925835   0.843   3.442   3.322  0.7691 -0.0783  1.0490
   29MOL   H58025836   0.943   3.611   3.481 -0.8772 -0.1568 -0.0162
   29MOL   H58125837   1.182   3.734   3.124  0.4794 -3.0784 -2.6775
   29MOL   H58225838   1.074   3.572   2.996 -0.4950  1.1560 -0.6028
   29MOL   H58325839   0.915   3.907   3.420  0.0757  0.1663  0.8589
   29MOL   H58425840   0.979   4.117   3.511 -0.5280 -1.0761  1.0520
   29MOL   H58525841   1.393   4.011   3.485  1.2529 -2.1692 -0.7730
   29MOL   H58625842   1.318   3.782   3.376  0.6099 -0.2626 -0.3163
   29MOL   C58725843   1.273   4.214   3.663 -0.2421  0.4125 -0.2548
   29MOL   C58825844   1.408   4.222   3.690 -0.8314  0.0351  0.0100
   29MOL   C58925845   1.453   4.213   3.823 -0.8248  0.0382  0.1564
   29MOL   C59025846   1.359   4.208   3.928  0.3445  0.1772  0.4230
   29MOL   C59125847   1.223   4.202   3.902  0.8049  0.0564  0.6227
   29MOL   C59225848   1.176   4.202   3.770 -0.0981  0.6353  0.4286
   29MOL   S59325849   1.421   4.230   4.099 -0.1316 -0.0787  0.4920
   29MOL   O59425850   1.431   4.376   4.103  0.0914 -0.4810 -0.7184
   29MOL   O59525851   1.537   4.132   4.108  0.5943  0.1225 -0.1099
   29MOL   C59625852   1.307   4.170   4.222  0.5005 -0.4281 -0.2471
   29MOL   C59725853   1.269   4.254   4.333  0.1453  0.1740  0.4506
   29MOL   C59825854   1.185   4.203   4.435  0.6417 -0.2551  0.1999
   29MOL   C59925855   1.133   4.071   4.418 -0.8506  0.1912 -0.5117
   29MOL   C60025856   1.175   3.986   4.312 -0.5100  0.5142 -0.1075
   29MOL   C60125857   1.257   4.035   4.210  0.8469  0.8563 -0.8093
   29MOL   O60225858   1.052   4.026   4.517  0.3559 -0.0640 -0.1390
   29MOL   C60325859   0.922   3.979   4.493 -0.5670 -0.2054  0.4721
   29MOL   C60425860   0.825   4.069   4.443 -0.3625  0.0496 -0.0345
   29MOL   C60525861   0.692   4.019   4.445  0.1971 -0.1047 -0.0361
   29MOL   C60625862   0.662   3.888   4.483  0.3232 -0.3130  1.0885
   29MOL   C60725863   0.763   3.801   4.527  0.3465 -0.3006  0.1356
   29MOL   C60825864   0.893   3.851   4.536 -0.0314  0.2232 -0.4508
   29MOL   C60925865   0.521   3.840   4.479 -0.2772 -0.0792  0.6102
   29MOL   C61025866   0.441   3.846   4.362 -0.4614 -0.5417 -0.0981
   29MOL   C61125867   0.303   3.802   4.361 -0.4135  0.4049 -0.1042
   29MOL   C61225868   0.240   3.757   4.477 -0.4000 -0.1606  0.0460
   29MOL   C61325869   0.322   3.751   4.593 -0.3747  0.3288  0.1444
   29MOL   C61425870   0.458   3.782   4.591 -0.5139 -1.2728 -0.5003
   29MOL   O61525871   0.107   3.717   4.498 -0.1240  0.3392 -0.4377
   29MOL   H61625872   1.473   4.244   3.607 -1.2089  0.3631 -0.1981
   29MOL   H61725873   1.559   4.222   3.846 -0.9720  0.1849  0.7945
   29MOL   H61825874   1.161   4.200   3.991  1.1537  0.1788  0.8678
   29MOL   H61925875   1.073   4.198   3.739 -0.1333 -0.0899  0.6202
   29MOL   H62025876   1.294   4.358   4.351 -2.6887  0.4761  2.9622
   29MOL   H62125877   1.162   4.276   4.511  1.1450  0.0432  0.0654
   29MOL   H62225878   1.134   3.886   4.304  0.4486  0.1622 -0.7911
   29MOL   H62325879   1.283   3.963   4.134  1.8061  1.5114 -1.1064
   29MOL   H62425880   0.843   4.172   4.417  1.8800  0.5441  3.1417
   29MOL   H62525881   0.612   4.080   4.406 -0.4843 -0.9609  0.0017
   29MOL   H62625882   0.743   3.702   4.566  0.4289 -0.5892 -0.5339
   29MOL   H62725883   0.970   3.792   4.583  0.5435  0.8104 -0.6447
   29MOL   H62825884   0.488   3.878   4.271 -0.4843 -1.9520 -0.6239
   29MOL   H62925885   0.246   3.799   4.270 -0.2556 -2.1820 -0.1540
   29MOL   H63025886   0.275   3.728   4.687 -2.2469  1.5787 -0.4371
   29MOL   H63125887   0.529   3.767   4.671 -1.0874  0.8218  0.4226
   29MOL   C63225888   0.011   3.805   4.531  0.1185 -0.3456  0.1574
   29MOL   C63325889   0.027   3.943   4.506 -0.2822 -0.0779  0.3625
   29MOL   C63425890   8.303   4.036   4.560  0.0978 -0.1280 -0.5539
   29MOL   C63525891   8.190   3.991   4.632 -0.0885 -0.0602 -0.5359
   29MOL   C63625892   8.166   3.852   4.653  0.8586 -0.4488 -0.1055
   29MOL   C63725893   8.269   3.762   4.611 -0.0287  0.3044  0.0299
   29MOL   S63825894   8.073   4.111   4.684 -0.1981  0.0039 -0.1151
   29MOL   O63925895   8.120   4.168   4.810 -0.1648 -0.6059  0.4433
   29MOL   O64025896   7.937   4.056   4.674  0.1841  0.0241 -0.0918
   29MOL   C64125897   8.061   4.242   4.563  0.1847  0.2912  0.8660
   29MOL   C64225898   8.062   4.211   4.427  0.0293  0.0114 -0.1344
   29MOL   C64325899   8.070   4.317   4.332 -0.2361  0.4460  0.2188
   29MOL   C64425900   8.062   4.451   4.372  0.2364  0.4472  0.2077
   29MOL   C64525901   8.075   4.486   4.505  0.6925  0.8081 -0.3035
   29MOL   C64625902   8.068   4.380   4.602  1.0295  0.0824  0.4781
   29MOL   O64725903   8.064   4.548   4.272  0.0086  0.7077  0.2397
   29MOL   C64825904   7.957   4.571   4.193  0.6079 -0.3229 -0.2530
   29MOL   C64925905   7.825   4.523   4.224 -0.9786 -0.9078 -0.6556
   29MOL   C65025906   7.718   4.543   4.144  0.5489 -0.3269 -0.2206
   29MOL   C65125907   7.737   4.613   4.025  0.2028  0.3287  0.0236
   29MOL   C65225908   7.868   4.648   3.989  0.2501 -0.2246  0.0435
   29MOL   C65325909   7.981   4.625   4.067  0.3117 -0.0662 -0.0542
   29MOL   C65425910   7.621   4.658   3.945 -0.6080  0.9444  0.1460
   29MOL   C65525911   7.581   4.595   3.829  0.7773  1.0220  1.0656
   29MOL   C65625912   7.480   4.644   3.740 -0.4035  0.5008 -0.6480
   29MOL   C65725913   7.408   4.755   3.789  0.5338 -0.0710  0.9459
   29MOL   C65825914   7.443   4.821   3.908 -0.0877 -0.4236  0.1514
   29MOL   C65925915   7.553   4.777   3.988  0.5027 -0.0665  0.2635
   29MOL   O66025916   7.306   4.806   3.717  0.2119 -0.7343  0.5177
   29MOL   H66125917   0.112   3.979   4.451 -0.6249  1.1042  0.6065
   29MOL   H66225918   8.314   4.140   4.536 -1.6631  0.4113  0.8596
   29MOL   H66325919   8.074   3.812   4.692  0.9060  1.1340  1.6958
   29MOL   H66425920   8.250   3.657   4.627 -0.6400  0.2859 -0.7749
   29MOL   H66525921   8.059   4.110   4.389 -3.2674  0.5845 -1.5960
   29MOL   H66625922   8.062   4.298   4.226  1.0771 -0.1193  0.2051
   29MOL   H66725923   8.077   4.591   4.529  0.1184  0.2782  2.1260
   29MOL   H66825924   8.050   4.410   4.704 -0.7917  1.8226 -0.3316
   29MOL   H66925925   7.810   4.471   4.317  0.8315  2.3122  1.5134
   29MOL   H67025926   7.622   4.509   4.179  0.8280 -1.8148 -0.9013
   29MOL   H67125927   7.885   4.697   3.894 -2.7291  2.8828  1.0362
   29MOL   H67225928   8.080   4.656   4.039  1.3381 -1.2745  2.0571
   29MOL   H67325929   7.631   4.503   3.802  0.0906  0.3474  2.0793
   29MOL   H67425930   7.457   4.590   3.650  1.6093 -0.7435 -0.4257
   29MOL   H67525931   7.402   4.918   3.929  1.2272  0.3363 -0.7500
   29MOL   H67625932   7.577   4.826   4.081  0.6979  0.9345 -0.2985
   29MOL   C67725933   7.307   4.798   3.577 -0.1585  0.1022  0.5307
   29MOL   C67825934   7.197   4.773   3.509  0.4503  0.3275 -0.4550
   29MOL   C67925935   7.202   4.765   3.371 -0.5216 -0.0792  0.6846
   29MOL   C68025936   7.323   4.798   3.302 -0.2996  0.3891 -0.2522
   29MOL   C68125937   7.442   4.828   3.369  0.1235  0.2078 -0.4294
   29MOL   C68225938   7.429   4.835   3.508  0.4832  0.1305  0.3837
   29MOL   S68325939   7.314   4.792   3.118 -0.2216 -0.3100 -0.1702
   29MOL   O68425940   7.213   4.886   3.074 -0.3321 -0.3215  0.7616
   29MOL   O68525941   7.316   4.656   3.076 -0.3875  0.0259  0.3928
   29MOL   C68625942   7.470   4.864   3.061 -1.0803  0.7351 -0.1870
   29MOL   C68725943   7.496   5.002   3.074 -0.5100  0.1306 -0.1169
   29MOL   C68825944   7.624   5.062   3.034  0.8172  0.1059 -0.1627
   29MOL   C68925945   7.709   4.978   2.958 -0.2727 -0.5662 -0.3918
   29MOL   C69025946   7.682   4.836   2.942  0.2175  0.1231 -0.1327
   29MOL   C69125947   7.566   4.782   2.998  0.6134  0.5308 -0.5392
   29MOL   O69225948   7.824   5.031   2.897 -0.1940  0.1899  0.0191
   29MOL   C69325949   7.939   4.991   2.952  0.4351  0.5765  0.3676
   29MOL   C69425950   8.013   4.908   2.876 -0.5390 -0.2778  0.6499
   29MOL   C69525951   8.122   4.836   2.932  0.5997 -0.1862 -0.1221
   29MOL   C69625952   8.146   4.846   3.072 -0.5415  0.6594  0.4950
   29MOL   C69725953   8.077   4.947   3.143 -0.1072  0.3096  0.6860
   29MOL   C69825954   7.969   5.015   3.088  0.7108  0.1407 -0.2138
   29MOL   C69925955   8.249   4.759   3.134 -0.1133 -0.1414 -0.2248
   29MOL   C70025956   8.337   4.801   3.231 -0.5429  0.1138  0.5685
   29MOL   C70125957   0.068   4.711   3.282  0.9268  0.2260  0.0821
   29MOL   C70225958   0.078   4.577   3.250  0.0063  0.9631  0.3347
   29MOL   C70325959   8.349   4.528   3.150 -0.1934 -0.2926 -0.4152
   29MOL   C70425960   8.248   4.618   3.102  0.5404 -0.1512  0.3029
   29MOL   O70525961   0.180   4.501   3.307  0.0386  0.7428 -0.2707
   29MOL   H70625962   7.103   4.777   3.562  0.3313 -0.2389 -0.6148
   29MOL   H70725963   7.111   4.741   3.317 -0.5070  1.7065 -0.1682
   29MOL   H70825964   7.527   4.862   3.311 -1.6357  1.2903 -2.4853
   29MOL   H70925965   7.517   4.864   3.564  1.8807  0.6800 -2.0116
   29MOL   H71025966   7.427   5.070   3.121  0.2040  0.8307 -0.0645
   29MOL   H71125967   7.649   5.165   3.055  1.9058 -0.3401  0.8280
   29MOL   H71225968   7.750   4.770   2.891 -0.7247  0.5019 -1.8923
   29MOL   H71325969   7.549   4.676   2.987  2.7669  0.2208 -1.1506
   29MOL   H71425970   7.995   4.901   2.769 -0.8914 -1.0825  0.7547
   29MOL   H71525971   8.183   4.775   2.866  1.4662  1.1180 -0.5499
   29MOL   H71625972   8.102   4.955   3.248  0.3369 -0.3340  0.6346
   29MOL   H71725973   7.915   5.090   3.145  0.7302 -0.0891  0.1097
   29MOL   H71825974   8.328   4.900   3.271  0.4631  1.5569 -2.5698
   29MOL   H71925975   0.128   4.753   3.362  1.4612 -1.5756  0.6454
   29MOL   H72025976   8.349   4.425   3.117 -1.6679  0.2056 -2.0007
   29MOL   H72125977   8.167   4.588   3.038  1.0502  1.5120 -1.1641
   29MOL   C72225978   0.146   4.440   3.426 -0.6876 -0.4360  0.6966
   29MOL   C72325979   0.066   4.326   3.433  0.1280  0.3661  0.2282
   29MOL   C72425980   0.033   4.269   3.560 -0.1369  0.4899  0.1976
   29MOL   C72525981   0.086   4.327   3.677  0.3262  0.4879 -0.4435
   29MOL   C72625982   0.160   4.448   3.669 -0.5792  0.1641 -0.5851
   29MOL   C72725983   0.201   4.497   3.543 -0.3897  0.2592  0.4189
   29MOL   S72825984   0.048   4.268   3.842 -0.2642  0.5081 -0.1198
   29MOL   O72925985   8.272   4.287   3.876  0.3074  0.4935  0.1961
   29MOL   O73025986   0.146   4.328   3.936  0.4180  0.1023  0.1368
   29MOL   C73125987   0.083   4.097   3.840 -0.7872 -0.4934 -0.2714
   29MOL   C73225988   0.193   4.058   3.771  0.1893 -0.8671  0.1778
   29MOL   C73325989   0.229   3.923   3.761 -0.1945 -0.8262 -0.2030
   29MOL   C73425990   0.152   3.828   3.831  0.6416  0.0894 -0.0599
   29MOL   C73525991   0.052   3.870   3.916 -0.0081 -0.0951 -0.9010
   29MOL   C73625992   0.018   4.001   3.922  0.2640 -0.0196  0.4347
   29MOL   O73725993   0.192   3.700   3.832  0.5378  0.2912  0.1279
   29MOL   C73825994   0.129   3.603   3.754  0.0643 -1.0416 -0.5554
   29MOL   C73925995   0.018   3.535   3.810  0.0982  0.8940  0.4357
   29MOL   C74025996   8.319   3.436   3.732 -0.4187  0.9161  0.1393
   29MOL   C74125997   0.004   3.403   3.604  0.4156 -0.2291 -0.3229
   29MOL   C74225998   0.108   3.481   3.549 -0.2693 -0.5071  0.0820
   29MOL   C74325999   0.170   3.589   3.618 -0.0568 -0.4422 -0.4778
   29MOL   C74426000   8.321   3.289   3.524 -0.2560  0.1253  0.7851
   29MOL   C74526001   8.288   3.299   3.383 -0.0251 -0.0475 -0.1926
   29MOL   C74626002   8.261   3.184   3.308  1.0221  0.0658  0.8068
   29MOL   C74726003   8.256   3.057   3.371 -0.5345  0.1878  0.2656
   29MOL   C74826004   8.280   3.045   3.509 -0.4197  0.4952 -0.3027
   29MOL   C74926005   8.311   3.159   3.586  0.2311  0.5100 -0.3025
   29MOL   O75026006   8.221   2.949   3.297  0.4640  0.3835 -0.2801
   29MOL   H75126007   0.026   4.281   3.344  2.1589 -4.4408  1.5748
   29MOL   H75226008   8.329   4.187   3.563 -1.2629  1.3909 -0.9808
   29MOL   H75326009   0.175   4.503   3.761  0.1311  0.8650 -1.1205
   29MOL   H75426010   0.254   4.590   3.529 -0.4738 -0.0104 -1.9559
   29MOL   H75526011   0.250   4.128   3.711  0.3566 -1.3293 -0.2067
   29MOL   H75626012   0.316   3.897   3.703  0.2844 -0.1091  0.1935
   29MOL   H75726013   8.356   3.807   3.978  0.3625  0.8974  0.5019
   29MOL   H75826014   8.305   4.039   3.984 -0.4146 -0.9342  0.1396
   29MOL   H75926015   8.353   3.556   3.911 -0.8518 -0.3013  0.3931
   29MOL   H76026016   8.236   3.378   3.772 -0.3343  0.4672 -0.3367
   29MOL   H76126017   0.150   3.462   3.452  0.5711 -0.0404  0.3506
   29MOL   H76226018   0.247   3.649   3.573 -0.2483  1.4041  1.5294
   29MOL   H76326019   8.278   3.390   3.328  0.5118 -0.1886 -0.5288
   29MOL   H76426020   8.240   3.192   3.203  2.9047 -1.6534  0.2705
   29MOL   H76526021   8.281   2.948   3.557  0.1983  0.7566  0.2147
   29MOL   H76626022   8.345   3.140   3.686 -2.5287 -1.4055  0.3221
   29MOL   C76726023   8.322   2.866   3.252 -0.2430  0.4763 -0.1639
   29MOL   C76826024   0.079   2.919   3.206  0.2150 -0.3034  0.1430
   29MOL   C76926025   0.168   2.838   3.134  0.0869 -0.5283  0.2610
   29MOL   C77026026   0.146   2.700   3.131  0.2462  0.1310  0.7456
   29MOL   C77126027   0.025   2.648   3.178  0.4855  0.0090 -0.4979
   29MOL   C77226028   8.295   2.728   3.237  0.3434  0.4804  0.1602
   29MOL   S77326029   0.263   2.595   3.057 -0.1531 -0.2913  0.0456
   29MOL   O77426030   0.196   2.466   3.024  0.7025 -0.0308  0.2880
   29MOL   O77526031   0.378   2.597   3.151 -0.2384  0.1576 -0.1966
   29MOL   C77626032   0.308   2.662   2.906 -0.0332 -0.3849 -0.2791
   29MOL   C77726033   0.424   2.738   2.906  0.5804  0.3958  0.2955
   29MOL   C77826034   0.475   2.783   2.784 -0.5294  0.0450 -0.4352
   29MOL   C77926035   0.394   2.778   2.667 -0.0603  0.1533 -0.2811
   29MOL   C78026036   0.279   2.703   2.675 -0.8644  0.9462  0.5223
   29MOL   C78126037   0.230   2.651   2.794  0.3148  0.3125 -0.1344
   29MOL   O78226038   0.439   2.830   2.552  0.2014  0.7340  0.0322
   29MOL   C78326039   0.486   2.958   2.557  0.1963  0.3917  0.5145
   29MOL   C78426040   0.587   2.999   2.471 -0.3534 -0.9718 -0.5068
   29MOL   C78526041   0.669   3.115   2.490  0.2121 -0.2898  0.0521
   29MOL   C78626042   0.624   3.207   2.584 -0.6125  0.7205  0.1089
   29MOL   C78726043   0.498   3.183   2.648 -0.4274 -0.2663  0.2767
   29MOL   C78826044   0.431   3.057   2.641  0.0476  0.8943 -0.3823
   29MOL   C78926045   0.702   3.329   2.605  1.0301  0.4574  0.3352
   29MOL   C79026046   0.761   3.400   2.502 -0.1008  0.7022 -0.5573
   29MOL   C79126047   0.825   3.525   2.525 -1.0438  0.1851  0.5892
   29MOL   C79226048   0.845   3.573   2.652  0.5617 -0.2459 -0.1713
   29MOL   C79326049   0.785   3.500   2.759  0.1772  0.0618  0.7354
   29MOL   C79426050   0.722   3.376   2.735  0.1184  0.5036 -0.2510
   29MOL   O79526051   0.897   3.696   2.680  0.1072  0.2479 -0.2416
   29MOL   H79626052   0.110   3.022   3.211 -0.5133  0.0503 -1.8224
   29MOL   H79726053   0.259   2.874   3.088  0.7049 -1.6096  0.6096
   29MOL   H79826054   0.018   2.540   3.172  0.9919  0.0057 -1.1672
   29MOL   H79926055   8.198   2.691   3.268 -0.1953  2.1468  0.4941
   29MOL   H80026056   0.481   2.752   2.997 -1.8451  0.2272  1.9108
   29MOL   H80126057   0.572   2.828   2.769 -1.1166  0.7119 -2.3465
   29MOL   H80226058   0.212   2.695   2.590  1.4087 -3.2576 -1.0205
   29MOL   H80326059   0.135   2.599   2.801  0.1775  0.4846 -0.7217
   29MOL   H80426060   0.617   2.924   2.399  0.1868 -0.8943 -0.3679
   29MOL   H80526061   0.758   3.135   2.430  0.2011 -0.0726  0.1065
   29MOL   H80626062   0.451   3.260   2.707  1.0696  0.2847  0.7824
   29MOL   H80726063   0.351   3.041   2.711  0.1972  1.4546 -0.0782
   29MOL   H80826064   0.735   3.361   2.404 -1.4863 -1.4245  0.6249
   29MOL   H80926065   0.866   3.589   2.448  0.0896 -1.6022 -0.3086
   29MOL   H81026066   0.787   3.532   2.862 -0.7210  1.3152  0.3706
   29MOL   H81126067   0.684   3.317   2.818  1.0757 -2.1006 -1.5861
   29MOL   C81226068   0.819   3.804   2.699 -0.2335  0.5749  0.3944
   29MOL   C81326069   0.869   3.896   2.792 -0.4009 -0.1752 -0.5058
   29MOL   C81426070   0.802   4.017   2.821  0.4845  0.0889 -0.9499
   29MOL   C81526071   0.687   4.044   2.756  0.0308  0.2539  0.5041
   29MOL   C81626072   0.627   3.953   2.658 -1.3327  0.2031  0.1401
   29MOL   C81726073   0.694   3.832   2.631  0.4634  0.0262  0.1622
   29MOL   S81826074   0.607   4.198   2.766  0.0062  0.0831  0.5192
   29MOL   O81926075   0.705   4.298   2.822 -0.1917 -0.0313  0.4814
   29MOL   O82026076   0.485   4.178   2.846 -0.2833  0.1480  0.3382
   29MOL   C82126077   0.568   4.251   2.605 -0.4988  0.1380 -0.0125
   29MOL   C82226078   0.429   4.274   2.575  0.3782  0.4962  0.5690
   29MOL   C82326079   0.393   4.324   2.451 -0.0697  0.0830 -0.1496
   29MOL   C82426080   0.491   4.356   2.357  0.1627  0.2770  0.5067
   29MOL   C82526081   0.624   4.328   2.382  0.2675 -0.1647  0.0685
   29MOL   C82626082   0.665   4.282   2.509  0.3030 -0.2960 -0.1900
   29MOL   O82726083   0.443   4.404   2.237 -0.0837 -0.4453  0.2601
   29MOL   C82826084   0.464   4.537   2.210 -0.7292 -0.6190  0.0999
   29MOL   C82926085   0.568   4.569   2.125 -0.3974  0.4442  0.0374
   29MOL   C83026086   0.600   4.702   2.087 -0.7841  0.3448  0.5071
   29MOL   C83126087   0.522   4.815   2.139  0.4361  1.1974  0.0664
   29MOL   C83226088   0.411   4.781   2.222  0.5574  0.2607  0.0144
   29MOL   C83326089   0.376   4.644   2.253  0.1506  0.0763  1.1396
   29MOL   C83426090   0.553   4.957   2.117 -0.0205  0.1259 -0.1828
   29MOL   C83526091   0.521   5.054   2.207 -1.0892 -0.4797 -0.9518
   29MOL   C83626092   0.533   5.192   2.177  0.1515  0.5038 -0.3061
   29MOL   C83726093   0.594   5.230   2.059  0.2220 -0.0667  0.1738
   29MOL   C83826094   0.618   5.137   1.957 -0.7528 -0.8156  0.6192
   29MOL   C83926095   0.619   5.002   1.992  1.2561 -0.4012 -0.0642
   29MOL   O84026096   0.624   5.365   2.045 -0.0428  1.0016 -0.3437
   29MOL   H84126097   0.965   3.873   2.837  0.2482  0.2657 -1.6600
   29MOL   H84226098   0.838   4.093   2.889  1.6660 -0.2605 -1.1680
   29MOL   H84326099   0.533   3.976   2.610 -2.0943 -2.2349  0.3470
   29MOL   H84426100   0.663   3.767   2.550 -3.0217  1.0439  0.5663
   29MOL   H84526101   0.352   4.263   2.649 -0.1751 -0.6409 -0.1642
   29MOL   H84626102   0.292   4.357   2.435  0.2216  0.4500 -1.3056
   29MOL   H84726103   0.687   4.354   2.298 -1.2032 -0.1655 -1.0498
   29MOL   H84826104   0.771   4.274   2.526  0.1349  0.7903  1.4546
   29MOL   H84926105   0.619   4.479   2.093  1.6504  2.1422 -1.5443
   29MOL   H85026106   0.681   4.720   2.018 -2.7627 -0.1834 -2.0426
   29MOL   H85126107   0.345   4.857   2.261  1.8478  1.7357 -0.6100
   29MOL   H85226108   0.290   4.622   2.313 -1.3589 -0.6226 -1.2236
   29MOL   H85326109   0.508   5.027   2.311 -1.8445  2.2459 -0.3021
   29MOL   H85426110   0.503   5.270   2.246  1.7501  2.2099 -1.4715
   29MOL   H85526111   0.666   5.176   1.869 -1.2099 -2.7819 -0.5408
   29MOL   H85626112   0.660   4.933   1.919 -1.0745 -2.3570  0.3760
   29MOL   C85726113   0.760   5.385   2.049 -0.7550  0.3982 -0.0602
   29MOL   C85826114   0.840   5.374   1.930 -0.1108 -0.2215 -0.4202
   29MOL   C85926115   0.981   5.369   1.938 -0.5100  0.3645 -0.6139
   29MOL   C86026116   1.047   5.390   2.062  0.8523  0.6730 -0.2556
   29MOL   C86126117   0.969   5.423   2.178  0.0335  0.2694  0.1728
   29MOL   C86226118   0.827   5.411   2.170  0.5109 -0.2588 -0.1216
   29MOL   S86326119   1.220   5.364   2.093  0.1258  0.4308 -0.0621
   29MOL   O86426120   1.251   5.254   2.010 -0.2178  0.6383 -0.4703
   29MOL   O86526121   1.244   5.351   2.235 -0.3449  0.0083 -0.5161
   29MOL   C86626122   1.287   5.515   2.028 -0.5343 -0.6337 -0.2774
   29MOL   C86726123   1.352   5.599   2.118  0.9596 -0.5556 -0.1028
   29MOL   C86826124   1.427   5.706   2.073 -0.3260 -0.2761 -0.2714
   29MOL   C86926125   1.432   5.734   1.935  0.0547  0.5530  0.4802
   29MOL   C87026126   1.374   5.645   1.844 -0.0778  0.4257  0.1008
   29MOL   C87126127   1.301   5.533   1.891 -0.3357 -0.1927  0.4207
   29MOL   O87226128   1.504   5.836   1.887 -0.6253 -0.2122 -0.2188
   29MOL   C87326129   1.638   5.816   1.852  0.7340 -0.2772  0.5609
   29MOL   C87426130   1.694   5.907   1.758 -0.4365  0.5161 -0.4756
   29MOL   C87526131   1.828   5.907   1.730  0.0053  0.5910  0.4447
   29MOL   C87626132   1.916   5.816   1.799  0.0520 -0.2007  0.5913
   29MOL   C87726133   1.861   5.725   1.887 -0.5853  0.0245  0.8725
   29MOL   C87826134   1.725   5.719   1.914 -0.4776 -0.0690 -0.2836
   29MOL   C87926135   2.063   5.810   1.765  0.0920  0.1770 -0.2131
   29MOL   C88026136   2.157   5.745   1.849  0.8805 -0.0077  0.2285
   29MOL   C88126137   2.287   5.732   1.808  0.2114  0.1475 -0.7769
   29MOL   C88226138   2.338   5.803   1.696  0.0085 -0.1271  0.4339
   29MOL   C88326139   2.247   5.881   1.613  0.1690  0.5746 -0.3128
   29MOL   C88426140   2.110   5.876   1.650 -0.7636 -0.5424  0.1131
   29MOL   O88526141   2.473   5.803   1.660 -0.3706 -0.1125 -0.7929
   29MOL   H88626142   0.790   5.351   1.837  1.1401  0.0908 -1.1803
   29MOL   H88726143   1.034   5.342   1.848  1.5039  2.9400 -0.2469
   29MOL   H88826144   1.010   5.443   2.275 -0.8485  4.0477 -0.1741
   29MOL   H88926145   0.759   5.411   2.254  0.7840 -1.8757  0.1178
   29MOL   H89026146   1.345   5.579   2.224 -0.1288 -1.1623 -0.2794
   29MOL   H89126147   1.479   5.774   2.139 -0.0722 -3.2858  2.7076
   29MOL   H89226148   1.398   5.652   1.739 -1.1087  2.1823 -0.0291
   29MOL   H89326149   1.261   5.452   1.831  1.5573 -1.3589  0.7071
   29MOL   H89426150   1.627   5.968   1.699 -1.3608 -0.1047 -0.0798
   29MOL   H89526151   1.874   5.977   1.662  1.3200 -0.3041  0.3796
   29MOL   H89626152   1.925   5.649   1.931  1.2853  0.8695 -0.3047
   29MOL   H89726153   1.688   5.643   1.981 -0.5112  0.1762 -0.0228
   29MOL   H89826154   2.127   5.695   1.940  0.5155  1.4034  0.8993
   29MOL   H89926155   2.362   5.685   1.870  1.5494 -1.8488 -3.7315
   29MOL   H90026156   2.282   5.933   1.525  0.6778  0.7330 -0.0158
   29MOL   H90126157   2.038   5.931   1.591 -0.7456  0.9007  1.4041
   29MOL   H90226158   2.523   5.789   1.739 -2.0793  2.3559  0.7977
   30MOL     C126159   5.461   4.650   7.330  0.4942  0.2628 -0.1581
   30MOL     C226160   5.485   4.723   7.450  0.0929 -0.3955  0.0347
   30MOL     C326161   5.406   4.838   7.476 -0.1694 -0.6410  0.4452
   30MOL     C426162   5.297   4.860   7.385  0.4876  0.5912  0.2654
   30MOL     C526163   5.261   4.772   7.282 -1.1666  0.1440  0.3640
   30MOL     C626164   5.346   4.670   7.250 -0.1494 -0.3353 -0.1337
   30MOL     S726165   5.183   5.002   7.419  0.0271  0.3170  0.1623
   30MOL     O826166   5.241   5.082   7.519  0.0731 -0.4252  0.1750
   30MOL     O926167   5.043   4.961   7.432 -1.2403  0.5437 -0.1849
   30MOL    C1026168   5.205   5.096   7.267 -0.4431 -0.1831 -0.8083
   30MOL    C1126169   5.325   5.161   7.251 -0.4607  0.0144  0.0219
   30MOL    C1226170   5.341   5.249   7.144 -0.9061 -0.1980  0.9609
   30MOL    C1326171   5.233   5.273   7.057 -0.4752  0.3081  0.4692
   30MOL    C1426172   5.115   5.209   7.072  0.5601  0.0551  0.3764
   30MOL    C1526173   5.104   5.111   7.171 -1.0403  0.0273 -0.4608
   30MOL    O1626174   5.264   5.348   6.947 -0.1148  0.6325 -0.3420
   30MOL    C1726175   5.161   5.397   6.874  0.9132 -0.6955 -0.0354
   30MOL    C1826176   5.128   5.339   6.747  0.4525  0.2556  0.6169
   30MOL    C1926177   5.042   5.402   6.654  0.9617 -0.0164  0.4052
   30MOL    C2026178   4.999   5.532   6.682 -0.0117 -0.7812 -0.2397
   30MOL    C2126179   5.016   5.587   6.816  0.1706 -0.2785 -0.3517
   30MOL    C2226180   5.097   5.511   6.911 -0.0016 -0.0911 -0.5663
   30MOL    C2326181   4.926   5.611   6.583  0.1521  0.0097 -0.9061
   30MOL    C2426182   4.820   5.550   6.502  0.0848 -0.4238  0.0752
   30MOL    C2526183   4.762   5.626   6.401  0.4148 -0.2570  0.6438
   30MOL    C2626184   4.792   5.763   6.389 -0.3174 -0.5154 -0.5828
   30MOL    C2726185   4.880   5.829   6.482  0.2251  0.5428 -0.3305
   30MOL    C2826186   4.950   5.750   6.571  0.8915  0.0114 -0.2204
   30MOL    O2926187   4.720   5.844   6.305 -0.4109 -0.5160  0.3581
   30MOL    H3026188   5.567   4.713   7.519 -0.3016 -2.1114  0.2855
   30MOL    H3126189   5.432   4.907   7.555 -1.9224  0.0067  0.4872
   30MOL    H3226190   5.166   4.787   7.231 -0.1819  0.2820 -1.4763
   30MOL    H3326191   5.318   4.613   7.163  0.4657  1.3969 -1.4905
   30MOL    H3426192   5.398   5.154   7.330  0.5190  0.0213 -0.8643
   30MOL    H3526193   5.434   5.302   7.132 -0.4388 -1.2049  0.0779
   30MOL    H3626194   5.030   5.212   7.005  0.4180  0.4041  0.5715
   30MOL    H3726195   5.012   5.058   7.191 -0.7537 -1.1623 -2.1649
   30MOL    H3826196   5.178   5.252   6.708 -2.5978 -2.2505  1.9945
   30MOL    H3926197   5.031   5.358   6.556  2.9479 -1.8597  0.9678
   30MOL    H4026198   4.982   5.688   6.837 -0.4995 -0.7619  0.9175
   30MOL    H4126199   5.133   5.559   7.001  0.8238 -1.6226 -0.0569
   30MOL    H4226200   4.789   5.448   6.514 -1.1232  0.0060  0.6938
   30MOL    H4326201   4.689   5.581   6.335  0.8004 -1.0371  0.7471
   30MOL    H4426202   4.888   5.936   6.490 -0.7179  0.6500 -0.8151
   30MOL    H4526203   5.019   5.785   6.646  0.5938 -0.3854  0.2409
   30MOL    H4626204   5.533   4.572   7.310 -0.8488 -1.4765  1.5631
   30MOL    C4726205   4.591   5.811   6.281  0.3485  0.3778 -0.4140
   30MOL    C4826206   4.501   5.790   6.390 -0.0334  0.3662 -0.0298
   30MOL    C4926207   4.366   5.756   6.370  0.3596  1.3265 -0.5390
   30MOL    C5026208   4.318   5.745   6.240  0.0649 -0.0762 -0.4050
   30MOL    C5126209   4.403   5.777   6.126 -0.1934  0.2870  0.0775
   30MOL    C5226210   4.536   5.805   6.153 -0.4962 -0.2229 -0.0445
   30MOL    S5326211   4.145   5.720   6.205  0.0603  0.1320 -0.2366
   30MOL    O5426212   4.110   5.806   6.094 -0.5967 -0.0281  0.1268
   30MOL    O5526213   4.069   5.729   6.332 -0.1330 -0.1650 -0.2225
   30MOL    C5626214   4.142   5.553   6.148 -0.2749  1.2363  0.2952
   30MOL    C5726215   4.151   5.522   6.009 -0.1666  0.1920 -0.3292
   30MOL    C5826216   4.127   5.390   5.973 -0.6052 -0.0268 -0.1838
   30MOL    C5926217   4.095   5.282   6.061  0.2405 -0.7558  0.1230
   30MOL    C6026218   4.094   5.318   6.196 -0.9364  1.4827 -0.5065
   30MOL    C6126219   4.118   5.452   6.238 -0.3487  0.1888  0.2775
   30MOL    O6226220   4.065   5.153   6.024 -0.6155  0.0453 -0.3470
   30MOL    C6326221   3.942   5.138   5.974  0.2156  0.5824 -0.8513
   30MOL    C6426222   3.827   5.108   6.051 -0.2856 -0.1214 -0.7224
   30MOL    C6526223   3.695   5.106   5.990 -0.3133  0.1661 -0.3990
   30MOL    C6626224   3.684   5.120   5.847  0.9064  0.1662  0.1992
   30MOL    C6726225   3.803   5.136   5.772  0.3864  0.5587  0.1047
   30MOL    C6826226   3.930   5.144   5.836  0.1684 -0.5968  0.6905
   30MOL    C6926227   3.554   5.107   5.779 -0.3617  0.4145 -0.0674
   30MOL    C7026228   3.517   4.989   5.710 -1.3238 -0.9607 -0.1824
   30MOL    C7126229   3.390   4.968   5.648  0.1066  0.7682 -0.5966
   30MOL    C7226230   3.293   5.068   5.673  0.5840 -0.1024 -0.4012
   30MOL    C7326231   3.330   5.190   5.737  0.3743  0.2604  0.1157
   30MOL    C7426232   3.461   5.213   5.787 -0.4734  0.7561 -0.3427
   30MOL    O7526233   3.166   5.038   5.627  0.2446  0.3501 -0.3730
   30MOL    H7626234   4.531   5.795   6.494  0.6192 -0.9352 -0.1447
   30MOL    H7726235   4.303   5.746   6.457 -0.1985 -2.1855 -1.2759
   30MOL    H7826236   4.371   5.769   6.023 -0.8809 -0.2854  0.3301
   30MOL    H7926237   4.602   5.823   6.069 -0.0929 -2.7620 -0.3166
   30MOL    H8026238   4.162   5.607   5.943 -1.5370 -1.5242 -2.8498
   30MOL    H8126239   4.129   5.369   5.867 -2.1795  0.7140 -0.3706
   30MOL    H8226240   4.074   5.238   6.266  3.9129 -0.1950 -0.8205
   30MOL    H8326241   4.111   5.475   6.343  0.3113 -1.1983  0.6389
   30MOL    H8426242   3.835   5.076   6.154 -0.1051 -1.9535 -1.2852
   30MOL    H8526243   3.608   5.099   6.054  0.7514 -0.5770  0.9965
   30MOL    H8626244   3.811   5.134   5.664 -1.7338 -0.7426 -0.0581
   30MOL    H8726245   4.015   5.164   5.773 -1.8928  1.2878 -1.5465
   30MOL    H8826246   3.604   4.927   5.695  0.0045  0.8009  0.0012
   30MOL    H8926247   3.364   4.871   5.607  3.3891 -1.4232  2.1641
   30MOL    H9026248   3.257   5.270   5.742  1.3089  1.1465 -0.1764
   30MOL    H9126249   3.482   5.304   5.841 -1.6011  1.0560 -0.3983
   30MOL    C9226250   3.061   5.092   5.691 -0.5545 -0.2431 -0.4340
   30MOL    C9326251   3.021   5.051   5.820 -0.0448  0.1405  0.5839
   30MOL    C9426252   2.909   5.106   5.888 -0.0926 -0.3626 -1.1150
   30MOL    C9526253   2.824   5.205   5.829  0.1468  0.1917  0.4490
   30MOL    C9626254   2.867   5.248   5.701  1.0417  0.5016  0.5060
   30MOL    C9726255   2.979   5.188   5.634 -0.2882 -0.1209  0.0238
   30MOL    S9826256   2.673   5.266   5.908 -0.0948 -0.2065 -0.5028
   30MOL    O9926257   2.681   5.410   5.914  0.1552  1.1971  0.1474
   30MOL   O10026258   2.661   5.193   6.034 -0.7227 -1.2969 -0.7280
   30MOL   C10126259   2.542   5.213   5.795 -0.1215  0.0608 -0.2178
   30MOL   C10226260   2.555   5.092   5.725  0.4190 -0.1738  0.2516
   30MOL   C10326261   2.462   5.066   5.620 -0.0527 -0.9864  0.2729
   30MOL   C10426262   2.353   5.152   5.598 -0.2864 -0.1960  0.2596
   30MOL   C10526263   2.338   5.267   5.678 -0.6104 -0.4361  0.1858
   30MOL   C10626264   2.432   5.300   5.769 -0.9564  0.6838  0.4957
   30MOL   O10726265   2.252   5.122   5.512 -0.2191 -0.3068 -0.5848
   30MOL   C10826266   2.276   5.073   5.389 -0.5223  0.2540  0.1697
   30MOL   C10926267   2.212   4.967   5.326 -0.1424 -0.4673 -0.9033
   30MOL   C11026268   2.243   4.924   5.195  0.4622  0.3228  0.3160
   30MOL   C11126269   2.336   4.992   5.119 -0.6869  0.5603  0.4591
   30MOL   C11226270   2.401   5.108   5.178 -0.0087 -0.3295 -0.2373
   30MOL   C11326271   2.369   5.140   5.309 -0.3817 -0.1127  0.1885
   30MOL   C11426272   2.391   4.926   4.995  0.7055 -0.3361  0.7120
   30MOL   C11526273   2.372   4.787   4.964  0.2551 -1.4378  0.3156
   30MOL   C11626274   2.450   4.719   4.864  0.4976 -0.3641 -0.4524
   30MOL   C11726275   2.537   4.793   4.782 -0.2881  0.2037 -0.6975
   30MOL   C11826276   2.535   4.935   4.794  0.4622  0.2937 -0.3457
   30MOL   C11926277   2.464   4.998   4.899 -0.9082  0.4433  0.3839
   30MOL   O12026278   2.603   4.741   4.681 -0.5525  0.5202  0.4729
   30MOL   H12126279   3.076   4.975   5.873 -0.6708  0.7884  2.1777
   30MOL   H12226280   2.881   5.069   5.986 -1.1062  0.3628 -1.1211
   30MOL   H12326281   2.811   5.319   5.641  0.0200 -1.2471 -0.6510
   30MOL   H12426282   2.999   5.203   5.529  1.4055 -3.9356 -0.2793
   30MOL   H12526283   2.627   5.014   5.749  0.0656 -1.2112 -1.9197
   30MOL   H12626284   2.460   4.977   5.560 -2.9651 -0.7321 -0.0992
   30MOL   H12726285   2.252   5.330   5.659 -0.2821  0.5603  1.8629
   30MOL   H12826286   2.415   5.386   5.831 -0.8938 -0.5589  2.2929
   30MOL   H12926287   2.127   4.929   5.381  0.5003 -0.2331  0.2720
   30MOL   H13026288   2.190   4.834   5.170  1.5810 -0.1797 -0.2818
   30MOL   H13126289   2.486   5.157   5.134  0.8477 -3.1688 -1.8406
   30MOL   H13226290   2.416   5.227   5.351 -1.6083  1.7798 -2.2691
   30MOL   H13326291   2.300   4.734   5.025 -0.5671 -0.1000  0.5439
   30MOL   H13426292   2.428   4.615   4.848  2.2483 -0.7676 -0.2677
   30MOL   H13526293   2.590   4.995   4.723  1.1893 -1.3637 -1.2031
   30MOL   H13626294   2.487   5.101   4.923  1.5019 -0.0205  0.2311
   30MOL   C13726295   2.736   4.769   4.663  0.6544 -0.2389  0.4932
   30MOL   C13826296   2.823   4.801   4.770 -0.7560 -0.3058 -0.0567
   30MOL   C13926297   2.961   4.825   4.744  0.0315  0.4044 -0.6575
   30MOL   C14026298   3.010   4.809   4.613  0.3779 -0.2171  0.6456
   30MOL   C14126299   2.925   4.766   4.510  0.7516  0.2694 -0.1561
   30MOL   C14226300   2.790   4.750   4.534  0.2275 -0.7886 -0.4536
   30MOL   S14326301   3.184   4.815   4.593 -0.1223 -0.4219  0.0214
   30MOL   O14426302   3.225   4.681   4.541  0.5475 -0.1821 -0.0202
   30MOL   O14526303   3.244   4.863   4.721  0.5364 -0.1762 -0.1284
   30MOL   C14626304   3.230   4.944   4.473  0.8182  0.0266  0.2533
   30MOL   C14726305   3.321   5.045   4.515 -0.2501  0.8600 -1.1568
   30MOL   C14826306   3.364   5.147   4.426  0.3939  0.9293  0.5672
   30MOL   C14926307   3.295   5.157   4.303 -0.2366  0.0833  0.5569
   30MOL   C15026308   3.206   5.058   4.257 -0.2069 -0.3393 -0.6294
   30MOL   C15126309   3.173   4.949   4.345  0.0875 -0.1603 -0.3741
   30MOL   O15226310   3.324   5.262   4.220  0.1311  0.1033  0.1266
   30MOL   C15326311   3.444   5.259   4.152  0.1909  0.7177 -0.4428
   30MOL   C15426312   3.526   5.372   4.162  0.1497  0.0523 -0.3485
   30MOL   C15526313   3.658   5.365   4.115  0.8235  0.0988  0.7818
   30MOL   C15626314   3.705   5.264   4.032 -0.2160 -0.0174 -0.0862
   30MOL   C15726315   3.621   5.149   4.021 -0.1872 -0.2799 -0.7571
   30MOL   C15826316   3.490   5.150   4.077 -0.6578  0.1770 -0.0555
   30MOL   C15926317   3.818   5.271   3.939  0.6267  0.1085  0.5409
   30MOL   C16026318   3.799   5.345   3.823  0.3428 -0.5274 -0.2847
   30MOL   C16126319   3.894   5.345   3.721 -0.5785  0.4986  0.3624
   30MOL   C16226320   4.012   5.266   3.739  0.0428 -0.0353  0.1535
   30MOL   C16326321   4.027   5.182   3.855  0.0643 -0.0295 -0.0790
   30MOL   C16426322   3.925   5.184   3.949  0.1191 -0.7229  0.1867
   30MOL   O16526323   4.113   5.264   3.643 -0.3995 -0.1481  0.2105
   30MOL   H16626324   2.803   4.804   4.876  0.2751 -0.5633  0.1504
   30MOL   H16726325   3.030   4.850   4.823 -0.0265  0.9215 -0.7690
   30MOL   H16826326   2.964   4.758   4.410  3.1190  0.9657  0.6557
   30MOL   H16926327   2.727   4.726   4.449 -0.9132  3.1053 -0.7764
   30MOL   H17026328   3.369   5.041   4.612 -0.2193  0.2371 -1.1945
   30MOL   H17126329   3.424   5.231   4.457  0.8936  1.0867 -0.8156
   30MOL   H17226330   3.161   5.063   4.159  0.3533  0.3965 -0.8582
   30MOL   H17326331   3.105   4.873   4.310  0.4322 -0.6385  0.0034
   30MOL   H17426332   3.487   5.460   4.211 -3.5055 -0.8983 -1.3588
   30MOL   H17526333   3.724   5.445   4.146  2.2334 -0.7925  0.1479
   30MOL   H17626334   3.648   5.058   3.969 -0.6283 -0.7461 -0.1726
   30MOL   H17726335   3.426   5.063   4.075 -1.1927  0.5128  1.4394
   30MOL   H17826336   3.704   5.398   3.821  1.5233  1.7565  1.2121
   30MOL   H17926337   3.889   5.407   3.633 -1.8797  0.6663  0.5476
   30MOL   H18026338   4.116   5.122   3.863  1.1898  1.6952  0.9464
   30MOL   H18126339   3.923   5.109   4.028 -2.2596 -0.1832  0.6922
   30MOL   C18226340   4.091   5.192   3.526  0.1321  0.1183 -0.3105
   30MOL   C18326341   4.175   5.220   3.414  0.5663  0.1439 -0.3343
   30MOL   C18426342   4.143   5.168   3.286  0.5517 -0.3600 -0.3138
   30MOL   C18526343   4.032   5.084   3.271 -0.3623 -0.3805 -0.1418
   30MOL   C18626344   3.950   5.058   3.385 -0.0930  1.2093  0.2747
   30MOL   C18726345   3.982   5.105   3.513  0.1932 -0.1477  0.3663
   30MOL   S18826346   3.990   5.016   3.113  0.0907  0.1441  0.0052
   30MOL   O18926347   4.029   5.120   3.020 -0.1834 -0.1081  0.4651
   30MOL   O19026348   3.852   4.971   3.118  0.1067  0.0160 -0.7434
   30MOL   C19126349   4.090   4.873   3.072  0.3412  0.3963  1.3976
   30MOL   C19226350   4.231   4.890   3.066 -0.3415 -0.4116 -0.0450
   30MOL   C19326351   4.311   4.778   3.024 -0.4297 -0.0403  0.1965
   30MOL   C19426352   4.248   4.653   2.983  0.3628  0.2791  0.6763
   30MOL   C19526353   4.110   4.641   2.984  0.4934  0.1132  0.5054
   30MOL   C19626354   4.031   4.751   3.032 -0.4484  0.0974  0.0035
   30MOL   O19726355   4.321   4.560   2.921  0.1475  0.1493  0.9345
   30MOL   C19826356   4.362   4.582   2.795  0.5695 -0.3561  0.4503
   30MOL   C19926357   4.396   4.711   2.742 -0.0922 -0.2118 -0.3189
   30MOL   C20026358   4.448   4.718   2.609  0.2924  0.1077 -0.4464
   30MOL   C20126359   4.466   4.605   2.525  0.2397  0.8287  0.1584
   30MOL   C20226360   4.416   4.484   2.575 -0.2938 -0.0190 -0.0275
   30MOL   C20326361   4.358   4.471   2.703  0.4523  0.0401 -0.2616
   30MOL   C20426362   4.546   4.619   2.402 -0.4293 -1.0635  0.0768
   30MOL   C20526363   4.508   4.563   2.277 -0.4142 -0.5560 -0.1295
   30MOL   C20626364   4.578   4.587   2.155  0.0182 -0.0764 -0.5130
   30MOL   C20726365   4.685   4.678   2.158 -0.5545  0.6322  0.0193
   30MOL   C20826366   4.730   4.741   2.278 -0.2818 -0.4935  0.0766
   30MOL   C20926367   4.665   4.703   2.400  0.1022  0.2701 -0.7819
   30MOL   O21026368   4.748   4.711   2.042 -0.7588  0.1591  0.2864
   30MOL   H21126369   4.257   5.287   3.434  0.2898  0.2721  0.4021
   30MOL   H21226370   4.212   5.192   3.207  2.2867 -0.2920  1.1806
   30MOL   H21326371   3.862   4.998   3.371  1.0261 -0.6007  0.8914
   30MOL   H21426372   3.931   5.088   3.607  0.5631  0.0898  0.6121
   30MOL   H21526373   4.276   4.987   3.079 -0.9858 -0.0873 -0.2422
   30MOL   H21626374   4.418   4.781   3.021 -0.3539 -2.8472 -0.8882
   30MOL   H21726375   4.059   4.553   2.949  1.0977 -0.2882  0.6150
   30MOL   H21826376   3.923   4.742   3.038 -0.4058 -1.9068 -1.7178
   30MOL   H21926377   4.390   4.797   2.807 -0.1574 -0.9450  0.6487
   30MOL   H22026378   4.486   4.815   2.578  1.3570  0.4314  1.7436
   30MOL   H22126379   4.426   4.401   2.507  0.5747  3.1856 -4.0169
   30MOL   H22226380   4.324   4.373   2.732  0.4559 -0.2210 -1.1268
   30MOL   H22326381   4.417   4.504   2.278  0.3496 -1.7266  1.9941
   30MOL   H22426382   4.537   4.535   2.070 -1.8031  0.9415 -0.2841
   30MOL   H22526383   4.824   4.795   2.274 -1.0119  0.8213  0.3433
   30MOL   H22626384   4.705   4.751   2.488  1.5101 -1.4668 -0.4619
   30MOL   C22726385   4.674   4.721   1.929 -0.1072  0.7948 -0.1318
   30MOL   C22826386   4.550   4.796   1.935 -0.3412 -0.0529  0.3954
   30MOL   C22926387   4.466   4.800   1.818  0.1741  0.0744  0.5894
   30MOL   C23026388   4.517   4.735   1.697  0.4962 -1.0419 -0.0453
   30MOL   C23126389   4.645   4.675   1.693 -0.1115  0.2259  0.0747
   30MOL   C23226390   4.720   4.660   1.811 -0.2728 -0.0251 -0.0094
   30MOL   S23326391   4.421   4.736   1.547 -0.2858 -0.0526 -0.0031
   30MOL   O23426392   4.276   4.695   1.569 -0.2938 -0.8197 -0.5257
   30MOL   O23526393   4.493   4.653   1.444  0.2231 -0.0076 -0.0918
   30MOL   C23626394   4.427   4.909   1.478  0.0095 -0.3967  0.8279
   30MOL   C23726395   4.404   5.026   1.556 -0.2106 -0.9295  0.5045
   30MOL   C23826396   4.419   5.155   1.496  0.0335  0.1970  0.3478
   30MOL   C23926397   4.471   5.171   1.366 -0.3315  0.0348 -0.1379
   30MOL   C24026398   4.477   5.055   1.287 -0.5151  0.4005  0.0872
   30MOL   C24126399   4.453   4.923   1.338  0.0356 -0.8031  0.1057
   30MOL   O24226400   4.491   5.286   1.299  0.1117 -0.2863  0.2574
   30MOL   C24326401   4.617   5.338   1.302 -0.5662 -0.0447 -0.2233
   30MOL   C24426402   4.714   5.302   1.206 -0.8334 -0.0223  0.0456
   30MOL   C24526403   4.843   5.362   1.206  0.4476 -0.1922  0.3986
   30MOL   C24626404   4.885   5.443   1.314 -0.7710 -0.3638  0.1329
   30MOL   C24726405   4.789   5.471   1.408  0.0213  0.3274 -0.2688
   30MOL   C24826406   4.660   5.423   1.406  0.4090 -0.1132  0.0812
   30MOL   C24926407   5.024   5.503   1.311 -0.0275  0.1512 -0.7080
   30MOL   C25026408   5.085   5.511   1.439  0.4260 -0.2728 -0.3814
   30MOL   C25126409   5.218   5.559   1.450  0.3588  0.6810  0.4548
   30MOL   C25226410   5.291   5.592   1.333  0.3926  0.0954 -0.0919
   30MOL   C25326411   5.227   5.587   1.206  0.2491  0.4640 -0.1638
   30MOL   C25426412   5.094   5.538   1.194  0.4619  0.6604 -0.0058
   30MOL   O25526413   5.416   5.634   1.337 -0.5388  0.3815 -0.4065
   30MOL   H25626414   4.526   4.850   2.025 -0.4456 -0.8296  0.8358
   30MOL   H25726415   4.370   4.849   1.819 -0.4148 -1.0294 -0.8077
   30MOL   H25826416   4.681   4.645   1.596 -0.3788 -2.2824  0.7065
   30MOL   H25926417   4.806   4.594   1.809 -1.1223 -1.1541  0.3355
   30MOL   H26026418   4.366   5.011   1.656  0.2818 -0.6985  0.7232
   30MOL   H26126419   4.401   5.240   1.559  0.8195  0.5673  0.0761
   30MOL   H26226420   4.500   5.055   1.181 -0.0203 -2.1013  0.1542
   30MOL   H26326421   4.470   4.835   1.277 -0.0977 -0.6648 -0.1292
   30MOL   H26426422   4.686   5.230   1.131 -0.0106  0.1333 -0.4227
   30MOL   H26526423   4.914   5.335   1.130 -0.6063  1.6093 -1.2833
   30MOL   H26626424   4.819   5.536   1.489  0.2455 -0.8079  0.5816
   30MOL   H26726425   4.598   5.449   1.490 -0.0159  0.2299 -0.3397
   30MOL   H26826426   5.031   5.486   1.529  0.6483  1.7806  0.3608
   30MOL   H26926427   5.260   5.569   1.549  0.5139  1.6344  0.2976
   30MOL   H27026428   5.281   5.619   1.118 -0.1238 -1.1903 -1.0169
   30MOL   H27126429   5.046   5.530   1.097 -1.8919  1.3115  1.0634
   30MOL   C27226430   5.437   5.768   1.346 -1.0315 -0.4233 -0.2202
   30MOL   C27326431   5.491   5.819   1.468 -0.1714 -0.3300  0.6391
   30MOL   C27426432   5.506   5.958   1.485 -0.5247 -0.2759  0.0375
   30MOL   C27526433   5.480   6.047   1.379 -0.0601 -0.3748  0.1139
   30MOL   C27626434   5.435   5.993   1.253 -0.2073 -0.4082  0.3969
   30MOL   C27726435   5.413   5.858   1.241 -0.4238  0.1798 -0.2545
   30MOL   S27826436   5.526   6.215   1.402  0.2459  0.3029 -0.4751
   30MOL   O27926437   5.570   6.272   1.275 -0.4899 -0.3259  0.3799
   30MOL   O28026438   5.618   6.224   1.518  0.5839  0.2497 -0.7663
   30MOL   C28126439   5.372   6.292   1.441 -0.5302 -0.5736 -0.0222
   30MOL   C28226440   5.280   6.301   1.339 -0.5612  0.3500  0.4045
   30MOL   C28326441   5.153   6.350   1.359 -0.3327 -0.0648 -0.5718
   30MOL   C28426442   5.114   6.382   1.493  0.2422 -0.6081  0.1632
   30MOL   C28526443   5.207   6.368   1.598 -0.3065 -0.1120 -0.8858
   30MOL   C28626444   5.339   6.330   1.571  0.1285 -0.3511 -0.0673
   30MOL   O28726445   4.985   6.427   1.511 -0.2608  0.8298 -0.4879
   30MOL   C28826446   4.950   6.498   1.625 -0.1797 -0.0967  0.1463
   30MOL   C28926447   4.980   6.633   1.636  0.2744 -1.2484 -0.0998
   30MOL   C29026448   4.968   6.701   1.759 -0.5795  0.0869  0.0382
   30MOL   C29126449   4.926   6.631   1.875  0.9601  0.5256  0.3437
   30MOL   C29226450   4.882   6.495   1.858  0.1449  0.1059 -0.3507
   30MOL   C29326451   4.900   6.429   1.735 -0.0137 -0.1096 -0.5430
   30MOL   C29426452   4.938   6.694   2.008 -0.3322 -0.3892  0.9702
   30MOL   C29526453   4.975   6.623   2.122 -0.2507 -0.1028  0.9449
   30MOL   C29626454   4.998   6.682   2.246  0.3481 -0.1253 -0.7307
   30MOL   C29726455   4.966   6.817   2.270  0.0344  0.3279  0.0046
   30MOL   C29826456   4.926   6.885   2.153  0.1500  0.1486  0.1079
   30MOL   C29926457   4.913   6.834   2.022 -0.9828  0.3362  0.4043
   30MOL   O30026458   4.969   6.881   2.391  0.5175 -0.0139 -0.2860
   30MOL   H30126459   5.521   5.756   1.550 -0.8271 -0.8372  0.4968
   30MOL   H30226460   5.525   6.003   1.581  0.1793 -1.6237  0.5510
   30MOL   H30326461   5.417   6.068   1.178 -1.5493 -1.1225  0.0049
   30MOL   H30426462   5.382   5.812   1.148 -0.0996 -1.8597  0.6094
   30MOL   H30526463   5.313   6.278   1.239  0.3033  0.5713  0.6297
   30MOL   H30626464   5.087   6.362   1.275 -0.2695  0.4126 -0.5519
   30MOL   H30726465   5.190   6.388   1.703  1.0116 -0.5478 -0.5779
   30MOL   H30826466   5.410   6.317   1.651  0.2104  0.7612  0.0554
   30MOL   H30926467   5.015   6.683   1.547 -1.9510  0.2786 -0.1476
   30MOL   H31026468   5.016   6.796   1.773 -0.0647 -0.1008 -0.4363
   30MOL   H31126469   4.857   6.438   1.947 -0.8687  0.4877 -0.3831
   30MOL   H31226470   4.885   6.322   1.737  0.1812 -0.1514 -1.0879
   30MOL   H31326471   5.000   6.518   2.122 -1.3212 -0.3555  1.3175
   30MOL   H31426472   5.044   6.614   2.316 -0.3485 -1.0135 -1.1226
   30MOL   H31526473   4.902   6.990   2.165 -0.1539  0.1847 -0.7696
   30MOL   H31626474   4.892   6.894   1.935  1.6126  1.2118  0.3264
   30MOL   C31726475   5.077   6.963   2.413 -0.1630 -0.3727  0.7291
   30MOL   C31826476   5.203   6.949   2.360  0.6947  0.2765  0.4349
   30MOL   C31926477   5.305   7.048   2.387  0.2735  0.5154  0.7961
   30MOL   C32026478   5.288   7.153   2.474 -0.4108 -0.0327  0.0629
   30MOL   C32126479   5.155   7.174   2.516 -1.0197  0.0061  0.1890
   30MOL   C32226480   5.051   7.080   2.491  0.6627  0.6832 -0.1285
   30MOL   S32326481   5.417   7.276   2.491  0.3336  0.1570  0.3413
   30MOL   O32426482   5.545   7.203   2.520 -0.0446 -0.1293  0.1073
   30MOL   O32526483   5.361   7.381   2.576 -0.5019  0.3319  0.4349
   30MOL   C32626484   5.448   7.359   2.336 -0.2396 -0.1355 -0.0657
   30MOL   C32726485   5.499   7.491   2.352  0.0949 -0.3096 -0.2847
   30MOL   C32826486   5.560   7.554   2.238 -0.1928  0.0507 -0.6330
   30MOL   C32926487   5.532   7.501   2.111 -0.2822 -0.1769  0.2730
   30MOL   C33026488   5.455   7.381   2.093 -0.0715 -0.0984 -0.6822
   30MOL   C33126489   5.419   7.305   2.211  0.6755 -0.1394 -0.3369
   30MOL   O33226490   5.583   7.562   2.003  0.4202 -0.7824  0.2803
   30MOL   C33326491   5.669   7.493   1.920  0.0886  0.7448 -0.6637
   30MOL   C33426492   5.610   7.429   1.804 -0.2055  0.0491 -0.2791
   30MOL   C33526493   5.689   7.344   1.723  0.4020  0.4703 -0.4601
   30MOL   C33626494   5.821   7.320   1.763 -0.0693 -0.4360  0.3637
   30MOL   C33726495   5.879   7.388   1.877 -0.0928  0.9898  0.7355
   30MOL   C33826496   5.801   7.473   1.960 -0.3588 -0.2776  0.1472
   30MOL   C33926497   5.891   7.216   1.688 -0.1188 -0.3133  0.0059
   30MOL   C34026498   5.944   7.114   1.770  0.1391 -0.6604  0.0569
   30MOL   C34126499   6.009   7.007   1.709 -0.0897 -0.2125 -0.1951
   30MOL   C34226500   6.010   6.998   1.569  0.5294  0.6271 -0.7856
   30MOL   C34326501   5.949   7.095   1.484  0.2160 -0.1308 -0.9154
   30MOL   C34426502   5.891   7.208   1.544 -0.3119  0.2375 -0.2471
   30MOL   O34526503   6.067   6.890   1.503  0.0625  0.4932  0.4960
   30MOL   H34626504   5.221   6.870   2.289 -0.8465 -1.8195  2.2921
   30MOL   H34726505   5.394   7.032   2.327 -0.2405 -3.0041  0.8615
   30MOL   H34826506   5.136   7.264   2.574  0.3061  0.1113  0.4702
   30MOL   H34926507   4.955   7.112   2.527  1.3021  1.0506  1.3119
   30MOL   H35026508   5.497   7.547   2.444  0.0658  0.2268 -0.6138
   30MOL   H35126509   5.623   7.638   2.264 -1.2654 -0.1514  2.8230
   30MOL   H35226510   5.456   7.343   1.992  2.5224 -2.0045 -0.0010
   30MOL   H35326511   5.383   7.205   2.189  3.3146 -1.4524  1.1037
   30MOL   H35426512   5.511   7.459   1.773 -0.1521 -1.3538 -1.8828
   30MOL   H35526513   5.651   7.295   1.634 -0.6686  0.4219  0.0206
   30MOL   H35626514   5.980   7.379   1.914 -0.3766  1.8071  1.7165
   30MOL   H35726515   5.845   7.516   2.049 -0.4083 -0.3299  0.1974
   30MOL   H35826516   5.935   7.134   1.876 -1.0246  2.7457 -0.6523
   30MOL   H35926517   6.057   6.937   1.775 -0.8736  1.0992  1.8123
   30MOL   H36026518   5.953   7.082   1.377  0.0807 -1.4678 -0.7633
   30MOL   H36126519   5.839   7.282   1.485  1.2046  2.1541  0.7220
   30MOL   C36226520   6.072   6.773   1.570  0.0892 -0.4335  0.2032
   30MOL   C36326521   5.958   6.728   1.636  0.6304 -0.1764 -0.0209
   30MOL   C36426522   5.957   6.609   1.715  0.4407 -1.1459  0.0724
   30MOL   C36526523   6.079   6.547   1.742 -0.4414  0.1943  0.5916
   30MOL   C36626524   6.198   6.588   1.684  0.0557  0.7534 -0.0103
   30MOL   C36726525   6.186   6.696   1.596 -0.3491  0.5323  0.5214
   30MOL   S36826526   6.081   6.413   1.859 -0.1807 -0.4693  0.3450
   30MOL   O36926527   6.116   6.464   1.990 -0.3074 -0.2657 -0.1907
   30MOL   O37026528   6.173   6.312   1.807  0.5724  0.4589 -0.0263
   30MOL   C37126529   5.916   6.347   1.870  0.2218  0.0987 -0.1862
   30MOL   C37226530   5.877   6.244   1.787  0.3023 -0.0601 -0.0521
   30MOL   C37326531   5.743   6.197   1.790 -0.4426 -0.3597  0.0074
   30MOL   C37426532   5.646   6.260   1.872  0.3657 -0.1817 -0.3187
   30MOL   C37526533   5.687   6.361   1.961  0.1165  0.1705  0.7131
   30MOL   C37626534   5.816   6.412   1.953  0.0137 -0.5134 -0.1928
   30MOL   O37726535   5.512   6.216   1.866  0.3671  0.2250 -0.3683
   30MOL   C37826536   5.478   6.082   1.884 -0.3832 -0.2804 -0.4362
   30MOL   C37926537   5.548   5.995   1.977  0.1414  0.4204 -0.1727
   30MOL   C38026538   5.496   5.864   1.987 -0.8026 -0.5378 -0.6522
   30MOL   C38126539   5.393   5.806   1.913  0.7914  0.3471  0.3415
   30MOL   C38226540   5.324   5.893   1.828  0.2635  0.4508  0.0785
   30MOL   C38326541   5.363   6.029   1.819  0.2388  0.3880 -0.3632
   30MOL   C38426542   5.357   5.665   1.933 -0.3886  0.3432 -0.7037
   30MOL   C38526543   5.349   5.574   1.820 -0.1602 -0.3250 -0.2468
   30MOL   C38626544   5.334   5.439   1.832 -0.0114 -0.1558 -0.2509
   30MOL   C38726545   5.315   5.387   1.966 -0.0023  0.0832 -0.0656
   30MOL   C38826546   5.321   5.473   2.080 -0.6644 -0.5415  0.2122
   30MOL   C38926547   5.346   5.608   2.060 -0.4817 -0.2672  0.1794
   30MOL   O39026548   5.299   5.252   1.982  0.0115  0.2411 -0.0752
   30MOL   H39126549   5.866   6.784   1.624  0.6676 -0.4528 -1.7606
   30MOL   H39226550   5.864   6.579   1.761 -0.0290 -0.9424 -0.7405
   30MOL   H39326551   6.288   6.530   1.698 -1.5088 -1.5586  0.6760
   30MOL   H39426552   6.283   6.729   1.561  1.2521 -1.9397  2.4581
   30MOL   H39526553   5.951   6.215   1.714 -0.8146  1.3579 -1.7861
   30MOL   H39626554   5.719   6.112   1.728  0.1789 -0.3742 -0.2240
   30MOL   H39726555   5.614   6.409   2.025  1.2863  0.9608  1.4672
   30MOL   H39826556   5.841   6.501   2.010  2.4406 -0.4175 -1.3306
   30MOL   H39926557   5.639   6.025   2.026  0.3932 -0.9773  0.2577
   30MOL   H40026558   5.549   5.796   2.053  0.4169  2.0595  1.1277
   30MOL   H40126559   5.234   5.861   1.775 -0.4887  0.8312  1.1171
   30MOL   H40226560   5.312   6.101   1.757  1.0719 -0.2073 -1.7648
   30MOL   H40326561   5.363   5.603   1.717 -0.6995 -1.0657 -0.5334
   30MOL   H40426562   5.337   5.368   1.750 -2.7391  0.0083 -0.5534
   30MOL   H40526563   5.311   5.446   2.184 -1.0500  2.9717  1.1252
   30MOL   H40626564   5.340   5.677   2.143 -1.5026  0.9067 -0.8603
   30MOL   C40726565   5.389   5.191   2.067 -0.2347 -0.4754  0.0058
   30MOL   C40826566   5.531   5.209   2.060 -0.3411 -0.3464 -0.2197
   30MOL   C40926567   5.610   5.137   2.158 -0.9078  0.0975  0.5188
   30MOL   C41026568   5.549   5.048   2.250  0.3660 -0.2532 -0.3560
   30MOL   C41126569   5.412   5.024   2.245 -0.4106 -0.0546 -0.0151
   30MOL   C41226570   5.333   5.097   2.154  0.8611  0.0917  0.2478
   30MOL   S41326571   5.642   4.955   2.369 -0.2218 -0.3443 -0.5839
   30MOL   O41426572   5.596   4.814   2.369  0.3786  0.4668  0.4930
   30MOL   O41526573   5.623   5.048   2.488 -0.1185 -0.2616  0.4548
   30MOL   C41626574   5.808   4.955   2.318 -0.4678  0.1609 -0.6262
   30MOL   C41726575   5.888   5.067   2.316 -0.0085  0.6457 -0.4471
   30MOL   C41826576   6.026   5.053   2.285 -0.5690  0.7709 -0.0374
   30MOL   C41926577   6.072   4.929   2.242 -0.2720 -0.1168  0.0561
   30MOL   C42026578   6.003   4.812   2.253  0.6454 -0.1317  0.1934
   30MOL   C42126579   5.865   4.825   2.299 -0.0979  0.5493 -0.5910
   30MOL   O42226580   6.202   4.936   2.193 -0.2447  0.3378  0.0144
   30MOL   C42326581   6.309   4.895   2.268 -0.1833 -0.5136  0.5140
   30MOL   C42426582   6.399   4.996   2.302 -0.3385 -0.1469  0.2988
   30MOL   C42526583   6.511   4.963   2.383 -0.2275  0.2022  0.3996
   30MOL   C42626584   6.541   4.831   2.427 -0.2998 -0.6101 -0.1540
   30MOL   C42726585   6.451   4.730   2.387 -0.6837  0.5947  0.0350
   30MOL   C42826586   6.337   4.762   2.311 -0.3032 -0.2991  0.0491
   30MOL   C42926587   6.671   4.788   2.482 -0.9342 -0.4917  0.5187
   30MOL   C43026588   6.698   4.662   2.538  0.4418  0.4205  0.7430
   30MOL   C43126589   6.827   4.627   2.595 -0.1377 -0.5272 -0.5940
   30MOL   C43226590   6.931   4.717   2.579  0.0965  0.0047  0.3090
   30MOL   C43326591   6.914   4.838   2.511 -0.4798  0.7124 -0.5288
   30MOL   C43426592   6.785   4.876   2.474  0.3158  0.0302  0.6178
   30MOL   O43526593   7.054   4.663   2.614  0.1225  0.0522 -0.3986
   30MOL   H43626594   5.581   5.272   1.988 -4.0488  0.0962 -2.5228
   30MOL   H43726595   5.717   5.140   2.143 -1.5832  2.5776 -5.2345
   30MOL   H43826596   5.374   4.949   2.314  2.8135 -1.1931  0.6138
   30MOL   H43926597   5.226   5.099   2.166  0.8673 -1.0218  0.4706
   30MOL   H44026598   5.842   5.163   2.335 -0.5211  0.1543  0.8190
   30MOL   H44126599   6.090   5.140   2.285  1.4756 -0.6559  2.8808
   30MOL   H44226600   6.047   4.717   2.225  2.5534  1.7204 -3.3383
   30MOL   H44326601   5.813   4.733   2.321 -0.7862  0.7666 -1.3187
   30MOL   H44426602   6.382   5.100   2.280 -1.3013 -0.5891 -1.1061
   30MOL   H44526603   6.576   5.049   2.397 -1.2279  0.8164  1.3214
   30MOL   H44626604   6.468   4.625   2.407  2.2163  0.4395 -2.7388
   30MOL   H44726605   6.270   4.682   2.286  0.3398 -1.4727  1.9811
   30MOL   H44826606   6.612   4.596   2.544  0.4791  0.3170  0.2228
   30MOL   H44926607   6.830   4.530   2.643 -0.7952 -0.2894 -0.0651
   30MOL   H45026608   7.002   4.891   2.479  0.3424 -1.6415 -2.3245
   30MOL   H45126609   6.772   4.975   2.434  1.5684  1.2491  3.0744
   30MOL   C45226610   7.065   4.586   2.725 -0.6702  0.4020 -0.4860
   30MOL   C45326611   7.038   4.640   2.853 -0.2043  0.2802  0.9290
   30MOL   C45426612   7.043   4.565   2.970  0.9441 -0.1252  0.8141
   30MOL   C45526613   7.068   4.425   2.961 -0.0614 -0.5670  0.3591
   30MOL   C45626614   7.098   4.371   2.838 -1.3947  0.9798 -0.6229
   30MOL   C45726615   7.096   4.452   2.713  0.7072 -0.2859  1.0414
   30MOL   S45826616   7.080   4.327   3.111  0.0140 -0.1671  0.6666
   30MOL   O45926617   7.098   4.191   3.061 -0.1449  0.5360  0.0026
   30MOL   O46026618   6.969   4.373   3.195 -0.0596  0.2536 -0.1052
   30MOL   C46126619   7.236   4.378   3.188 -0.3000  0.5332  0.2395
   30MOL   C46226620   7.229   4.431   3.317 -0.0893 -0.3813  0.4982
   30MOL   C46326621   7.348   4.466   3.381 -0.7310 -0.9279 -0.0458
   30MOL   C46426622   7.475   4.453   3.320  1.1413  0.2294 -0.4310
   30MOL   C46526623   7.483   4.402   3.188 -0.0100  0.4666 -0.3751
   30MOL   C46626624   7.364   4.358   3.130  0.2974 -0.8135  0.2042
   30MOL   O46726625   7.597   4.474   3.380 -0.2646 -0.0397 -0.0269
   30MOL   C46826626   7.634   4.371   3.461 -0.2852 -0.4975 -0.1012
   30MOL   C46926627   7.730   4.393   3.563  0.3126 -0.5664 -0.3235
   30MOL   C47026628   7.765   4.294   3.660 -0.2988  0.0577  0.5600
   30MOL   C47126629   7.727   4.163   3.634 -0.4022 -0.0723 -0.0910
   30MOL   C47226630   7.629   4.136   3.531 -0.0729 -0.1300  0.3740
   30MOL   C47326631   7.590   4.241   3.442 -0.4514  0.1107 -0.0997
   30MOL   C47426632   7.776   4.049   3.710  0.0780 -0.1016  0.2586
   30MOL   C47526633   7.916   4.030   3.725  0.0360 -0.3557  0.4159
   30MOL   C47626634   7.963   3.926   3.803 -1.5055  0.7619 -0.0549
   30MOL   C47726635   7.875   3.837   3.872  0.3749  0.3349 -0.0060
   30MOL   C47826636   7.741   3.856   3.863 -0.1983  0.1737 -0.0704
   30MOL   C47926637   7.690   3.961   3.783 -0.2514  0.7106  0.7468
   30MOL   O48026638   7.927   3.735   3.944 -0.2091 -0.2046 -0.0178
   30MOL   H48126639   6.997   4.740   2.854  1.4295  0.9812  0.2416
   30MOL   H48226640   7.016   4.619   3.060 -1.2920  2.5200 -1.3394
   30MOL   H48326641   7.115   4.265   2.827 -1.5854  0.6400  2.0570
   30MOL   H48426642   7.092   4.412   2.613  0.0424  1.8149  0.1926
   30MOL   H48526643   7.136   4.441   3.370  1.3624 -0.9784  3.2371
   30MOL   H48626644   7.338   4.503   3.482  2.1531  1.7983 -0.6904
   30MOL   H48726645   7.576   4.372   3.142  0.6121 -0.6609  1.5447
   30MOL   H48826646   7.369   4.311   3.033  2.7588 -2.5648  1.1174
   30MOL   H48926647   7.774   4.491   3.557  0.9458 -0.9626 -3.1301
   30MOL   H49026648   7.839   4.315   3.736  0.9636  1.3669 -0.9676
   30MOL   H49126649   7.591   4.035   3.520  0.5366 -0.4320  1.0536
   30MOL   H49226650   7.516   4.210   3.370 -0.8373 -0.9812  0.7447
   30MOL   H49326651   7.985   4.099   3.678  0.6076 -1.5243 -0.4844
   30MOL   H49426652   8.069   3.924   3.823 -1.2790 -0.2841 -1.3332
   30MOL   H49526653   7.676   3.783   3.908 -0.6222  0.0619 -0.8566
   30MOL   H49626654   7.585   3.981   3.794 -0.5429  0.2566 -1.0518
   30MOL   C49726655   7.917   3.606   3.895 -0.0467 -0.5389 -0.7352
   30MOL   C49826656   7.966   3.576   3.761  0.1834  0.3697  0.5354
   30MOL   C49926657   7.957   3.450   3.710  0.6367 -0.3973 -0.0492
   30MOL   C50026658   7.900   3.356   3.789 -0.1430 -0.1945 -0.0417
   30MOL   C50126659   7.851   3.382   3.922  0.3556 -0.4602 -0.0550
   30MOL   C50226660   7.857   3.511   3.975 -0.4565  1.0553 -0.0266
   30MOL   S50326661   7.866   3.202   3.709  0.2239  0.2580  0.2748
   30MOL   O50426662   7.752   3.140   3.789 -0.3800 -0.1976 -0.4932
   30MOL   O50526663   8.000   3.135   3.695  0.2399  0.0409 -0.1584
   30MOL   C50626664   7.805   3.246   3.539  0.4397  0.4169  0.9485
   30MOL   C50726665   7.711   3.355   3.524  0.7395 -0.1830  0.3322
   30MOL   C50826666   7.664   3.384   3.391  0.4519 -0.1270  0.6251
   30MOL   C50926667   7.711   3.305   3.280 -0.2487  0.3759 -0.2531
   30MOL   C51026668   7.807   3.201   3.303  0.2156  0.2171 -1.0987
   30MOL   C51126669   7.856   3.172   3.434 -0.0265  0.2805 -0.6665
   30MOL   O51226670   7.665   3.320   3.153  0.0542  0.0699  0.0410
   30MOL   C51326671   7.536   3.304   3.132 -0.5266  0.5728 -0.1273
   30MOL   C51426672   7.471   3.407   3.056 -0.6401  0.2926 -0.5346
   30MOL   C51526673   7.331   3.400   3.033  0.4966  0.8040 -0.1343
   30MOL   C51626674   7.255   3.295   3.083  0.3743 -0.1208  0.1512
   30MOL   C51726675   7.322   3.194   3.151  0.1530 -0.6776  0.0632
   30MOL   C51826676   7.464   3.194   3.178  0.7681 -0.5506  0.1673
   30MOL   C51926677   7.115   3.276   3.046 -0.2228 -0.0924 -0.4787
   30MOL   C52026678   7.018   3.368   3.094 -0.3432 -0.1146  0.1159
   30MOL   C52126679   6.879   3.346   3.076 -0.6160  0.3430 -0.1188
   30MOL   C52226680   6.840   3.237   2.997 -0.2402  0.0897 -0.2331
   30MOL   C52326681   6.936   3.150   2.935  0.2180 -0.7069 -0.3592
   30MOL   C52426682   7.073   3.168   2.964  1.0741  0.3277  0.7536
   30MOL   O52526683   6.705   3.208   2.981 -0.3580  0.6997 -0.2064
   30MOL   H52626684   8.002   3.650   3.692  0.0631  0.2704  0.3656
   30MOL   H52726685   7.977   3.424   3.607  1.5452  3.0765 -0.8003
   30MOL   H52826686   7.803   3.304   3.979 -0.4438 -0.1502 -0.2835
   30MOL   H52926687   7.824   3.524   4.077 -0.3008 -0.7639  0.2649
   30MOL   H53026688   7.683   3.430   3.596  2.3556  1.7421 -0.9735
   30MOL   H53126689   7.591   3.458   3.362  0.5610 -0.3046 -0.1118
   30MOL   H53226690   7.833   3.142   3.217 -0.6210  0.5879 -1.6184
   30MOL   H53326691   7.933   3.098   3.451  0.1044  0.3459 -0.9726
   30MOL   H53426692   7.535   3.484   3.017 -0.5964 -0.0366 -1.1270
   30MOL   H53526693   7.292   3.476   2.967  0.2728 -0.9784 -2.0975
   30MOL   H53626694   7.266   3.109   3.186  0.0001  0.2050  2.0450
   30MOL   H53726695   7.510   3.109   3.227  0.0703 -1.6145 -0.9836
   30MOL   H53826696   7.049   3.448   3.160 -1.1438  1.2587 -1.1623
   30MOL   H53926697   6.801   3.403   3.123 -0.8836 -1.4449  1.7119
   30MOL   H54026698   6.908   3.066   2.872  0.8925  0.3212 -2.0816
   30MOL   H54126699   7.144   3.091   2.937  1.1294  0.1936  1.2688
   30MOL   C54226700   6.617   3.307   2.940 -0.2584  0.4084  0.0829
   30MOL   C54326701   6.525   3.350   3.033 -1.1465  0.5652 -0.0555
   30MOL   C54426702   6.440   3.459   3.007 -0.6337  0.7707 -0.4202
   30MOL   C54526703   6.440   3.519   2.881 -0.0501 -0.2246  0.3085
   30MOL   C54626704   6.536   3.478   2.781 -0.3509  0.0678 -1.1013
   30MOL   C54726705   6.632   3.374   2.815  0.7529 -0.0496 -0.6122
   30MOL   S54826706   6.311   3.641   2.845  0.5970  0.2779  0.0908
   30MOL   O54926707   6.361   3.728   2.737 -0.2470  0.3547  0.2308
   30MOL   O55026708   6.271   3.711   2.966  0.7636  0.3010 -0.4724
   30MOL   C55126709   6.177   3.535   2.780  0.5538  0.1482  0.1267
   30MOL   C55226710   6.105   3.445   2.864  0.7366 -0.5293 -0.3889
   30MOL   C55326711   6.007   3.361   2.804 -0.4140 -0.4627 -0.0696
   30MOL   C55426712   5.977   3.378   2.669 -0.3350 -0.1184  0.5861
   30MOL   C55526713   6.055   3.460   2.588  0.1702  0.2504  0.2832
   30MOL   C55626714   6.152   3.539   2.640  0.4686 -0.5635 -0.8309
   30MOL   O55726715   5.871   3.312   2.619 -0.2235 -0.4720  0.4801
   30MOL   C55826716   5.805   3.362   2.507  0.4825  0.3604 -0.9292
   30MOL   C55926717   5.813   3.289   2.380  0.9097 -0.2621  0.3198
   30MOL   C56026718   5.743   3.340   2.267 -0.3375 -0.5086 -0.3277
   30MOL   C56126719   5.663   3.457   2.276 -0.0192 -0.0670  0.1737
   30MOL   C56226720   5.658   3.528   2.398 -0.4650 -0.7350  0.3883
   30MOL   C56326721   5.723   3.477   2.514  0.3312  0.5188  0.1325
   30MOL   C56426722   5.593   3.505   2.157 -0.3838  0.4766  0.4299
   30MOL   C56526723   5.547   3.413   2.059 -0.1951  0.4349  0.1506
   30MOL   C56626724   5.500   3.461   1.937  0.6390  0.0374  0.8815
   30MOL   C56726725   5.475   3.594   1.912 -0.1587 -0.2864  0.1551
   30MOL   C56826726   5.523   3.687   2.008  0.3942 -0.2194 -0.4562
   30MOL   C56926727   5.575   3.644   2.134 -0.5524  0.3533  0.0455
   30MOL   O57026728   5.425   3.637   1.789 -0.0462  0.0836 -0.2926
   30MOL   H57126729   6.534   3.302   3.130  0.4218 -0.8152 -0.8505
   30MOL   H57226730   6.363   3.484   3.079  0.5302 -1.2874  1.5929
   30MOL   H57326731   6.535   3.543   2.695  2.4454  0.1143 -1.1477
   30MOL   H57426732   6.716   3.351   2.751  0.3263 -0.3922 -1.0492
   30MOL   H57526733   6.134   3.433   2.967  2.3194 -0.3380 -0.8084
   30MOL   H57626734   5.951   3.288   2.860 -0.2279  0.5856  1.5034
   30MOL   H57726735   6.035   3.473   2.482  1.4643 -0.6802 -0.0920
   30MOL   H57826736   6.205   3.607   2.575  0.0361 -0.1583 -0.7615
   30MOL   H57926737   5.862   3.193   2.370 -0.7502 -1.0119 -0.7917
   30MOL   H58026738   5.755   3.288   2.173 -1.7243 -1.1830 -0.1401
   30MOL   H58126739   5.610   3.624   2.406  0.9455 -0.1258  1.7259
   30MOL   H58226740   5.720   3.526   2.611 -0.6422 -2.7355  1.8324
   30MOL   H58326741   5.560   3.308   2.078  0.6322  0.6844  0.9856
   30MOL   H58426742   5.480   3.395   1.854  1.9225  0.7088  0.0227
   30MOL   H58526743   5.509   3.793   1.993 -2.2821 -0.2979  1.1197
   30MOL   H58626744   5.621   3.716   2.200  1.0167  0.7176 -1.3780
   30MOL   C58726745   5.291   3.617   1.760 -0.4120 -0.2853  0.2458
   30MOL   C58826746   5.241   3.676   1.645 -0.4119  0.4821  0.1930
   30MOL   C58926747   5.107   3.656   1.614 -0.2608 -0.4204  0.3131
   30MOL   C59026748   5.016   3.603   1.709  0.2771  1.1723  0.1648
   30MOL   C59126749   5.066   3.553   1.830 -0.1078  0.5018 -0.3233
   30MOL   C59226750   5.201   3.564   1.856  0.2411 -0.4180 -0.1927
   30MOL   S59326751   4.836   3.576   1.671 -0.0142  0.2193  0.2000
   30MOL   O59426752   4.799   3.655   1.553 -0.5320 -0.7734 -0.2898
   30MOL   O59526753   4.769   3.601   1.798  0.1833  0.0951  0.4637
   30MOL   C59626754   4.834   3.408   1.631 -0.8161 -0.4461 -0.1893
   30MOL   C59726755   4.894   3.374   1.504  0.7259 -0.2947  0.0798
   30MOL   C59826756   4.906   3.241   1.478 -0.1158  0.2547  0.0432
   30MOL   C59926757   4.876   3.140   1.571  0.3997  0.2632 -0.9648
   30MOL   C60026758   4.817   3.174   1.694  0.8302 -0.3738  0.2135
   30MOL   C60126759   4.801   3.308   1.728  0.1087 -0.8306 -0.3158
   30MOL   O60226760   4.919   3.013   1.560  0.2374  0.1147  0.5943
   30MOL   C60326761   4.860   2.934   1.460  0.4507 -0.1981 -0.7217
   30MOL   C60426762   4.771   2.833   1.495  1.1123  0.6301  0.3519
   30MOL   C60526763   4.725   2.749   1.395 -0.4938  0.4400 -0.4930
   30MOL   C60626764   4.770   2.762   1.257  1.2285 -0.4196 -0.7726
   30MOL   C60726765   4.878   2.847   1.232 -0.2497  0.4268 -0.0442
   30MOL   C60826766   4.917   2.939   1.333 -0.6437 -0.2047 -0.0783
   30MOL   C60926767   4.701   2.688   1.152  0.1695 -0.3659  0.0675
   30MOL   C61026768   4.563   2.694   1.149 -0.0166 -0.2698  0.2731
   30MOL   C61126769   4.493   2.626   1.047 -0.3756  0.1748  0.4963
   30MOL   C61226770   4.560   2.531   0.966 -0.6420  0.1992  0.3843
   30MOL   C61326771   4.701   2.540   0.953  0.0945 -0.3266 -0.0853
   30MOL   C61426772   4.767   2.610   1.054 -0.2679  0.5353  0.3349
   30MOL   O61526773   4.501   2.452   0.870  0.2829 -0.1434  0.2670
   30MOL   H61626774   5.307   3.716   1.570 -2.2634 -0.4491 -1.9882
   30MOL   H61726775   5.065   3.696   1.523  2.4618  3.6542  0.7123
   30MOL   H61826776   4.999   3.502   1.898 -0.7468  0.6582 -0.8356
   30MOL   H61926777   5.242   3.522   1.947  0.2214 -2.1898 -0.9693
   30MOL   H62026778   4.917   3.436   1.419 -3.0321  0.3775 -0.5304
   30MOL   H62126779   4.956   3.215   1.385 -2.6803  1.8198 -1.8230
   30MOL   H62226780   4.785   3.099   1.764  0.1378  1.3435  1.7665
   30MOL   H62326781   4.753   3.332   1.822 -0.6373 -1.0356 -0.6457
   30MOL   H62426782   4.732   2.820   1.595  0.1068 -2.4199 -0.3750
   30MOL   H62526783   4.656   2.670   1.423  1.2814 -0.8006  0.5276
   30MOL   H62626784   4.933   2.860   1.140 -3.6197  3.3016 -1.7609
   30MOL   H62726785   4.993   3.012   1.309 -1.8680  0.6129 -1.5667
   30MOL   H62826786   4.513   2.764   1.215  0.0075  0.3766 -0.3922
   30MOL   H62926787   4.386   2.638   1.032 -0.4639 -0.9918  0.0898
   30MOL   H63026788   4.756   2.472   0.890  0.1915  1.1081 -1.5822
   30MOL   H63126789   4.875   2.605   1.045 -0.3232  0.7474 -0.5682
   30MOL   C63226790   4.368   2.455   0.857 -0.3161  0.6229  0.7637
   30MOL   C63326791   4.284   2.348   0.898 -0.1188  0.1551 -0.9111
   30MOL   C63426792   4.144   2.370   0.902 -0.1739  0.0378 -0.7335
   30MOL   C63526793   4.089   2.499   0.872  0.3360  0.1020  0.3968
   30MOL   C63626794   4.176   2.589   0.802 -0.1612 -0.7270  1.2765
   30MOL   C63726795   4.311   2.574   0.802  0.1917  0.0005  0.1077
   30MOL   S63826796   3.924   2.551   0.927  0.3365  0.1128 -0.1902
   30MOL   O63926797   3.884   2.466   1.040  0.0031  0.2924  0.1391
   30MOL   O64026798   3.831   2.571   0.816 -0.6199  0.1476  0.2240
   30MOL   C64126799   3.962   2.714   0.993  0.0603 -0.2880 -0.6266
   30MOL   C64226800   4.066   2.738   1.085  0.5839  0.0894  0.0380
   30MOL   C64326801   4.104   2.865   1.129  0.6956 -0.6727 -0.9127
   30MOL   C64426802   4.021   2.975   1.087 -0.1729 -0.2837  0.8197
   30MOL   C64526803   3.907   2.952   1.003  0.0151  0.5360  0.0661
   30MOL   C64626804   3.879   2.821   0.957 -0.0172  0.4551  0.2659
   30MOL   O64726805   4.054   3.105   1.127 -0.4622  0.1157  0.1009
   30MOL   C64826806   4.137   3.130   1.235  0.4181  0.6495 -0.2043
   30MOL   C64926807   4.278   3.153   1.219  0.5221 -1.1681  0.1640
   30MOL   C65026808   4.355   3.173   1.330 -0.7054  0.1471 -0.1838
   30MOL   C65126809   4.304   3.174   1.459 -0.6017  0.3722 -0.1528
   30MOL   C65226810   4.167   3.159   1.477 -0.1863  0.4412  0.1377
   30MOL   C65326811   4.085   3.144   1.364  0.0923 -0.2823 -0.0819
   30MOL   C65426812   4.393   3.191   1.577 -0.5451 -0.0893 -0.4707
   30MOL   C65526813   4.393   3.094   1.685  0.1853 -0.0771  0.1554
   30MOL   C65626814   4.431   3.130   1.814  0.3500 -0.3770  0.3795
   30MOL   C65726815   4.471   3.259   1.839  0.4360  0.4417 -0.4017
   30MOL   C65826816   4.488   3.349   1.731 -0.4370  0.5928 -0.0883
   30MOL   C65926817   4.445   3.318   1.602 -0.4468 -0.0519 -0.1873
   30MOL   O66026818   4.509   3.302   1.966  0.3518  0.0032 -0.1408
   30MOL   H66126819   4.324   2.254   0.934 -1.0752  0.6669  1.6170
   30MOL   H66226820   4.078   2.295   0.943 -0.7709  1.7878  1.6540
   30MOL   H66326821   4.154   2.690   0.771  0.5310 -0.1763  2.5233
   30MOL   H66426822   4.378   2.649   0.762 -0.3522  0.1354 -0.5571
   30MOL   H66526823   4.116   2.653   1.128 -1.4872  1.2822  5.1591
   30MOL   H66626824   4.189   2.871   1.195  1.0470  2.0667 -1.5479
   30MOL   H66726825   3.844   3.034   0.972 -1.5876 -1.6125 -2.4841
   30MOL   H66826826   3.798   2.812   0.887  0.9298 -0.9463 -0.6661
   30MOL   H66926827   4.325   3.148   1.122  0.8098 -1.1767  0.3015
   30MOL   H67026828   4.460   3.158   1.310 -0.5579  0.4630  0.3763
   30MOL   H67126829   4.127   3.168   1.577 -1.0231  0.8949 -0.2352
   30MOL   H67226830   3.980   3.127   1.384 -0.3892  2.7898  0.1669
   30MOL   H67326831   4.377   2.988   1.674  0.9211 -0.2682  0.8852
   30MOL   H67426832   4.434   3.051   1.888  1.6587 -1.8678 -1.1921
   30MOL   H67526833   4.533   3.445   1.751 -0.1435  0.2128  1.1568
   30MOL   H67626834   4.444   3.396   1.527 -1.0585  1.0162  0.9185
   30MOL   C67726835   4.437   3.415   2.005  0.2191 -0.6732 -0.7292
   30MOL   C67826836   4.492   3.535   2.056 -0.8159  0.1751 -0.2266
   30MOL   C67926837   4.413   3.651   2.087 -0.1689  0.2875  0.2882
   30MOL   C68026838   4.274   3.647   2.068  0.4076  0.2418  0.6385
   30MOL   C68126839   4.218   3.527   2.017 -0.4629  0.0555  0.7051
   30MOL   C68226840   4.297   3.416   1.993 -0.1743  0.2003 -0.4302
   30MOL   S68326841   4.177   3.786   2.126 -0.3471 -0.0531  0.1584
   30MOL   O68426842   4.152   3.774   2.270 -0.7571  0.0144  0.2913
   30MOL   O68526843   4.061   3.803   2.037  0.0214  0.2251 -0.2990
   30MOL   C68626844   4.282   3.936   2.107 -0.4596  0.1710 -0.1176
   30MOL   C68726845   4.339   3.967   1.982  0.4954 -0.0367  0.2007
   30MOL   C68826846   4.414   4.088   1.973  0.6022  0.5661  0.1896
   30MOL   C68926847   4.429   4.173   2.086 -0.8120  0.9796 -0.0006
   30MOL   C69026848   4.380   4.136   2.206  0.0044  0.0217 -0.3911
   30MOL   C69126849   4.301   4.016   2.219 -0.5328 -0.1037  0.4977
   30MOL   O69226850   4.501   4.291   2.086 -0.1078  0.3127  0.0624
   30MOL   C69326851   4.636   4.282   2.054  0.4068  0.0638 -0.2213
   30MOL   C69426852   4.727   4.259   2.164 -0.7926  0.6925 -0.4155
   30MOL   C69526853   4.864   4.259   2.138  0.7469  1.1335  0.4964
   30MOL   C69626854   4.920   4.281   2.007 -0.8586  0.6976 -0.0530
   30MOL   C69726855   4.821   4.307   1.906 -0.4847 -0.4774 -0.5302
   30MOL   C69826856   4.686   4.308   1.927  0.5286  0.1070  0.1453
   30MOL   C69926857   5.070   4.288   1.983  0.8018 -0.7269  0.0944
   30MOL   C70026858   5.119   4.360   1.868  0.2769 -0.7933  0.6449
   30MOL   C70126859   5.260   4.370   1.845 -0.0475  1.1439  0.1142
   30MOL   C70226860   5.354   4.298   1.930 -0.2144  0.4623  0.5901
   30MOL   C70326861   5.302   4.232   2.043 -0.0327 -0.2997  0.1825
   30MOL   C70426862   5.161   4.225   2.069  0.3460 -0.5012 -0.0612
   30MOL   O70526863   5.486   4.308   1.918 -0.3741 -0.2171  0.4410
   30MOL   H70626864   4.599   3.534   2.070 -0.7826  0.1412 -0.4735
   30MOL   H70726865   4.461   3.741   2.124  1.2602 -0.4603  0.2793
   30MOL   H70826866   4.111   3.519   2.003 -0.4058 -2.1491  1.2643
   30MOL   H70926867   4.243   3.329   1.960  0.3699 -0.3858  0.2234
   30MOL   H71026868   4.323   3.902   1.897  0.1039  0.5843 -0.1986
   30MOL   H71126869   4.453   4.121   1.878  0.5702  1.3033  0.4286
   30MOL   H71226870   4.389   4.202   2.291  1.2296 -1.2760  0.5046
   30MOL   H71326871   4.254   3.985   2.311  0.3570 -2.0132  0.3411
   30MOL   H71426872   4.695   4.256   2.267 -1.7122  0.9819 -0.6908
   30MOL   H71526873   4.934   4.233   2.216  1.0057 -0.4947 -0.2509
   30MOL   H71626874   4.860   4.343   1.812 -2.1363  0.4339 -0.8812
   30MOL   H71726875   4.612   4.342   1.857  3.1431  1.9963 -1.8271
   30MOL   H71826876   5.053   4.425   1.811 -1.7139 -2.6699  0.7381
   30MOL   H71926877   5.305   4.432   1.769 -1.6405  1.3179 -0.7053
   30MOL   H72026878   5.363   4.187   2.119  0.1843 -0.5630 -0.1456
   30MOL   H72126879   5.118   4.163   2.146 -2.2576  0.1850 -0.9150
   30MOL   C72226880   5.557   4.428   1.932 -0.0480  0.4773  0.3878
   30MOL   C72326881   5.665   4.453   1.849 -0.1279  0.7083  0.3930
   30MOL   C72426882   5.736   4.575   1.846 -0.0987  0.5825 -0.7471
   30MOL   C72526883   5.690   4.677   1.925  0.3629  0.2264 -0.6085
   30MOL   C72626884   5.588   4.651   2.015 -0.0214  0.0384  0.9419
   30MOL   C72726885   5.515   4.531   2.016  1.0511  0.3588  0.0340
   30MOL   S72826886   5.760   4.836   1.916  0.0381  0.2186  0.0511
   30MOL   O72926887   5.898   4.826   1.868  0.0419  0.3607 -0.0542
   30MOL   O73026888   5.728   4.900   2.044  0.4412 -0.2236  0.0700
   30MOL   C73126889   5.671   4.926   1.792  0.1499 -0.7700  0.2943
   30MOL   C73226890   5.740   4.973   1.677  0.3613  0.3117 -0.1408
   30MOL   C73326891   5.676   5.053   1.587 -0.1425  0.1446 -0.1676
   30MOL   C73426892   5.539   5.084   1.597  0.2619 -0.3164 -0.9486
   30MOL   C73526893   5.467   5.034   1.700  0.6613 -0.6335 -0.4213
   30MOL   C73626894   5.532   4.955   1.804  0.1403 -0.5832  0.4955
   30MOL   O73726895   5.475   5.171   1.514  0.1630  0.2878 -0.3853
   30MOL   C73826896   5.409   5.125   1.403  0.5662  0.4657 -0.4586
   30MOL   C73926897   5.359   5.208   1.301 -0.3293  0.2781  0.9093
   30MOL   C74026898   5.290   5.151   1.193  0.2968  0.5814 -0.0597
   30MOL   C74126899   5.279   5.010   1.173 -0.3006  0.3685  0.8822
   30MOL   C74226900   5.322   4.926   1.277 -0.6833  0.3386 -0.1888
   30MOL   C74326901   5.392   4.982   1.385 -0.7224 -0.2703  0.2035
   30MOL   C74426902   5.219   4.952   1.052 -0.3988  0.2854  0.1103
   30MOL   C74526903   5.160   4.821   1.052  0.0268  0.0686  0.0125
   30MOL   C74626904   5.104   4.776   0.934  0.7565  0.4865  0.4331
   30MOL   C74726905   5.112   4.841   0.812  0.4280 -0.4283  0.4076
   30MOL   C74826906   5.185   4.956   0.795  0.3336  0.7278 -0.1081
   30MOL   C74926907   5.239   5.007   0.917 -0.6691 -0.0108  0.1383
   30MOL   O75026908   5.053   4.799   0.695  0.1046 -0.0266 -0.3099
   30MOL   H75126909   5.691   4.382   1.772 -3.9141  2.0130 -2.2222
   30MOL   H75226910   5.813   4.591   1.772 -0.5143 -0.7335 -1.4758
   30MOL   H75326911   5.548   4.735   2.071  1.7295  0.6375  1.3148
   30MOL   H75426912   5.432   4.518   2.085 -0.9589 -0.0588 -2.4062
   30MOL   H75526913   5.845   4.948   1.670  0.1254 -0.8756  0.3342
   30MOL   H75626914   5.724   5.078   1.493 -0.2442  0.4778 -0.1311
   30MOL   H75726915   5.366   5.070   1.692  0.3960 -1.4476 -0.7649
   30MOL   H75826916   5.469   4.915   1.882 -2.0064 -2.7545 -2.2840
   30MOL   H75926917   5.364   5.316   1.311  0.0484  0.4119 -0.5825
   30MOL   H76026918   5.260   5.228   1.123  0.7592  1.3033  0.5328
   30MOL   H76126919   5.307   4.819   1.272 -3.3620  0.6523  0.4234
   30MOL   H76226920   5.427   4.913   1.461  1.8216  2.1058  1.3003
   30MOL   H76326921   5.151   4.757   1.138 -1.3357  0.7585  0.4037
   30MOL   H76426922   5.047   4.685   0.945  1.2308 -0.2629 -2.8352
   30MOL   H76526923   5.204   5.006   0.702 -0.8683  0.2521 -0.6083
   30MOL   H76626924   5.291   5.101   0.918  1.5291 -1.1861 -1.0173
   30MOL   C76726925   4.931   4.748   0.714  0.3117 -0.1251 -0.3683
   30MOL   C76826926   4.821   4.827   0.696 -0.0321 -0.0745  0.4916
   30MOL   C76926927   4.692   4.780   0.708 -0.0632  0.2796 -0.1118
   30MOL   C77026928   4.674   4.638   0.729 -0.5568  0.5535 -0.7165
   30MOL   C77126929   4.786   4.554   0.746 -0.6287  0.6618  0.1771
   30MOL   C77226930   4.914   4.610   0.745 -0.5450 -0.0668  0.1561
   30MOL   S77326931   4.508   4.569   0.728  0.4571  0.3568 -0.2193
   30MOL   O77426932   4.488   4.516   0.593 -0.1498  0.6759 -0.2928
   30MOL   O77526933   4.423   4.677   0.774 -0.6747  0.4871  0.0086
   30MOL   C77626934   4.502   4.438   0.849  0.4464  0.1993  0.0702
   30MOL   C77726935   4.428   4.320   0.821  1.2045  0.8226 -0.6219
   30MOL   C77826936   4.413   4.222   0.921 -0.0098  0.0843  0.3181
   30MOL   C77926937   4.481   4.236   1.044 -0.7925  0.2748  0.0371
   30MOL   C78026938   4.562   4.355   1.063  0.1112 -0.4782 -0.1443
   30MOL   C78126939   4.568   4.459   0.970 -0.6496 -0.4548 -0.0545
   30MOL   O78226940   4.466   4.150   1.153 -0.5242  0.1429  0.1377
   30MOL   C78326941   4.524   4.028   1.162 -0.1712 -0.2114 -0.1829
   30MOL   C78426942   4.464   3.927   1.244 -0.2886  0.2220  1.1730
   30MOL   C78526943   4.497   3.788   1.243 -0.2885 -0.9726 -0.7841
   30MOL   C78626944   4.613   3.754   1.171  0.9470  0.1419 -0.3851
   30MOL   C78726945   4.678   3.856   1.099 -0.3526 -0.7544 -0.3229
   30MOL   C78826946   4.635   3.991   1.094 -0.3798  0.1986 -0.6340
   30MOL   C78926947   4.656   3.610   1.159 -0.0659  0.6204  0.5474
   30MOL   C79026948   4.596   3.507   1.242  0.0160  0.1708 -0.8199
   30MOL   C79126949   4.652   3.383   1.247  0.1248 -0.4999  0.0031
   30MOL   C79226950   4.757   3.347   1.159 -0.2830  0.1768 -0.4184
   30MOL   C79326951   4.812   3.446   1.067 -0.4943  0.0674  0.0814
   30MOL   C79426952   4.763   3.580   1.076 -0.4829  0.5044  0.2574
   30MOL   O79526953   4.801   3.214   1.167  0.1024  0.8623 -0.1891
   30MOL   H79626954   4.844   4.927   0.663  0.1905 -1.0423 -2.4419
   30MOL   H79726955   4.605   4.839   0.687 -0.9569 -0.6135  1.0209
   30MOL   H79826956   4.773   4.448   0.759  2.4959  0.2970  0.8359
   30MOL   H79926957   4.993   4.538   0.755 -0.1102  0.1569 -1.5105
   30MOL   H80026958   4.365   4.315   0.733  1.8349 -1.2154 -0.9628
   30MOL   H80126959   4.359   4.130   0.901 -0.1019  0.0576  0.6991
   30MOL   H80226960   4.608   4.372   1.159  2.7009  0.4392 -1.4984
   30MOL   H80326961   4.611   4.553   1.000  0.3085 -1.0845  0.5959
   30MOL   H80426962   4.377   3.956   1.302 -0.5255  4.8077 -1.1994
   30MOL   H80526963   4.431   3.714   1.285 -0.7576 -0.1003  0.0444
   30MOL   H80626964   4.765   3.830   1.041  0.7546 -1.2017  1.5050
   30MOL   H80726965   4.693   4.053   1.027 -0.3158  0.9976  0.1429
   30MOL   H80826966   4.519   3.527   1.315 -0.9645 -0.1953 -1.7454
   30MOL   H80926967   4.613   3.305   1.311  1.1883  0.3751  1.7540
   30MOL   H81026968   4.890   3.435   0.992 -1.1191  2.0596 -0.9006
   30MOL   H81126969   4.810   3.645   1.003  0.5312 -2.4493 -1.8251
   30MOL   C81226970   4.785   3.135   1.062  0.0613  0.4991 -0.4303
   30MOL   C81326971   4.887   3.132   0.964  0.6454  0.3819  0.5281
   30MOL   C81426972   4.877   3.043   0.857 -0.0849 -0.6766 -0.0949
   30MOL   C81526973   4.763   2.966   0.840  0.7321  0.2682 -0.0954
   30MOL   C81626974   4.658   2.980   0.935 -0.1075 -0.8027  0.3939
   30MOL   C81726975   4.665   3.066   1.045  0.3556  0.4302 -0.5492
   30MOL   S81826976   4.744   2.861   0.696  0.0418  0.1711  0.0986
   30MOL   O81926977   4.648   2.754   0.729 -0.8555  0.2778 -0.3564
   30MOL   O82026978   4.883   2.837   0.642  0.0355  0.3370 -0.3238
   30MOL   C82126979   4.656   2.962   0.583  0.6076  0.3433 -0.3050
   30MOL   C82226980   4.677   3.101   0.567  0.4436  0.1223 -0.2471
   30MOL   C82326981   4.606   3.176   0.465 -0.0185  0.6141 -0.0214
   30MOL   C82426982   4.520   3.104   0.382 -0.0517 -0.3019  0.0122
   30MOL   C82526983   4.510   2.964   0.388  0.3329  0.3659 -0.8053
   30MOL   C82626984   4.574   2.897   0.489  0.0345  0.9168 -0.4397
   30MOL   O82726985   4.454   3.169   0.281  0.3203 -0.6374  0.3389
   30MOL   C82826986   4.328   3.207   0.309  0.8076 -0.1328 -0.6703
   30MOL   C82926987   4.302   3.335   0.351 -0.2892 -0.1297  0.0316
   30MOL   C83026988   4.171   3.380   0.381 -0.6220 -0.5689  0.3375
   30MOL   C83126989   4.061   3.291   0.378  0.1049 -0.2969  0.6811
   30MOL   C83226990   4.090   3.158   0.329 -0.1582  0.9322 -0.3175
   30MOL   C83326991   4.221   3.121   0.295  0.3993  0.4506 -0.0087
   30MOL   C83426992   3.923   3.333   0.408 -0.4591  0.1160  0.1310
   30MOL   C83526993   3.902   3.431   0.512 -0.8144  0.2756  0.5962
   30MOL   C83626994   3.775   3.463   0.554  0.0367 -0.2476  0.8743
   30MOL   C83726995   3.669   3.404   0.489 -0.0840  0.1889  0.2583
   30MOL   C83826996   3.679   3.313   0.380 -0.6023 -0.0107  0.0583
   30MOL   C83926997   3.809   3.289   0.339  0.6003  0.1464 -0.6266
   30MOL   O84026998   3.542   3.442   0.534 -0.0981  0.4178  0.0239
   30MOL   H84126999   4.978   3.186   0.982  0.1459  0.7895  1.9175
   30MOL   H84227000   4.962   3.031   0.791  0.6519  0.7176  0.5934
   30MOL   H84327001   4.579   2.909   0.916  0.7549 -2.0483  1.3334
   30MOL   H84427002   4.585   3.072   1.117 -1.1052  0.3417 -2.1282
   30MOL   H84527003   4.752   3.151   0.627  0.0734 -0.1327  0.4326
   30MOL   H84627004   4.605   3.284   0.457  2.9510  0.7663  1.1269
   30MOL   H84727005   4.443   2.899   0.333 -2.1815  0.8766  1.4864
   30MOL   H84827006   4.557   2.790   0.490 -0.7902  1.0024  2.6032
   30MOL   H84927007   4.385   3.403   0.359 -0.4319  0.1425 -0.7498
   30MOL   H85027008   4.147   3.482   0.408 -0.5944 -0.4344 -0.1441
   30MOL   H85127009   4.012   3.084   0.315  2.5282 -1.8105 -1.4161
   30MOL   H85227010   4.244   3.025   0.250  0.0160  0.4554 -0.2133
   30MOL   H85327011   3.984   3.466   0.574 -0.7529 -1.1000  1.3051
   30MOL   H85427012   3.755   3.527   0.638  0.5430 -0.8270  1.4391
   30MOL   H85527013   3.587   3.279   0.335 -0.0463 -0.5185 -0.6880
   30MOL   H85627014   3.825   3.213   0.263  0.7619  0.3514 -0.7985
   30MOL   C85727015   3.500   3.571   0.524  0.7783 -0.0077  0.1706
   30MOL   C85827016   3.460   3.647   0.637  0.1268 -0.8194  0.6563
   30MOL   C85927017   3.436   3.788   0.621 -0.3664 -0.0485 -0.9556
   30MOL   C86027018   3.456   3.850   0.499  0.5315 -0.1223 -0.1233
   30MOL   C86127019   3.471   3.769   0.388  0.1385  0.2841 -0.0457
   30MOL   C86227020   3.497   3.631   0.398  0.0130  0.5913  0.3496
   30MOL   S86327021   3.422   4.026   0.481  0.3437 -0.1280  0.1129
   30MOL   O86427022   3.407   4.091   0.608 -0.0455 -0.1210 -0.6489
   30MOL   O86527023   3.306   4.031   0.390  0.3743 -0.3005 -0.0473
   30MOL   C86627024   3.564   4.099   0.404 -0.5777  0.1899 -0.0846
   30MOL   C86727025   3.656   4.158   0.485  0.9096 -0.7846 -0.2509
   30MOL   C86827026   3.759   4.238   0.427 -0.4548  0.2716  0.4668
   30MOL   C86927027   3.768   4.252   0.282  0.6316  0.8382  0.4753
   30MOL   C87027028   3.678   4.182   0.198  0.1704 -0.1219 -0.7174
   30MOL   C87127029   3.573   4.111   0.260  0.1384 -0.2514 -0.8363
   30MOL   O87227030   3.856   4.345   0.224 -0.2020 -0.3474 -0.1183
   30MOL   C87327031   3.829   4.476   0.241 -0.0515  0.0181  0.0603
   30MOL   C87427032   3.936   4.559   0.268  0.2877 -0.1480  0.2315
   30MOL   C87527033   3.921   4.700   0.285 -0.4769 -0.3990  0.3072
   30MOL   C87627034   3.794   4.759   0.273  0.0179 -0.3478  0.0568
   30MOL   C87727035   3.685   4.672   0.238 -0.2243  0.0841 -0.5670
   30MOL   C87827036   3.702   4.533   0.221  0.1227  0.4158  0.0613
   30MOL   C87927037   3.773   4.903   0.292 -0.9682 -0.2801 -1.1878
   30MOL   C88027038   3.650   4.954   0.340  0.3211 -0.7000  0.0074
   30MOL   C88127039   3.616   5.091   0.344 -0.8820 -0.1898  0.0488
   30MOL   C88227040   3.715   5.182   0.306  0.1509  0.0867  0.6877
   30MOL   C88327041   3.844   5.141   0.261  0.2875 -0.0541  0.6511
   30MOL   C88427042   3.868   5.005   0.259  0.5903  0.8054 -0.5036
   30MOL   O88527043   3.693   5.315   0.314 -0.1914 -0.1974  0.0229
   30MOL   H88627044   3.445   3.607   0.736 -0.8828 -0.3021  0.7240
   30MOL   H88727045   3.422   3.852   0.707 -1.7825  0.4505 -1.5460
   30MOL   H88827046   3.473   3.812   0.289 -0.3072  0.7367  0.1425
   30MOL   H88927047   3.516   3.575   0.308 -0.8306  1.3414 -0.2913
   30MOL   H89027048   3.644   4.170   0.592  0.7680 -2.2198 -0.0952
   30MOL   H89127049   3.813   4.306   0.491  0.3026  1.3341 -1.2606
   30MOL   H89227050   3.692   4.184   0.091  0.1058 -2.5096 -0.8079
   30MOL   H89327051   3.497   4.073   0.194  0.0976 -2.1484  0.2737
   30MOL   H89427052   4.036   4.519   0.278 -0.0348 -1.1659 -0.4864
   30MOL   H89527053   4.009   4.762   0.296 -0.4974 -0.4354  0.7074
   30MOL   H89627054   3.585   4.708   0.221 -0.7613  0.5347  3.0868
   30MOL   H89727055   3.620   4.468   0.196  0.6859 -0.7350  1.2156
   30MOL   H89827056   3.574   4.883   0.364  0.9781 -1.3179  0.2762
   30MOL   H89927057   3.520   5.120   0.384 -1.7652  0.8245 -2.6988
   30MOL   H90027058   3.916   5.215   0.230  2.4207 -3.0556 -1.7886
   30MOL   H90127059   3.964   4.974   0.222  1.5687  1.8127  1.1564
   30MOL   H90227060   3.604   5.345   0.304  0.2577  1.3968  0.6520
   31MOL     C127061   5.463   7.996   4.190  0.1008  0.4552 -0.0052
   31MOL     C227062   5.589   7.971   4.128 -0.4768  0.9137 -0.1719
   31MOL     C327063   5.634   8.056   4.027 -0.3117 -0.4701  0.3600
   31MOL     C427064   5.559   8.172   3.997  0.4705  0.6454  0.2361
   31MOL     C527065   5.439   8.200   4.069 -0.0594  0.1633 -0.4647
   31MOL     C627066   5.382   8.102   4.152  0.0706 -0.1446 -0.3340
   31MOL     S727067   5.607   8.269   3.856  0.1072 -0.0811  0.2174
   31MOL     O827068   5.548   8.205   3.741  0.3097 -0.3254  0.3016
   31MOL     O927069   5.755   8.276   3.862 -0.3558 -0.0654 -0.1746
   31MOL    C1027070   5.535   0.062   3.885  0.6838  0.0042  0.0660
   31MOL    C1127071   5.396   0.091   3.870  0.4273 -0.5129 -0.3691
   31MOL    C1227072   5.345   0.213   3.917  0.1466  0.3150  0.7991
   31MOL    C1327073   5.431   0.315   3.973  0.2359 -0.4014  0.2899
   31MOL    C1427074   5.567   0.281   3.977 -0.3082 -0.1988  0.2600
   31MOL    C1527075   5.619   0.163   3.936  0.4473  0.7120 -1.3030
   31MOL    O1627076   5.385   0.435   4.008  0.1769 -0.2697 -0.5173
   31MOL    C1727077   5.358   0.456   4.145 -0.7164 -0.6405  0.6456
   31MOL    C1827078   5.229   0.470   4.193  0.6599 -0.4858 -0.3229
   31MOL    C1927079   5.203   0.468   4.330  0.2307 -0.2192 -0.1307
   31MOL    C2027080   5.314   0.460   4.414  0.0720  0.0398 -0.3223
   31MOL    C2127081   5.446   0.457   4.365  0.1518 -0.1924 -0.3093
   31MOL    C2227082   5.476   0.460   4.226  0.7011 -0.4323 -0.0946
   31MOL    C2327083   5.294   0.473   4.563  0.1018  0.4741  0.5157
   31MOL    C2427084   5.359   0.382   4.645 -0.4084  0.0074  0.1077
   31MOL    C2527085   5.346   0.399   4.781 -0.2586 -0.7265 -0.1246
   31MOL    C2627086   5.280   0.515   4.837  1.0289 -0.7134 -0.3987
   31MOL    C2727087   5.207   0.598   4.751  0.3903 -0.0002 -0.1994
   31MOL    C2827088   5.217   0.580   4.617 -0.9109 -0.1332  0.1838
   31MOL    O2927089   5.283   0.530   4.973 -0.0852 -0.4653 -0.7331
   31MOL    H3027090   5.631   7.876   4.156 -1.6006 -0.7370 -3.7984
   31MOL    H3127091   5.714   8.024   3.962 -1.5140  1.0165 -1.9139
   31MOL    H3227092   5.373   8.280   4.039 -1.1781 -0.0888  1.2392
   31MOL    H3327093   5.282   8.118   4.189 -0.2409 -1.3950 -0.6087
   31MOL    H3427094   5.324   0.014   3.845 -1.6108  1.1195  0.2955
   31MOL    H3527095   5.238   0.223   3.925  0.2038  0.8933  0.8027
   31MOL    H3627096   5.636   0.358   4.012 -0.7725 -0.5822  2.0702
   31MOL    H3727097   5.724   0.137   3.945  0.6129  1.5248 -0.8823
   31MOL    H3827098   5.145   0.477   4.126  0.7250 -2.0012 -0.5797
   31MOL    H3927099   5.108   0.475   4.380  2.2657 -0.0188  3.8836
   31MOL    H4027100   5.529   0.446   4.432  0.0414 -1.7665 -0.4157
   31MOL    H4127101   5.581   0.463   4.202  0.5424  4.3756 -0.6090
   31MOL    H4227102   5.416   0.303   4.598  3.2677  2.9476 -0.6109
   31MOL    H4327103   5.402   0.329   4.841  1.4369  1.9165  1.4906
   31MOL    H4427104   5.157   0.685   4.790 -0.6886 -0.3804 -0.7147
   31MOL    H4527105   5.165   0.639   4.542 -0.6964 -1.9088 -1.4036
   31MOL    H4627106   5.427   7.925   4.263  0.8415 -2.5913 -2.4568
   31MOL    C4727107   5.347   0.647   5.013 -0.4233 -0.5423  0.0803
   31MOL    C4827108   5.483   0.675   4.984  0.2267 -0.0578 -0.7345
   31MOL    C4927109   5.537   0.799   5.031  0.2169 -0.3881  0.9383
   31MOL    C5027110   5.452   0.899   5.087  0.1043  0.3894 -0.2628
   31MOL    C5127111   5.319   0.866   5.112 -0.5405 -0.2590  0.5184
   31MOL    C5227112   5.264   0.744   5.071 -0.7938  0.9246 -0.5162
   31MOL    S5327113   5.511   1.064   5.077  0.1368 -0.0360 -0.1737
   31MOL    O5427114   5.420   1.144   4.995 -0.0267 -0.1073  0.5180
   31MOL    O5527115   5.654   1.049   5.038  0.1033 -0.0894  0.4684
   31MOL    C5627116   5.506   1.136   5.248  0.0419  0.1755 -0.0715
   31MOL    C5727117   5.527   1.276   5.255 -0.0586  0.5573  0.0362
   31MOL    C5827118   5.530   1.331   5.385  0.2342 -0.0794  0.4256
   31MOL    C5927119   5.503   1.259   5.504  0.7132 -0.6236  0.6947
   31MOL    C6027120   5.460   1.126   5.486 -0.8087  0.7726 -0.1523
   31MOL    C6127121   5.466   1.061   5.361  0.0969 -0.0574  0.7401
   31MOL    O6227122   5.491   1.329   5.620 -0.5134  0.6426 -0.6095
   31MOL    C6327123   5.469   1.262   5.740  0.2880  0.9310 -0.1925
   31MOL    C6427124   5.576   1.211   5.818  0.0511  0.6863  0.1331
   31MOL    C6527125   5.556   1.149   5.942  0.8517  0.3499  0.1084
   31MOL    C6627126   5.427   1.134   5.997 -0.4801 -0.5508 -0.5163
   31MOL    C6727127   5.319   1.185   5.918 -0.2528 -0.1413  0.7755
   31MOL    C6827128   5.336   1.248   5.795 -0.5368  0.1015 -0.7614
   31MOL    C6927129   5.408   1.072   6.128  0.6771  0.4409 -0.2833
   31MOL    C7027130   5.321   0.965   6.152 -0.2318  0.5642 -0.3320
   31MOL    C7127131   5.302   0.918   6.286 -0.4654 -0.2394  0.0678
   31MOL    C7227132   5.369   0.975   6.388  0.0357  0.6570 -0.0726
   31MOL    C7327133   5.461   1.073   6.367 -1.2037 -0.1554 -0.4929
   31MOL    C7427134   5.485   1.120   6.236  0.3482  0.4326 -0.7285
   31MOL    O7527135   5.345   0.925   6.513  0.6854 -0.0782 -0.1188
   31MOL    H7627136   5.547   0.600   4.941  0.8564  1.1339 -1.9156
   31MOL    H7727137   5.642   0.819   5.020  0.8538 -2.0390  3.3617
   31MOL    H7827138   5.253   0.948   5.136 -1.1753 -0.5200 -0.3459
   31MOL    H7927139   5.160   0.728   5.095 -0.8941  0.2132 -1.3787
   31MOL    H8027140   5.525   1.342   5.169  1.5604  1.0704  0.3655
   31MOL    H8127141   5.553   1.436   5.393  1.4280 -0.4803  2.4513
   31MOL    H8227142   5.427   1.062   5.567 -1.7219 -0.0854 -1.1850
   31MOL    H8327143   5.429   0.960   5.348 -1.9056  0.5887  1.1399
   31MOL    H8427144   5.675   1.227   5.778  0.6520 -0.0310  1.2936
   31MOL    H8527145   5.640   1.110   5.998  0.8487 -1.1048 -0.8671
   31MOL    H8627146   5.216   1.172   5.946  0.1895 -0.6776  2.1582
   31MOL    H8727147   5.251   1.285   5.740 -0.8492 -2.3464 -1.9996
   31MOL    H8827148   5.273   0.921   6.066  0.5535 -0.4402 -0.2665
   31MOL    H8927149   5.230   0.839   6.295  0.1299 -0.8502 -0.4069
   31MOL    H9027150   5.515   1.110   6.453 -0.8668 -2.4742  0.3336
   31MOL    H9127151   5.560   1.196   6.221  2.7002 -1.8741 -1.0604
   31MOL    C9227152   5.447   0.896   6.602  0.5221  0.4835  0.4654
   31MOL    C9327153   5.547   0.808   6.556  0.1577  0.5446 -0.8842
   31MOL    C9427154   5.662   0.782   6.637 -0.3359  0.4876 -0.6088
   31MOL    C9527155   5.660   0.819   6.776 -0.3338 -0.5050  0.0925
   31MOL    C9627156   5.553   0.900   6.821 -0.9068 -0.2197 -0.2797
   31MOL    C9727157   5.451   0.941   6.733  0.7181 -0.3942  0.1249
   31MOL    S9827158   5.802   0.782   6.881  0.1399 -0.4882 -0.1354
   31MOL    O9927159   5.913   0.728   6.808  0.0623  0.1759  0.2827
   31MOL   O10027160   5.748   0.698   6.991 -1.0119  0.1322  0.1769
   31MOL   C10127161   5.863   0.929   6.957 -0.3440 -0.5713  0.7115
   31MOL   C10227162   5.878   1.051   6.886  0.0970  0.2406 -0.0520
   31MOL   C10327163   5.915   1.166   6.963  0.2333 -0.2211  0.0495
   31MOL   C10427164   5.952   1.161   7.095 -0.5755 -0.2438  0.3918
   31MOL   C10527165   5.958   1.035   7.156  0.2540  0.2033 -0.1667
   31MOL   C10627166   5.907   0.921   7.092  0.5746 -0.1349  0.1100
   31MOL   O10727167   5.989   1.271   7.166 -0.1567  0.1356 -0.3892
   31MOL   C10827168   6.117   1.314   7.158 -1.1370  0.5221  0.7404
   31MOL   C10927169   6.158   1.432   7.101 -0.3862 -0.5790  0.3632
   31MOL   C11027170   6.295   1.463   7.097 -0.3920  0.3039  0.3913
   31MOL   C11127171   6.395   1.374   7.135 -0.4760 -0.8750 -0.0297
   31MOL   C11227172   6.348   1.255   7.206 -0.5458 -0.5915  0.1309
   31MOL   C11327173   6.216   1.229   7.214 -0.2061  0.0569 -0.4017
   31MOL   C11427174   6.536   1.396   7.104 -0.3678  0.0961  0.3021
   31MOL   C11527175   6.583   1.445   6.978 -0.5476  0.2984  0.3855
   31MOL   C11627176   6.719   1.462   6.963  0.6599 -0.2933 -0.5509
   31MOL   C11727177   6.809   1.436   7.059 -0.1109  0.4215 -0.3477
   31MOL   C11827178   6.764   1.395   7.180  0.3739 -0.1520 -0.3231
   31MOL   C11927179   6.626   1.381   7.209 -0.0035  0.1177 -0.1471
   31MOL   O12027180   6.949   1.440   7.041  0.3432  0.5703 -0.8758
   31MOL   H12127181   5.529   0.773   6.456  0.9537  0.4118 -0.9898
   31MOL   H12227182   5.743   0.723   6.596 -1.3477 -2.2061  1.1732
   31MOL   H12327183   5.557   0.940   6.921  1.9399 -1.0136 -0.0236
   31MOL   H12427184   5.376   1.007   6.773  0.3217 -0.5282 -0.3854
   31MOL   H12527185   5.845   1.056   6.783 -0.3956 -0.2378  0.0829
   31MOL   H12627186   5.914   1.263   6.915 -2.8466 -1.0275 -1.6363
   31MOL   H12727187   5.988   1.024   7.259 -0.6490 -2.9007 -0.1778
   31MOL   H12827188   5.894   0.832   7.150  1.3264 -0.4102 -0.1306
   31MOL   H12927189   6.085   1.496   7.055  0.0678  2.6142  3.8175
   31MOL   H13027190   6.310   1.559   7.049  2.3301  0.0797  0.7402
   31MOL   H13127191   6.415   1.183   7.252 -0.8429  0.0648  1.6132
   31MOL   H13227192   6.176   1.139   7.258 -1.8981 -0.2865 -2.5735
   31MOL   H13327193   6.515   1.464   6.896  0.6428  1.1861 -0.4189
   31MOL   H13427194   6.762   1.498   6.871  2.9041 -1.7381 -0.1135
   31MOL   H13527195   6.838   1.373   7.255  0.9056 -1.1898 -1.1176
   31MOL   H13627196   6.580   1.351   7.302 -0.3254  1.0051 -0.0136
   31MOL   C13727197   7.011   1.371   6.941 -0.1119 -0.3555  0.6261
   31MOL   C13827198   7.151   1.385   6.933  0.0382 -0.4855 -0.4415
   31MOL   C13927199   7.226   1.338   6.824 -0.2602  0.2329 -0.3165
   31MOL   C14027200   7.160   1.274   6.713  0.4104  0.3161  0.0216
   31MOL   C14127201   7.022   1.248   6.724  0.2497  0.1710 -0.4094
   31MOL   C14227202   6.950   1.297   6.835  0.3910  0.5021 -0.3601
   31MOL   S14327203   7.253   1.204   6.577  0.1401 -0.7571  0.1147
   31MOL   O14427204   7.177   1.108   6.505  0.0623  0.5508 -0.2455
   31MOL   O14527205   7.384   1.165   6.635  0.2338  0.0897 -0.3410
   31MOL   C14627206   7.281   1.332   6.465  0.0735 -0.5066 -0.0867
   31MOL   C14727207   7.196   1.446   6.460 -0.7057  1.6696  0.6102
   31MOL   C14827208   7.225   1.539   6.361  0.5070  0.1535  0.4325
   31MOL   C14927209   7.337   1.529   6.280 -0.3898  0.5441 -0.3192
   31MOL   C15027210   7.422   1.415   6.286 -0.5048  0.7469  0.1249
   31MOL   C15127211   7.389   1.312   6.380 -0.0748  0.3789 -0.6188
   31MOL   O15227212   7.362   1.628   6.192 -0.1801 -0.1676  0.1459
   31MOL   C15327213   7.480   1.701   6.208  0.5694 -0.1969 -0.3104
   31MOL   C15427214   7.527   1.760   6.329  0.4504  0.3665  0.1029
   31MOL   C15527215   7.652   1.827   6.328  0.0092 -0.2166 -0.3605
   31MOL   C15627216   7.736   1.826   6.212  0.1852  0.8682  0.5513
   31MOL   C15727217   7.689   1.768   6.095 -0.1206  0.3165 -0.2493
   31MOL   C15827218   7.560   1.711   6.095 -0.1910 -0.2094  0.0338
   31MOL   C15927219   7.872   1.861   6.219 -0.0316 -0.8487  0.2509
   31MOL   C16027220   7.959   1.801   6.311 -0.2194 -0.8204 -0.1886
   31MOL   C16127221   8.098   1.828   6.307 -0.0442 -0.2093 -0.5405
   31MOL   C16227222   8.151   1.924   6.215  0.0682 -0.0224  0.0837
   31MOL   C16327223   8.068   1.990   6.125 -0.1558 -0.3927  0.0161
   31MOL   C16427224   7.931   1.958   6.127  0.5571  0.4629 -0.2363
   31MOL   O16527225   8.287   1.948   6.220 -0.0090 -0.3085 -0.0724
   31MOL   H16627226   7.202   1.436   7.013  1.2723  0.8523 -2.0473
   31MOL   H16727227   7.334   1.344   6.830 -0.1795 -1.7392  0.6392
   31MOL   H16827228   6.978   1.188   6.646  0.4947  0.8196 -1.0442
   31MOL   H16927229   6.843   1.283   6.836  0.1338  2.4550  0.8498
   31MOL   H17027230   7.113   1.460   6.528 -1.3652  0.3154  0.1102
   31MOL   H17127231   7.168   1.631   6.354 -0.5102 -0.5698 -1.0114
   31MOL   H17227232   7.494   1.404   6.207  1.7434  1.1312  2.0837
   31MOL   H17327233   7.440   1.217   6.372 -1.6880 -0.6462  0.7903
   31MOL   H17427234   7.464   1.751   6.417 -4.7888  2.8597 -3.1587
   31MOL   H17527235   7.690   1.871   6.419  0.2193  1.7520 -1.3722
   31MOL   H17627236   7.756   1.766   6.010 -0.3762 -2.6359 -0.4298
   31MOL   H17727237   7.526   1.672   6.000 -0.3683 -1.4334  0.5838
   31MOL   H17827238   7.917   1.733   6.384 -0.1904  0.0858  0.6745
   31MOL   H17927239   8.168   1.783   6.376  0.2277 -0.5834 -1.0612
   31MOL   H18027240   8.112   2.060   6.055 -1.7985  1.0371  0.4046
   31MOL   H18127241   7.867   2.011   6.057 -1.0350 -0.5768  0.3861
   31MOL   C18227242   8.364   1.859   6.159  0.2710  0.1419  0.1390
   31MOL   C18327243   0.012   1.864   6.020  0.0171 -0.0373 -0.2313
   31MOL   C18427244   0.108   1.780   5.959  0.5093 -0.2493 -0.3925
   31MOL   C18527245   0.196   1.698   6.036 -0.2754 -0.1522  0.5048
   31MOL   C18627246   0.178   1.687   6.179 -0.7102 -0.0623 -0.3298
   31MOL   C18727247   0.074   1.768   6.237  0.1884 -1.0433  0.5494
   31MOL   S18827248   0.323   1.600   5.954  0.2753  0.0459 -0.2260
   31MOL   O18927249   0.302   1.454   5.979 -0.4559 -0.4331  0.7475
   31MOL   O19027250   0.453   1.660   5.987 -0.2592 -0.5641 -0.3110
   31MOL   C19127251   0.294   1.622   5.780  0.1510  0.0622  0.1484
   31MOL   C19227252   0.360   1.729   5.718  0.1060  0.0087 -0.0404
   31MOL   C19327253   0.338   1.762   5.584  0.0987 -0.0755 -0.6229
   31MOL   C19427254   0.242   1.682   5.508  0.3139 -0.7219  0.5224
   31MOL   C19527255   0.167   1.579   5.570 -0.0288  0.3271  0.8131
   31MOL   C19627256   0.200   1.538   5.701 -0.8159  0.2959  0.1829
   31MOL   O19727257   0.223   1.711   5.375 -0.0330  0.0149  0.1957
   31MOL   C19827258   0.244   1.839   5.329 -0.5625  0.3480 -0.4455
   31MOL   C19927259   0.365   1.877   5.266  0.1280  0.0379  0.0118
   31MOL   C20027260   0.377   2.009   5.214 -0.6040  0.4552  0.3685
   31MOL   C20127261   0.277   2.103   5.233 -0.2697 -0.4251  0.2776
   31MOL   C20227262   0.160   2.062   5.303  0.2044  0.7142  1.0354
   31MOL   C20327263   0.140   1.931   5.351 -0.0410 -0.6103  0.4403
   31MOL   C20427264   0.306   2.241   5.193 -0.3251  0.0240  0.1526
   31MOL   C20527265   0.397   2.272   5.088 -0.3243  0.4959  0.4699
   31MOL   C20627266   0.442   2.405   5.063 -0.0293 -0.6025  0.1305
   31MOL   C20727267   0.385   2.509   5.140 -0.7854 -0.0601  0.5059
   31MOL   C20827268   0.284   2.476   5.232  0.0246  0.4306 -1.1518
   31MOL   C20927269   0.243   2.347   5.260  0.3282  0.6540  0.0255
   31MOL   O21027270   0.437   2.638   5.139 -0.1430 -0.9928 -0.0970
   31MOL   H21127271   8.323   1.943   5.971 -1.9120 -0.4829  1.1384
   31MOL   H21227272   0.124   1.785   5.853  0.1348 -0.0992 -0.4432
   31MOL   H21327273   0.241   1.617   6.231  1.8780  0.5593 -2.5389
   31MOL   H21427274   0.054   1.763   6.343  1.2456 -0.2578  0.7997
   31MOL   H21527275   0.428   1.780   5.784 -1.1826  0.5760  0.8868
   31MOL   H21627276   0.399   1.838   5.537 -1.4012 -0.4500 -3.3215
   31MOL   H21727277   0.099   1.514   5.516  0.3748 -1.0550  1.9367
   31MOL   H21827278   0.146   1.462   5.754 -0.0878  0.5627  1.3335
   31MOL   H21927279   0.447   1.808   5.255 -1.2853 -1.5505 -0.8917
   31MOL   H22027280   0.467   2.030   5.158 -0.3506  1.2470  1.0732
   31MOL   H22127281   0.079   2.130   5.325 -2.7449 -1.5780 -2.1374
   31MOL   H22227282   0.044   1.909   5.396 -0.0608 -1.0863  0.1683
   31MOL   H22327283   0.435   2.196   5.022  1.0652  0.6264  1.1076
   31MOL   H22427284   0.516   2.427   4.987 -2.6663  1.2660 -2.0056
   31MOL   H22527285   0.243   2.553   5.295  0.1672  0.0489 -0.5920
   31MOL   H22627286   0.182   2.331   5.348  3.2757 -0.0845  2.0201
   31MOL   C22727287   0.357   2.750   5.151  0.3146  0.4841 -0.0281
   31MOL   C22827288   0.260   2.776   5.057 -0.4755 -0.0599  0.6591
   31MOL   C22927289   0.163   2.879   5.078  0.0074 -0.1236 -0.0889
   31MOL   C23027290   0.173   2.963   5.189  0.9188 -0.4035  0.3201
   31MOL   C23127291   0.281   2.945   5.276 -0.0441  0.1257  0.2367
   31MOL   C23227292   0.368   2.834   5.259 -0.1186 -0.6958 -0.3380
   31MOL   S23327293   0.055   3.096   5.216 -0.2749  0.1334  0.1303
   31MOL   O23427294   8.334   3.054   5.324 -0.0324 -0.6549 -0.5954
   31MOL   O23527295   0.002   3.132   5.083 -0.5931  0.3823  0.3116
   31MOL   C23627296   0.149   3.240   5.276 -0.2420  0.7269  0.1053
   31MOL   C23727297   0.275   3.273   5.219  0.8321 -0.6558 -0.2253
   31MOL   C23827298   0.350   3.381   5.273 -0.0203  0.5370 -0.0424
   31MOL   C23927299   0.304   3.447   5.389 -0.2467  0.0710  0.4706
   31MOL   C24027300   0.180   3.415   5.444 -0.0467  0.0967 -0.5432
   31MOL   C24127301   0.097   3.314   5.386  0.0641 -0.1030 -0.2879
   31MOL   O24227302   0.390   3.528   5.456 -0.4800 -0.5893 -0.1851
   31MOL   C24327303   0.462   3.466   5.558  0.0280 -0.2985 -0.5594
   31MOL   C24427304   0.488   3.540   5.675  0.8527  0.5817  0.4993
   31MOL   C24527305   0.575   3.489   5.773 -0.0487 -0.4375  0.5113
   31MOL   C24627306   0.652   3.377   5.753 -0.1273 -0.3273  0.6859
   31MOL   C24727307   0.629   3.299   5.635  0.4907  0.0718  0.1672
   31MOL   C24827308   0.528   3.340   5.542  0.2360  0.0761  0.4587
   31MOL   C24927309   0.761   3.342   5.849 -0.5806  0.5873  0.2271
   31MOL   C25027310   0.774   3.209   5.890  0.3590 -0.7829  0.3763
   31MOL   C25127311   0.874   3.168   5.984  0.4872  0.7389 -0.1578
   31MOL   C25227312   0.973   3.257   6.025 -0.5690  0.5544  0.3028
   31MOL   C25327313   0.959   3.394   5.988  0.2364  0.2121 -0.9153
   31MOL   C25427314   0.856   3.434   5.898  0.3855 -0.5921 -0.1189
   31MOL   O25527315   1.075   3.214   6.098  0.3919 -0.3782 -0.2096
   31MOL   H25627316   0.257   2.703   4.977 -3.8556  2.2305 -1.4385
   31MOL   H25727317   0.073   2.894   5.020 -0.1274 -2.2716 -0.5028
   31MOL   H25827318   0.277   3.011   5.361  3.6139  1.5626 -0.5759
   31MOL   H25927319   0.436   2.802   5.336  0.8718 -1.1698 -1.3967
   31MOL   H26027320   0.312   3.218   5.134  0.6565  0.8375 -1.2961
   31MOL   H26127321   0.448   3.413   5.241 -0.1896  2.0023  0.8447
   31MOL   H26227322   0.140   3.475   5.524 -0.6203 -0.0755 -0.6932
   31MOL   H26327323   0.002   3.285   5.429  0.1360 -0.8247 -0.6125
   31MOL   H26427324   0.451   3.641   5.678 -0.0350  0.2253  2.7314
   31MOL   H26527325   0.594   3.565   5.847 -1.3143  0.0612  0.3261
   31MOL   H26627326   0.687   3.210   5.619 -1.4308 -1.0957 -0.4297
   31MOL   H26727327   0.515   3.282   5.453  3.2223 -1.4446  0.9571
   31MOL   H26827328   0.698   3.145   5.849 -0.8705 -0.4528  2.0883
   31MOL   H26927329   0.885   3.065   6.016  0.8810  0.7624 -0.2100
   31MOL   H27027330   1.042   3.461   6.002  1.2682 -0.8498 -1.8990
   31MOL   H27127331   0.848   3.539   5.871  1.9212 -0.2336  0.7386
   31MOL   C27227332   1.053   3.150   6.224 -0.2056  0.0434 -0.0187
   31MOL   C27327333   1.048   3.218   6.345  1.0588 -0.3282  0.2709
   31MOL   C27427334   1.036   3.154   6.465 -0.5901  0.0711  0.5786
   31MOL   C27527335   1.042   3.012   6.467  0.3836  0.1470 -0.2432
   31MOL   C27627336   1.051   2.940   6.349 -0.4928 -0.1250  0.5831
   31MOL   C27727337   1.053   3.007   6.224  0.8211 -0.8808 -0.3352
   31MOL   S27827338   1.053   2.928   6.635  0.2110 -0.2128  0.0044
   31MOL   O27927339   1.139   2.808   6.615 -0.3500  0.6245  0.0505
   31MOL   O28027340   0.910   2.908   6.677 -0.4887 -0.1661 -0.1484
   31MOL   C28127341   1.130   3.048   6.743  0.1656 -0.3434 -0.1516
   31MOL   C28227342   1.256   3.094   6.714 -0.3609  0.0419  0.3787
   31MOL   C28327343   1.316   3.174   6.812  0.1869 -0.5087 -0.3943
   31MOL   C28427344   1.248   3.216   6.930  0.4548  0.6219  0.9872
   31MOL   C28527345   1.111   3.175   6.948  0.6352  0.2002  0.2543
   31MOL   C28627346   1.059   3.084   6.858  0.1699  1.2351 -0.2312
   31MOL   O28727347   1.315   3.284   7.021  0.1526  0.0548  0.3580
   31MOL   C28827348   1.328   3.238   7.150  0.8212 -0.1728 -0.6751
   31MOL   C28927349   1.326   3.332   7.251 -0.0932  0.2710 -0.2397
   31MOL   C29027350   1.354   3.289   7.385  0.0477 -0.4134 -0.5867
   31MOL   C29127351   1.373   3.153   7.421 -0.5613  0.2576 -0.3999
   31MOL   C29227352   1.369   3.055   7.318 -0.5690  0.0484  0.2131
   31MOL   C29327353   1.349   3.104   7.187  0.1231  0.1979  0.5018
   31MOL   C29427354   1.406   3.114   7.562  0.2053  0.0989 -0.3645
   31MOL   C29527355   1.337   3.007   7.626  0.2376 -0.3111 -0.1722
   31MOL   C29627356   1.356   2.974   7.760 -0.3713 -0.6824  0.6842
   31MOL   C29727357   1.452   3.044   7.832 -0.2868  0.3138  0.3204
   31MOL   C29827358   1.523   3.145   7.770  0.1259  0.0015  0.0819
   31MOL   C29927359   1.500   3.184   7.636  0.4875 -0.3171 -1.0398
   31MOL   O30027360   1.467   3.022   7.968 -0.6328 -0.5974  0.1549
   31MOL   H30127361   1.051   3.326   6.338 -0.1556 -0.4431 -3.0207
   31MOL   H30227362   1.018   3.211   6.556 -1.2771  1.6324 -0.5091
   31MOL   H30327363   1.051   2.832   6.363  0.5478 -0.1924  0.1111
   31MOL   H30427364   1.056   2.960   6.126 -2.2512  1.9191 -1.8799
   31MOL   H30527365   1.307   3.057   6.626 -0.3271 -2.4963  1.4414
   31MOL   H30627366   1.421   3.191   6.792 -0.0400  1.4636  0.0236
   31MOL   H30727367   1.058   3.191   7.041  0.9843  0.7391  0.3609
   31MOL   H30827368   0.959   3.045   6.869 -0.0970  1.6207 -1.2491
   31MOL   H30927369   1.334   3.438   7.234  0.9552  0.0765 -0.9269
   31MOL   H31027370   1.355   3.359   7.467 -1.6299 -0.8210 -0.2067
   31MOL   H31127371   1.375   2.949   7.338 -2.3554  0.1461  1.3615
   31MOL   H31227372   1.333   3.031   7.109  2.5758 -0.4998  0.6204
   31MOL   H31327373   1.249   2.969   7.576  0.6210 -0.2098 -0.9461
   31MOL   H31427374   1.296   2.901   7.811 -3.3303  1.3868  0.2839
   31MOL   H31527375   1.594   3.202   7.827 -2.1708  3.3527 -0.2784
   31MOL   H31627376   1.554   3.264   7.588  1.0929  0.1812  0.4479
   31MOL   C31727377   1.569   2.933   8.004 -0.1569  0.3159  0.0107
   31MOL   C31827378   1.532   2.803   8.046 -0.0501  0.4404 -0.1260
   31MOL   C31927379   1.627   2.708   8.086 -0.5021  0.1163 -0.0947
   31MOL   C32027380   1.762   2.751   8.091 -0.8597 -0.0624  0.0874
   31MOL   C32127381   1.803   2.873   8.038  0.4078 -0.0261 -0.8873
   31MOL   C32227382   1.706   2.963   7.996  0.8226  0.2467  0.1325
   31MOL   S32327383   1.892   2.643   8.155 -0.5926  0.1120 -0.0917
   31MOL   O32427384   2.008   2.647   8.058 -0.3810 -0.4215 -0.4300
   31MOL   O32527385   1.836   2.512   8.189  0.1826  0.3169  0.2485
   31MOL   C32627386   1.948   2.724   8.304 -0.9312  0.5754  1.0323
   31MOL   C32727387   2.041   2.831   8.292 -0.3759 -0.8579 -0.3983
   31MOL   C32827388   2.083   2.911   0.036 -0.2364  0.1430 -0.1211
   31MOL   C32927389   2.012   2.889   0.160  0.1647 -0.2673 -0.1064
   31MOL   C33027390   1.919   2.782   0.172 -0.1944 -0.9754 -0.5452
   31MOL   C33127391   1.888   2.700   0.058 -0.0634 -0.2794  0.1315
   31MOL   O33227392   2.027   2.978   0.265 -0.4333  0.3479 -0.2179
   31MOL   C33327393   2.149   2.988   0.316  0.0726 -0.0898 -0.9423
   31MOL   C33427394   2.230   3.097   0.284  0.3397 -0.0363  0.0091
   31MOL   C33527395   2.353   3.113   0.346 -0.2886  0.0477  0.0586
   31MOL   C33627396   2.413   3.013   0.423  0.1952  0.1923  0.4585
   31MOL   C33727397   2.334   2.899   0.452  0.6677 -0.3376  0.1205
   31MOL   C33827398   2.198   2.887   0.402  0.2539  0.5130  0.7383
   31MOL   C33927399   2.548   3.036   0.475  0.5740  0.2079 -0.1827
   31MOL   C34027400   2.653   3.097   0.405 -1.0683 -0.9814  0.2399
   31MOL   C34127401   2.783   3.097   0.459 -0.2759 -0.8785  0.1989
   31MOL   C34227402   2.814   3.039   0.583 -0.9954  0.5060  0.4933
   31MOL   C34327403   2.709   2.981   0.661  0.0863 -0.1789  0.2498
   31MOL   C34427404   2.576   2.980   0.604 -0.2578  0.6134  0.3157
   31MOL   O34527405   2.937   3.049   0.639 -0.8488 -0.1708 -0.2738
   31MOL   H34627406   1.427   2.775   8.041 -1.0712  3.5587  2.4824
   31MOL   H34727407   1.606   2.605   8.109  0.6571 -0.2332 -0.5528
   31MOL   H34827408   1.907   2.900   8.033 -0.0768  2.2981  0.7111
   31MOL   H34927409   1.739   3.060   7.962 -1.2589  0.2065 -2.1730
   31MOL   H35027410   2.085   2.860   8.198  1.5319 -1.4103  0.2938
   31MOL   H35127411   2.141   2.999   0.014  0.1624  1.0756  4.1750
   31MOL   H35227412   1.864   2.750   0.260 -0.3943 -1.6396 -0.9040
   31MOL   H35327413   1.818   2.620   0.073 -0.9625 -0.0430 -2.5180
   31MOL   H35427414   2.196   3.184   0.229 -0.8915  0.3710  1.3862
   31MOL   H35527415   2.412   3.201   0.328  1.3296 -1.1630 -0.7211
   31MOL   H35627416   2.375   2.823   0.516  0.9406 -0.4602 -0.1985
   31MOL   H35727417   2.133   2.809   0.440 -0.9253 -0.0889 -2.3771
   31MOL   H35827418   2.634   3.130   0.304 -0.4349  0.0146  0.4415
   31MOL   H35927419   2.845   3.161   0.398 -1.7513  0.6366  0.2479
   31MOL   H36027420   2.722   2.945   0.761 -0.7898  0.0283  0.4434
   31MOL   H36127421   2.502   2.929   0.664  0.1724  0.9875  1.1825
   31MOL   C36227422   2.970   3.169   0.695  0.2262  0.0994 -0.0948
   31MOL   C36327423   3.099   3.219   0.695 -0.4197 -0.1637  0.1181
   31MOL   C36427424   3.130   3.341   0.755  0.3469  0.3845  0.0256
   31MOL   C36527425   3.027   3.417   0.823 -0.0129  0.0967  0.9123
   31MOL   C36627426   2.894   3.374   0.825 -0.7507 -0.5457  0.2227
   31MOL   C36727427   2.866   3.251   0.757  0.1473 -0.1329  0.2282
   31MOL   S36827428   3.061   3.574   0.907  0.3625  0.1396 -0.5055
   31MOL   O36927429   3.208   3.594   0.913  0.6551 -0.3474 -0.0946
   31MOL   O37027430   2.984   3.580   1.031 -0.1078 -0.0030  0.2610
   31MOL   C37127431   3.005   3.701   0.792  0.0154  0.3475  0.2715
   31MOL   C37227432   3.081   3.821   0.776  0.0645 -0.1159  0.4399
   31MOL   C37327433   3.042   3.921   0.689  0.1420 -0.4788 -0.4885
   31MOL   C37427434   2.921   3.903   0.616  0.0764 -0.7989  0.5241
   31MOL   C37527435   2.839   3.787   0.641 -0.0846  0.0025  0.6506
   31MOL   C37627436   2.890   3.689   0.723 -0.3300  0.9312 -0.2058
   31MOL   O37727437   2.857   4.006   0.542 -0.0649  0.2123 -0.8306
   31MOL   C37827438   2.926   4.129   0.529 -0.5388  0.1841  0.2624
   31MOL   C37927439   3.022   4.149   0.429 -0.4154  0.1763  0.0669
   31MOL   C38027440   3.101   4.268   0.431  0.6726 -0.0906  0.1471
   31MOL   C38127441   3.079   4.369   0.527  0.1810  0.1721  0.4041
   31MOL   C38227442   2.971   4.351   0.620  0.0190  1.0117  0.0699
   31MOL   C38327443   2.895   4.235   0.613  0.9719 -0.5655 -0.1545
   31MOL   C38427444   3.151   4.494   0.522  0.3121  0.1722 -0.1399
   31MOL   C38527445   3.081   4.618   0.530 -0.7858  0.7933 -0.4399
   31MOL   C38627446   3.149   4.742   0.528 -0.1570 -0.2682  0.3699
   31MOL   C38727447   3.285   4.746   0.520  0.7040  0.3575  0.7045
   31MOL   C38827448   3.357   4.626   0.494 -0.0486 -0.6374  0.1815
   31MOL   C38927449   3.291   4.502   0.499  0.1792  0.2243  0.9966
   31MOL   O39027450   3.357   4.863   0.513 -0.4821  0.5916 -0.3229
   31MOL   H39127451   3.174   3.145   0.669  0.7579  1.3708 -0.9441
   31MOL   H39227452   3.232   3.375   0.746  0.2780  0.6166  0.1023
   31MOL   H39327453   2.816   3.437   0.866  0.6049  0.1598  1.7885
   31MOL   H39427454   2.768   3.205   0.756 -0.3357  0.8592  1.3780
   31MOL   H39527455   3.173   3.845   0.826  1.3173 -1.4109 -1.1800
   31MOL   H39627456   3.103   4.008   0.668  0.7871 -1.2188 -1.7494
   31MOL   H39727457   2.739   3.786   0.599  0.7784  1.0666 -1.4915
   31MOL   H39827458   2.821   3.609   0.746 -0.5468  1.3022  0.4449
   31MOL   H39927459   3.049   4.072   0.358  0.9667  0.0740  0.6912
   31MOL   H40027460   3.175   4.279   0.353  0.3908  0.8162  0.0010
   31MOL   H40127461   2.955   4.420   0.701 -0.4759 -0.5872  1.3600
   31MOL   H40227462   2.814   4.216   0.683  0.2842  0.4597 -0.6590
   31MOL   H40327463   2.973   4.627   0.530 -0.7519  1.2265 -0.8249
   31MOL   H40427464   3.089   4.828   0.554  0.9599  0.7805 -0.4764
   31MOL   H40527465   3.463   4.639   0.480  0.0874 -1.0739  0.7857
   31MOL   H40627466   3.343   4.410   0.474 -1.9058 -0.7020 -0.1130
   31MOL   C40727467   3.409   4.897   0.636  0.0667  0.4423 -0.0750
   31MOL   C40827468   3.537   4.861   0.674  0.4296 -0.4815  0.5686
   31MOL   C40927469   3.578   4.876   0.806  0.3058 -0.1746 -0.2681
   31MOL   C41027470   3.494   4.953   0.891  0.0561 -0.5934  0.2176
   31MOL   C41127471   3.374   5.005   0.850 -0.2263  0.4540  0.3100
   31MOL   C41227472   3.329   4.972   0.719 -0.3156 -0.2937  0.1054
   31MOL   S41327473   3.532   4.969   1.063  0.1285  0.1479  0.4044
   31MOL   O41427474   3.683   4.973   1.068  0.0347  0.3748 -0.3878
   31MOL   O41527475   3.460   4.867   1.138  0.1484  0.1149 -0.5368
   31MOL   C41627476   3.481   5.134   1.118  0.0324 -0.0221 -0.3009
   31MOL   C41727477   3.509   5.250   1.041  0.3286 -0.1892  0.3527
   31MOL   C41827478   3.469   5.374   1.086  0.5424 -0.5539  0.1768
   31MOL   C41927479   3.403   5.388   1.212  0.3672 -0.3367 -0.7480
   31MOL   C42027480   3.368   5.277   1.288  0.5249  0.3652  0.7113
   31MOL   C42127481   3.411   5.152   1.238 -0.1486  0.2218  0.1705
   31MOL   O42227482   3.367   5.518   1.250 -0.2602  0.6290 -0.0482
   31MOL   C42327483   3.406   5.561   1.374 -0.6153  0.2534 -0.4055
   31MOL   C42427484   3.536   5.591   1.412  0.2272  0.0895 -0.7290
   31MOL   C42527485   3.555   5.654   1.536 -0.3316  0.4335 -0.3780
   31MOL   C42627486   3.452   5.679   1.625  0.0408  0.7734  0.4752
   31MOL   C42727487   3.326   5.633   1.588 -0.4253  0.0776  0.0515
   31MOL   C42827488   3.306   5.576   1.467 -0.8103  0.1360 -0.7553
   31MOL   C42927489   3.493   5.754   1.755 -0.4060  0.0214 -0.2726
   31MOL   C43027490   3.410   5.861   1.793  0.8835  0.5455  0.8625
   31MOL   C43127491   3.442   5.941   1.903  0.2817  0.6131  0.4349
   31MOL   C43227492   3.566   5.929   1.969 -0.0703  0.1115  0.1174
   31MOL   C43327493   3.644   5.823   1.936  0.2441 -0.8570 -0.2501
   31MOL   C43427494   3.608   5.730   1.832  0.0957  0.9485  0.0952
   31MOL   O43527495   3.600   6.029   2.061  0.1149  0.2865  0.5563
   31MOL   H43627496   3.589   4.812   0.593  0.6901  0.4916  0.1290
   31MOL   H43727497   3.671   4.835   0.844 -0.7849 -2.1133  0.3823
   31MOL   H43827498   3.306   5.057   0.916 -1.1439  0.2888 -0.4763
   31MOL   H43927499   3.232   5.005   0.683 -0.1282  1.1497  0.8643
   31MOL   H44027500   3.567   5.243   0.950 -0.7084  1.2523 -0.4368
   31MOL   H44127501   3.486   5.467   1.034 -1.4484 -0.4090 -0.2707
   31MOL   H44227502   3.303   5.282   1.374 -1.7589 -2.8450 -0.7313
   31MOL   H44327503   3.369   5.071   1.295  0.4358  0.1011  0.4244
   31MOL   H44427504   3.610   5.567   1.337  0.6306 -1.2914  0.0818
   31MOL   H44527505   3.657   5.677   1.563 -1.0062  0.9738  1.7574
   31MOL   H44627506   3.235   5.654   1.642 -0.7565  1.8336 -1.1275
   31MOL   H44727507   3.210   5.540   1.431 -1.7795 -1.6614  3.3733
   31MOL   H44827508   3.323   5.891   1.735  0.9448  1.0587  1.0317
   31MOL   H44927509   3.380   6.028   1.923 -0.0788  0.5451 -0.3381
   31MOL   H45027510   3.730   5.810   2.001 -0.1845  0.2060  0.5421
   31MOL   H45127511   3.667   5.644   1.804 -2.7862 -0.3709 -2.0786
   31MOL   C45227512   3.712   6.100   2.054 -0.1302  0.1757  0.4575
   31MOL   C45327513   3.801   6.093   1.940  0.2447  0.2260 -0.0473
   31MOL   C45427514   3.909   6.179   1.945  0.2179  0.6368 -0.2965
   31MOL   C45527515   3.947   6.252   2.056 -0.1632 -0.3732  0.7519
   31MOL   C45627516   3.863   6.263   2.167 -0.5422 -0.1940  0.3123
   31MOL   C45727517   3.749   6.181   2.166 -0.1910  0.0013  0.8333
   31MOL   S45827518   4.114   6.327   2.056  0.0156  0.5091  0.0042
   31MOL   O45927519   4.113   6.436   2.157  0.5012 -0.1415 -0.2600
   31MOL   O46027520   4.160   6.354   1.918 -0.0553 -0.0635  0.2080
   31MOL   C46127521   4.226   6.198   2.120 -0.6325  0.1424  0.1516
   31MOL   C46227522   4.322   6.231   2.212  0.0972  0.2323  0.0618
   31MOL   C46327523   4.417   6.140   2.255 -0.7114  0.9943 -0.1575
   31MOL   C46427524   4.417   6.008   2.205 -0.7132 -0.4472 -0.4122
   31MOL   C46527525   4.318   5.975   2.102  0.0402  0.1424 -0.3353
   31MOL   C46627526   4.220   6.072   2.059 -0.4912  0.6299 -1.0659
   31MOL   O46727527   4.516   5.922   2.256  0.2610 -0.1587 -0.1858
   31MOL   C46827528   4.498   5.784   2.232 -0.8205 -0.4421 -0.4644
   31MOL   C46927529   4.589   5.708   2.158  0.1534  0.0008  0.8421
   31MOL   C47027530   4.557   5.582   2.120 -0.2603  0.0773  0.0456
   31MOL   C47127531   4.436   5.523   2.163  0.3825  0.6895  0.3091
   31MOL   C47227532   4.350   5.588   2.256 -0.1903  0.1154  0.1383
   31MOL   C47327533   4.378   5.725   2.283  0.3175  0.8477 -0.3795
   31MOL   C47427534   4.394   5.395   2.099  0.4020 -0.1730  0.2042
   31MOL   C47527535   4.319   5.298   2.165  0.6710 -0.0656  0.6434
   31MOL   C47627536   4.268   5.187   2.097  0.2919  0.1896 -0.1599
   31MOL   C47727537   4.302   5.172   1.960  0.3094 -0.0603  0.1916
   31MOL   C47827538   4.379   5.269   1.893 -0.8228 -0.3207 -0.4459
   31MOL   C47927539   4.416   5.382   1.958  0.0539 -0.3248 -0.2273
   31MOL   O48027540   4.251   5.064   1.889  0.2293  0.5695 -0.4019
   31MOL   H48127541   3.770   6.032   1.857 -0.7654 -0.8482  1.1105
   31MOL   H48227542   3.975   6.175   1.860  0.7862 -0.9980  0.2025
   31MOL   H48327543   3.885   6.331   2.248  1.8681 -2.6567  1.8249
   31MOL   H48427544   3.676   6.187   2.245  0.2363 -2.1618  1.4431
   31MOL   H48527545   4.326   6.327   2.262 -1.3364 -0.5361  1.7019
   31MOL   H48627546   4.499   6.166   2.320  0.5954  0.8088 -1.7324
   31MOL   H48727547   4.319   5.877   2.058 -0.3653 -0.1578  0.3080
   31MOL   H48827548   4.152   6.048   1.978 -1.9207 -2.5298  0.9529
   31MOL   H48927549   4.679   5.756   2.124  0.2380 -0.0689  0.9664
   31MOL   H49027550   4.622   5.533   2.048  3.8991  1.2592  2.7979
   31MOL   H49127551   4.254   5.552   2.290 -1.2351  2.0917 -0.6436
   31MOL   H49227552   4.308   5.784   2.341 -2.6667 -0.9289 -2.0333
   31MOL   H49327553   4.301   5.304   2.271  0.6060  2.2222  0.5284
   31MOL   H49427554   4.216   5.110   2.152 -1.5783 -0.6405 -2.9409
   31MOL   H49527555   4.402   5.255   1.789  1.3465  0.3844 -0.0680
   31MOL   H49627556   4.470   5.458   1.904 -0.5552 -0.9697 -1.7795
   31MOL   C49727557   4.123   5.017   1.914 -0.0057 -0.3725 -0.1219
   31MOL   C49827558   4.115   4.892   1.985  0.3253 -0.4087 -0.0377
   31MOL   C49927559   3.992   4.850   2.028 -0.3014 -0.3223 -0.1066
   31MOL   C50027560   3.881   4.926   2.002  0.3142  0.5125 -0.2324
   31MOL   C50127561   3.885   5.044   1.925 -0.5785  0.0735 -0.5661
   31MOL   C50227562   4.009   5.092   1.881 -0.7260 -1.0779 -0.1299
   31MOL   S50327563   3.726   4.885   2.085  0.5713  0.5286 -0.1908
   31MOL   O50427564   3.655   5.009   2.125 -0.2024 -0.0038  0.9412
   31MOL   O50527565   3.753   4.775   2.177 -0.5541  0.3630  0.0040
   31MOL   C50627566   3.621   4.816   1.955 -0.4784  0.0006 -0.6832
   31MOL   C50727567   3.488   4.813   1.985 -0.3877  0.4080  0.5180
   31MOL   C50827568   3.392   4.754   1.902 -0.7809 -0.0438  0.7108
   31MOL   C50927569   3.437   4.704   1.777  0.0736 -0.1628 -0.7797
   31MOL   C51027570   3.573   4.704   1.748  0.0119 -0.5666  0.4337
   31MOL   C51127571   3.669   4.762   1.837 -0.2448  0.6093 -0.2971
   31MOL   O51227572   3.340   4.656   1.694  0.2071  0.3191 -0.0129
   31MOL   C51327573   3.373   4.559   1.601  0.0817 -0.2506  0.5724
   31MOL   C51427574   3.417   4.435   1.641 -0.4657  0.2650  0.0119
   31MOL   C51527575   3.460   4.331   1.554 -0.2618 -0.3105  0.7491
   31MOL   C51627576   3.436   4.354   1.416 -0.3076  0.0525  1.0242
   31MOL   C51727577   3.382   4.477   1.377 -0.4856  0.0031  0.1247
   31MOL   C51827578   3.355   4.581   1.468 -0.0742 -0.3420 -0.2358
   31MOL   C51927579   3.458   4.243   1.311 -0.5505  0.4835  0.3821
   31MOL   C52027580   3.569   4.160   1.336  0.4581  0.9141  0.6997
   31MOL   C52127581   3.598   4.047   1.255  0.9448 -0.4866 -0.2321
   31MOL   C52227582   3.527   4.030   1.133 -0.1234 -0.3069 -0.3231
   31MOL   C52327583   3.424   4.119   1.099  0.0206 -0.1373  0.1286
   31MOL   C52427584   3.393   4.224   1.182 -0.2565  0.5591  0.2394
   31MOL   O52527585   3.549   3.922   1.053  0.2766 -0.2538  0.1180
   31MOL   H52627586   4.210   4.843   2.001  1.6503  2.1262  0.1545
   31MOL   H52727587   3.992   4.767   2.097 -1.6077 -1.3906 -1.3495
   31MOL   H52827588   3.794   5.101   1.910 -1.3427 -0.9034  0.2659
   31MOL   H52927589   4.021   5.191   1.838 -1.1794 -1.1262 -0.3703
   31MOL   H53027590   3.456   4.853   2.080 -1.3339  2.2117 -0.5505
   31MOL   H53127591   3.288   4.752   1.933 -1.8663  1.9368 -2.5117
   31MOL   H53227592   3.607   4.672   1.651 -0.5456 -1.2351  0.4571
   31MOL   H53327593   3.771   4.769   1.801 -0.4692 -0.0850 -1.0810
   31MOL   H53427594   3.427   4.418   1.748 -0.1634 -0.5229 -0.1416
   31MOL   H53527595   3.486   4.234   1.593  0.3542 -0.7173 -0.6207
   31MOL   H53627596   3.352   4.503   1.276  1.1021  0.4676 -0.2470
   31MOL   H53727597   3.320   4.678   1.436  0.2317  0.3606  1.4996
   31MOL   H53827598   3.618   4.166   1.431 -0.5434  0.6019  1.2482
   31MOL   H53927599   3.676   3.975   1.275  0.4901 -0.9701 -0.1912
   31MOL   H54027600   3.366   4.101   1.010 -0.7776 -1.2118  0.8703
   31MOL   H54127601   3.314   4.294   1.160 -2.7807 -2.4189 -0.4667
   31MOL   C54227602   3.667   3.908   0.982 -0.0845 -0.1443  0.4040
   31MOL   C54327603   3.687   3.988   0.863 -0.1875 -0.1216 -0.1873
   31MOL   C54427604   3.803   3.984   0.786 -0.4494  0.1285 -0.3850
   31MOL   C54527605   3.904   3.894   0.825 -0.0970 -0.7884  0.2837
   31MOL   C54627606   3.899   3.824   0.945  0.0638 -0.4828  0.1538
   31MOL   C54727607   3.780   3.829   1.018  0.7905  0.4623  0.5516
   31MOL   S54827608   4.051   3.894   0.718 -0.0917 -0.0751  0.0025
   31MOL   O54927609   4.013   3.825   0.595 -0.1161  0.2396 -0.0389
   31MOL   O55027610   4.170   3.856   0.795 -0.3658 -0.1328 -0.0434
   31MOL   C55127611   4.082   4.067   0.675  0.2755  0.1584  0.5792
   31MOL   C55227612   4.108   4.091   0.537  0.4656  0.4779  0.0211
   31MOL   C55327613   4.126   4.224   0.494  0.4140 -0.1607  0.1554
   31MOL   C55427614   4.134   4.334   0.579  0.7325  0.0285  0.5877
   31MOL   C55527615   4.111   4.310   0.720  0.3717  1.0629  0.1677
   31MOL   C55627616   4.082   4.178   0.764  0.7704  0.2224 -0.4859
   31MOL   O55727617   4.163   4.454   0.517  0.5057  0.5075  0.1548
   31MOL   C55827618   4.126   4.574   0.559  0.7990  0.2794  0.0441
   31MOL   C55927619   4.000   4.593   0.614  0.5558 -0.9246  0.5234
   31MOL   C56027620   3.951   4.716   0.662 -0.7963 -0.0545 -0.1882
   31MOL   C56127621   4.024   4.831   0.637 -0.1973 -0.1045 -0.4745
   31MOL   C56227622   4.155   4.811   0.586  0.3311  0.3998 -0.5321
   31MOL   C56327623   4.206   4.684   0.538  0.0259 -0.0936 -0.2773
   31MOL   C56427624   3.962   4.964   0.664 -0.3536 -0.4459  0.0542
   31MOL   C56527625   3.906   5.003   0.787  0.1541  0.3025 -0.5388
   31MOL   C56627626   3.850   5.130   0.815 -0.1689  0.1493 -0.3276
   31MOL   C56727627   3.866   5.232   0.716 -0.6224 -0.0173 -0.2022
   31MOL   C56827628   3.935   5.199   0.601 -0.2465 -0.6659 -0.0170
   31MOL   C56927629   3.980   5.071   0.570  0.8302 -0.2526  0.0715
   31MOL   O57027630   3.825   5.360   0.738  0.2937 -0.0898 -0.1787
   31MOL   H57127631   3.608   4.052   0.828 -2.4099 -3.1188 -0.8308
   31MOL   H57227632   3.812   4.029   0.688 -0.5053  0.3110 -0.3056
   31MOL   H57327633   3.974   3.756   0.983 -1.2695 -1.2737  1.3951
   31MOL   H57427634   3.771   3.759   1.100 -2.5460  0.2302  0.0570
   31MOL   H57527635   4.120   4.008   0.468  1.1333  1.7442 -1.4150
   31MOL   H57627636   4.148   4.244   0.390  0.1058 -0.6083  0.0034
   31MOL   H57727637   4.123   4.396   0.785 -0.1064  0.7104  0.7194
   31MOL   H57827638   4.085   4.155   0.870  1.7005  0.7088 -0.4025
   31MOL   H57927639   3.954   4.502   0.649 -0.0880  0.0684  2.3143
   31MOL   H58027640   3.858   4.722   0.716 -0.6627 -1.6237  0.2528
   31MOL   H58127641   4.210   4.904   0.581  0.7385  0.3075  1.8035
   31MOL   H58227642   4.303   4.676   0.492  0.5457 -0.1579  0.8148
   31MOL   H58327643   3.905   4.933   0.870  0.4707 -0.6883 -1.3551
   31MOL   H58427644   3.808   5.146   0.913  0.7962  0.6770  0.0145
   31MOL   H58527645   3.958   5.279   0.533 -0.7519  0.9507  1.6746
   31MOL   H58627646   4.025   5.046   0.475  0.5391 -3.8307  0.8270
   31MOL   C58727647   3.698   5.397   0.719 -0.9960  0.0987  0.2060
   31MOL   C58827648   3.646   5.513   0.779 -0.1770  0.7049  0.5440
   31MOL   C58927649   3.505   5.542   0.783 -0.4750  1.3280 -0.3545
   31MOL   C59027650   3.423   5.463   0.705  0.3679 -0.2202 -0.0799
   31MOL   C59127651   3.473   5.344   0.640 -0.1935 -0.4656 -0.1276
   31MOL   C59227652   3.609   5.321   0.639 -0.0115 -0.7447  0.7275
   31MOL   S59327653   3.243   5.489   0.695  0.1390 -0.2373 -0.2996
   31MOL   O59427654   3.180   5.356   0.721 -0.0544  0.0928  0.6683
   31MOL   O59527655   3.219   5.562   0.569 -0.1838  0.1996 -0.0387
   31MOL   C59627656   3.193   5.604   0.830  0.2069  0.4999 -0.4957
   31MOL   C59727657   3.238   5.741   0.828 -0.3238 -0.5205  0.6611
   31MOL   C59827658   3.183   5.833   0.918 -0.1353 -0.2240 -0.0951
   31MOL   C59927659   3.106   5.789   1.023 -0.2753 -0.2174  0.6585
   31MOL   C60027660   3.081   5.647   1.041 -0.7383 -0.2022  0.3039
   31MOL   C60127661   3.126   5.554   0.943 -0.5421  0.0691 -0.0618
   31MOL   O60227662   3.046   5.880   1.109  0.3888  0.3154 -0.0964
   31MOL   C60327663   3.117   5.940   1.217  0.6548 -0.2657  0.4430
   31MOL   C60427664   3.194   5.858   1.302  0.1083 -0.8591  0.2784
   31MOL   C60527665   3.273   5.920   1.400  0.1969 -0.1619  0.1523
   31MOL   C60627666   3.271   6.060   1.424 -0.1054 -0.0701 -0.3429
   31MOL   C60727667   3.175   6.137   1.347  0.2246 -0.1793 -1.0974
   31MOL   C60827668   3.101   6.077   1.241  0.4706 -0.4085  0.2518
   31MOL   C60927669   3.364   6.122   1.528 -0.5073  0.1931  0.4584
   31MOL   C61027670   3.320   6.224   1.621 -0.2371  0.6590 -0.3764
   31MOL   C61127671   3.411   6.276   1.715  0.8682  0.6075 -0.1450
   31MOL   C61227672   3.548   6.244   1.703 -0.4444  1.1062 -0.4955
   31MOL   C61327673   3.591   6.152   1.608 -0.5955  0.7954  0.2094
   31MOL   C61427674   3.499   6.083   1.521  0.8387 -0.0107  0.0599
   31MOL   O61527675   3.636   6.304   1.786  0.3376  0.1691  0.5278
   31MOL   H61627676   3.706   5.578   0.841  1.2057 -1.0836  1.0951
   31MOL   H61727677   3.472   5.620   0.850 -0.1351 -0.1948  1.6333
   31MOL   H61827678   3.404   5.280   0.587 -1.7657  2.0526 -1.2435
   31MOL   H61927679   3.642   5.241   0.574  1.3734  1.9709 -2.0054
   31MOL   H62027680   3.292   5.781   0.744 -2.3118 -0.2130 -0.5244
   31MOL   H62127681   3.199   5.937   0.894 -1.9361  0.1283  0.1708
   31MOL   H62227682   3.024   5.628   1.130 -1.6859  2.1060  0.2425
   31MOL   H62327683   3.108   5.448   0.950 -2.3584  0.4588  1.5024
   31MOL   H62427684   3.199   5.751   1.288 -1.2434 -0.6748 -1.8290
   31MOL   H62527685   3.328   5.856   1.468  0.5484  1.7201  1.6727
   31MOL   H62627686   3.168   6.244   1.353  1.6685 -0.1387  0.4792
   31MOL   H62727687   3.033   6.141   1.187 -1.1687 -0.1517  2.5347
   31MOL   H62827688   3.220   6.262   1.625 -0.2279  0.4200  4.1117
   31MOL   H62927689   3.379   6.349   1.787 -1.4761 -0.3625 -0.1505
   31MOL   H63027690   3.699   6.141   1.602 -0.5898 -0.2409  1.9343
   31MOL   H63127691   3.543   6.020   1.446  2.4284  0.0812  0.8986
   31MOL   C63227692   3.703   6.423   1.755  0.4922  0.6371  0.0055
   31MOL   C63327693   3.657   6.551   1.800 -0.1244  0.0495  0.1817
   31MOL   C63427694   3.729   6.666   1.766  0.3071 -0.4139  0.1678
   31MOL   C63527695   3.840   6.646   1.687  0.1389  0.0052  0.6853
   31MOL   C63627696   3.889   6.526   1.638 -0.6687 -0.0513 -0.4275
   31MOL   C63727697   3.821   6.412   1.674  0.6266  0.6566 -0.0887
   31MOL   S63827698   3.937   6.789   1.642 -0.2817 -0.1669  0.0303
   31MOL   O63927699   3.855   6.898   1.599  0.2620 -0.0175  0.3258
   31MOL   O64027700   4.046   6.740   1.551  0.1207  0.1254 -0.0602
   31MOL   C64127701   4.018   6.836   1.797  0.2638 -0.2640 -0.6484
   31MOL   C64227702   4.085   6.740   1.867 -0.0149  0.2529  0.1842
   31MOL   C64327703   4.154   6.764   1.988  0.1940 -0.7418 -0.4538
   31MOL   C64427704   4.142   6.896   2.039 -0.0459  0.3450  0.4301
   31MOL   C64527705   4.065   6.997   1.971  0.2241 -0.1269 -0.3941
   31MOL   C64627706   4.007   6.970   1.843 -0.6003  0.1781 -0.2602
   31MOL   O64727707   4.202   6.936   2.152  0.4797 -0.0560 -0.2079
   31MOL   C64827708   4.158   6.889   2.280  0.2358 -0.0456  0.5699
   31MOL   C64927709   4.213   6.775   2.338  0.1094  0.0355 -0.6048
   31MOL   C65027710   4.185   6.741   2.469 -0.0887 -0.4375 -0.3021
   31MOL   C65127711   4.115   6.830   2.551  0.2865  0.2043 -0.6690
   31MOL   C65227712   4.044   6.936   2.495 -0.7012  0.2925  0.7196
   31MOL   C65327713   4.065   6.967   2.357  0.0714 -0.0641 -0.6821
   31MOL   C65427714   4.111   6.807   2.694  0.3738 -0.1524  0.4980
   31MOL   C65527715   4.128   6.912   2.785 -0.6111  0.0617 -0.1038
   31MOL   C65627716   4.115   6.894   2.926  0.0263  0.3493 -0.7068
   31MOL   C65727717   4.091   6.760   2.973 -0.4167  0.4718  0.2366
   31MOL   C65827718   4.065   6.660   2.880  0.2780 -0.3200 -0.2666
   31MOL   C65927719   4.076   6.684   2.740 -0.8050 -0.0441 -0.5714
   31MOL   O66027720   4.080   6.740   3.112  0.1472  0.0710  0.3706
   31MOL   H66127721   3.569   6.554   1.863  0.2969  0.8124  0.7361
   31MOL   H66227722   3.693   6.762   1.801 -0.6367 -1.1318  1.2280
   31MOL   H66327723   3.979   6.512   1.579 -0.4777 -0.4522 -0.0379
   31MOL   H66427724   3.859   6.314   1.649 -0.8899  0.0801 -0.2104
   31MOL   H66527725   4.067   6.641   1.828  0.2235  0.8844 -1.5852
   31MOL   H66627726   4.208   6.687   2.041  0.1539 -0.8450 -0.5647
   31MOL   H66727727   4.057   7.099   2.005  1.0904 -1.1144  2.9780
   31MOL   H66827728   3.961   7.047   1.783  0.1064  0.8050 -0.0155
   31MOL   H66927729   4.282   6.711   2.285  0.1543 -1.1392  0.8336
   31MOL   H67027730   4.216   6.643   2.500 -1.4406  0.2516  3.5964
   31MOL   H67127731   3.969   6.986   2.554  0.4980 -0.0262  2.5309
   31MOL   H67227732   4.010   7.047   2.311  0.7383  2.3289  2.5611
   31MOL   H67327733   4.158   7.010   2.749  1.2043 -0.3980  0.1155
   31MOL   H67427734   4.122   6.979   2.993  0.6327 -1.7979  2.0151
   31MOL   H67527735   4.014   6.573   2.919 -0.6741  0.1754 -0.3904
   31MOL   H67627736   4.042   6.608   2.671  0.4529 -1.0443 -0.0986
   31MOL   C67727737   4.110   6.611   3.155  0.2419 -0.4350 -0.2057
   31MOL   C67827738   4.005   6.520   3.200 -0.0990 -0.2137 -0.2247
   31MOL   C67927739   4.034   6.391   3.239 -0.1630 -0.6885  0.1984
   31MOL   C68027740   4.165   6.348   3.253 -0.7903 -0.3663 -0.2628
   31MOL   C68127741   4.272   6.437   3.217  0.4498 -0.2260  0.6501
   31MOL   C68227742   4.246   6.566   3.168  0.5094 -1.3769  0.5085
   31MOL   S68327743   4.202   6.176   3.308  0.2518  0.0278  0.4646
   31MOL   O68427744   4.071   6.121   3.350 -0.5332 -0.4568  0.0340
   31MOL   O68527745   4.319   6.180   3.396  0.2402  0.3252 -0.5865
   31MOL   C68627746   4.261   6.095   3.157  0.4708 -0.4802 -0.0694
   31MOL   C68727747   4.165   6.017   3.078  0.1995 -0.5463 -0.0630
   31MOL   C68827748   4.204   5.961   2.957 -0.3838 -0.5344 -0.4681
   31MOL   C68927749   4.337   5.969   2.915  0.7965 -0.2245 -0.7538
   31MOL   C69027750   4.427   6.049   2.984  0.9346 -0.8632  0.0027
   31MOL   C69127751   4.393   6.113   3.107 -0.1363 -0.4652  0.8775
   31MOL   O69227752   4.374   5.901   2.807 -0.4107 -0.5197 -0.5803
   31MOL   C69327753   4.309   5.786   2.773  0.1552  0.2558  0.2402
   31MOL   C69427754   4.222   5.782   2.655  0.5075 -0.1842 -0.0624
   31MOL   C69527755   4.160   5.659   2.624  0.0833  0.3427  0.6265
   31MOL   C69627756   4.163   5.543   2.708 -0.1566  0.0871 -0.4558
   31MOL   C69727757   4.249   5.552   2.821  0.7860 -0.1667 -0.1112
   31MOL   C69827758   4.328   5.671   2.852 -0.0963 -0.0096  0.2405
   31MOL   C69927759   4.083   5.421   2.680  0.2080  0.5162  0.3938
   31MOL   C70027760   4.050   5.385   2.550 -0.0791  0.9577 -0.5055
   31MOL   C70127761   3.967   5.271   2.521  0.1638 -0.2541 -0.2904
   31MOL   C70227762   3.902   5.209   2.627  0.4599  0.2231  1.2439
   31MOL   C70327763   3.928   5.248   2.759 -0.1757  0.1223 -0.3568
   31MOL   C70427764   4.031   5.339   2.783  0.0413 -0.2312 -0.6038
   31MOL   O70527765   3.794   5.117   2.603  0.3932 -0.1755 -0.4656
   31MOL   H70627766   3.902   6.553   3.194  0.1237  0.5050 -0.2161
   31MOL   H70727767   3.952   6.331   3.276  0.4509  0.0892  2.9618
   31MOL   H70827768   4.374   6.403   3.216 -0.0983 -1.9371 -0.3585
   31MOL   H70927769   4.324   6.639   3.155  1.1664 -1.8934  1.4586
   31MOL   H71027770   4.066   6.003   3.120  0.0575  2.1408  0.5796
   31MOL   H71127771   4.130   5.916   2.893 -0.8294  1.9831 -1.7976
   31MOL   H71227772   4.527   6.070   2.951  0.0750 -0.7551 -2.6155
   31MOL   H71327773   4.467   6.172   3.159 -0.0120 -0.7964  1.0806
   31MOL   H71427774   4.210   5.873   2.599  0.0569  1.7964  3.1364
   31MOL   H71527775   4.099   5.666   2.535 -1.0119 -0.1670  1.3194
   31MOL   H71627776   4.254   5.470   2.891 -0.4374  0.8639  1.2412
   31MOL   H71727777   4.390   5.657   2.939 -3.3727 -1.4519  2.4639
   31MOL   H71827778   4.089   5.449   2.472 -1.0328  1.5245 -0.5367
   31MOL   H71927779   3.955   5.252   2.416  2.7539  1.2942 -0.9262
   31MOL   H72027780   3.883   5.196   2.842  0.4762  0.1122 -0.0065
   31MOL   H72127781   4.053   5.364   2.886 -0.6045  3.0711 -1.2362
   31MOL   C72227782   3.676   5.173   2.548  0.5612 -0.0114  0.1511
   31MOL   C72327783   3.605   5.099   2.454 -0.6838 -0.5524 -0.3106
   31MOL   C72427784   3.491   5.156   2.389  0.1783  0.3320 -0.2874
   31MOL   C72527785   3.441   5.285   2.429 -0.4418 -0.0922 -0.0928
   31MOL   C72627786   3.509   5.356   2.528  0.2122  0.4060 -0.0763
   31MOL   C72727787   3.622   5.296   2.594 -0.3360 -0.4211  0.6229
   31MOL   S72827788   3.310   5.373   2.342  0.2253  0.0120  0.0777
   31MOL   O72927789   3.308   5.510   2.386  0.2330 -0.0834  0.5706
   31MOL   O73027790   3.181   5.297   2.353 -0.1183  0.5209 -0.7799
   31MOL   C73127791   3.357   5.377   2.168  0.7669  0.2289 -0.0468
   31MOL   C73227792   3.255   5.411   2.074 -0.2097  0.2629  0.9024
   31MOL   C73327793   3.287   5.411   1.936 -0.5454  0.2623  0.5627
   31MOL   C73427794   3.413   5.384   1.889 -0.1641 -1.0507  0.1862
   31MOL   C73527795   3.516   5.379   1.989  0.1397  0.5916 -0.1240
   31MOL   C73627796   3.489   5.365   2.125 -0.1366  0.1588 -0.3745
   31MOL   O73727797   3.437   5.397   1.757  0.0412 -0.1512 -0.5557
   31MOL   C73827798   3.493   5.288   1.697  0.2786  0.0730  0.6665
   31MOL   C73927799   3.415   5.177   1.663 -0.2981 -0.3476 -0.4767
   31MOL   C74027800   3.480   5.059   1.614 -0.4600  0.7120  0.4516
   31MOL   C74127801   3.618   5.058   1.592 -0.4739 -0.5064 -0.0732
   31MOL   C74227802   3.691   5.171   1.620 -0.0657 -0.1660  0.1455
   31MOL   C74327803   3.628   5.286   1.664  0.0360 -0.1896  0.1647
   31MOL   C74427804   3.689   4.937   1.535  0.2996 -0.0001  0.1147
   31MOL   C74527805   3.609   4.859   1.448 -0.1823  0.3000  0.5103
   31MOL   C74627806   3.666   4.740   1.396 -0.1073 -0.1684 -0.1336
   31MOL   C74727807   3.799   4.703   1.428 -0.1099  0.2450  0.1999
   31MOL   C74827808   3.871   4.777   1.519 -0.2445 -0.8176 -0.5732
   31MOL   C74927809   3.818   4.894   1.572 -0.6001  1.0767  0.2638
   31MOL   O75027810   3.866   4.597   1.371  0.4522 -0.6490 -0.5087
   31MOL   H75127811   3.639   5.003   2.417 -0.6206 -0.8204  0.4399
   31MOL   H75227812   3.430   5.102   2.319 -0.6833  0.1105  0.6268
   31MOL   H75327813   3.472   5.450   2.566 -4.0607 -0.7661 -1.0859
   31MOL   H75427814   3.664   5.362   2.668  0.9007  0.0044 -0.4436
   31MOL   H75527815   3.151   5.407   2.105 -0.1180  0.4586  1.2355
   31MOL   H75627816   3.208   5.439   1.869  0.2056 -1.7274 -1.1934
   31MOL   H75727817   3.619   5.374   1.958  0.2444 -0.7576  0.3925
   31MOL   H75827818   3.567   5.354   2.199  0.4102  0.4303 -0.8981
   31MOL   H75927819   3.310   5.176   1.689 -0.7318 -1.1463 -2.2347
   31MOL   H76027820   3.410   4.982   1.587  2.4538 -1.5869 -0.7961
   31MOL   H76127821   3.799   5.168   1.615 -0.1962 -2.7017 -2.0898
   31MOL   H76227822   3.695   5.367   1.693  0.0286  0.5270 -1.7745
   31MOL   H76327823   3.509   4.891   1.422  0.3173  1.8817  0.4592
   31MOL   H76427824   3.601   4.668   1.347  0.6116 -2.6419  2.3979
   31MOL   H76527825   3.975   4.761   1.545  0.0160 -0.2520 -1.2807
   31MOL   H76627826   3.880   4.960   1.631 -0.2913  0.1900  0.9393
   31MOL   C76727827   3.829   4.554   1.252  0.4300 -0.6085  0.3300
   31MOL   C76827828   3.759   4.435   1.236 -0.2549  0.7926  0.4147
   31MOL   C76927829   3.713   4.404   1.107  0.5906  0.3194  0.4755
   31MOL   C77027830   3.729   4.493   0.997 -0.1782 -0.3364 -0.0138
   31MOL   C77127831   3.789   4.615   1.020 -0.2169  0.0157 -0.1269
   31MOL   C77227832   3.834   4.654   1.150  0.1159  0.2877 -0.4385
   31MOL   S77327833   3.646   4.450   0.847 -0.3065 -0.5884 -0.0287
   31MOL   O77427834   3.687   4.316   0.808  0.0859 -0.2973 -0.0823
   31MOL   O77527835   3.675   4.568   0.761  0.0183 -0.1116  0.1431
   31MOL   C77627836   3.470   4.448   0.876  0.2062 -0.0363  0.2405
   31MOL   C77727837   3.380   4.367   0.796  0.0074 -0.4092 -0.3590
   31MOL   C77827838   3.241   4.371   0.828  0.8347  0.8967  0.3882
   31MOL   C77927839   3.188   4.445   0.933  0.1974  0.1666  0.2876
   31MOL   C78027840   3.272   4.532   1.006 -0.1623  0.6380  0.5780
   31MOL   C78127841   3.411   4.533   0.974 -0.0164 -0.2558  0.7019
   31MOL   O78227842   3.056   4.425   0.963 -0.5671  0.0272  0.2114
   31MOL   C78327843   3.010   4.447   1.088 -0.4896  1.1249 -0.6857
   31MOL   C78427844   2.972   4.571   1.135 -0.0344  0.6652  1.0065
   31MOL   C78527845   2.940   4.591   1.272  0.4038  0.0565  0.0419
   31MOL   C78627846   2.952   4.483   1.361 -0.1073 -0.3655  0.3178
   31MOL   C78727847   2.989   4.358   1.315  0.2653  0.1186 -0.1763
   31MOL   C78827848   3.010   4.332   1.181 -0.1804  0.4923  0.5529
   31MOL   C78927849   2.931   4.514   1.502 -0.0456 -0.6106  0.0793
   31MOL   C79027850   3.039   4.485   1.592  0.4551 -0.1802 -0.3671
   31MOL   C79127851   3.014   4.503   1.732 -0.5196 -0.1859  0.0085
   31MOL   C79227852   2.890   4.558   1.782  0.0146  0.2380  0.9074
   31MOL   C79327853   2.788   4.588   1.686  0.7090  0.8076  0.3997
   31MOL   C79427854   2.808   4.565   1.547 -0.4897 -0.4634  0.6673
   31MOL   O79527855   2.861   4.586   1.912  0.1925  0.2321  0.0173
   31MOL   H79627856   3.737   4.365   1.315  2.5867 -1.6316 -0.8619
   31MOL   H79727857   3.657   4.312   1.101  0.1871  0.6602 -1.2017
   31MOL   H79827858   3.804   4.693   0.946  0.9481 -1.8143 -1.8413
   31MOL   H79927859   3.875   4.752   1.166 -0.1777  0.3048  0.1971
   31MOL   H80027860   3.420   4.313   0.712  1.3013 -0.1424  0.0718
   31MOL   H80127861   3.180   4.307   0.767 -1.1700  0.1805  3.0603
   31MOL   H80227862   3.239   4.595   1.087 -1.7080 -2.1109  2.1290
   31MOL   H80327863   3.474   4.601   1.029 -0.7569  0.9455  0.0732
   31MOL   H80427864   2.970   4.656   1.069  0.2486  1.0291  1.4662
   31MOL   H80527865   2.926   4.692   1.307  2.1658  0.2868  0.1243
   31MOL   H80627866   3.004   4.276   1.384 -0.0827  0.3600  0.1805
   31MOL   H80727867   3.024   4.230   1.148 -0.3456  0.5621  0.2633
   31MOL   H80827868   3.130   4.432   1.567  2.1581  2.7807 -0.6444
   31MOL   H80927869   3.094   4.481   1.801 -1.1806  0.6973  1.0627
   31MOL   H81027870   2.691   4.612   1.725  0.0968 -0.2632 -0.4233
   31MOL   H81127871   2.733   4.590   1.474  0.0432  0.3502  0.3922
   31MOL   C81227872   2.941   4.539   2.007  0.7006  0.6830 -0.0928
   31MOL   C81327873   2.920   4.405   2.048  0.1567 -0.1314 -0.0962
   31MOL   C81427874   3.022   4.342   2.128 -0.0595  0.2085 -0.5612
   31MOL   C81527875   3.135   4.416   2.170  0.3311 -0.1966 -0.7335
   31MOL   C81627876   3.153   4.549   2.136 -0.0654  0.0323 -0.0696
   31MOL   C81727877   3.058   4.612   2.050  0.3817  0.6872 -0.0723
   31MOL   S81827878   3.261   4.346   2.273  0.2976  0.3233  0.2011
   31MOL   O81927879   3.388   4.380   2.209 -0.5301  0.1263  0.0795
   31MOL   O82027880   3.234   4.203   2.291 -0.0139 -0.3885 -0.1761
   31MOL   C82127881   3.254   4.421   2.432 -0.9496 -0.4270 -0.1167
   31MOL   C82227882   3.371   4.442   2.504  0.5353 -0.3617 -0.1454
   31MOL   C82327883   3.371   4.511   2.629 -0.5841 -0.3215  0.4289
   31MOL   C82427884   3.247   4.564   2.676  0.5721  0.6231 -0.8265
   31MOL   C82527885   3.128   4.541   2.599 -0.1092 -0.4770 -0.4953
   31MOL   C82627886   3.129   4.464   2.479 -0.8104  0.1800 -0.3859
   31MOL   O82727887   3.242   4.618   2.802 -0.5554  0.4147 -0.4256
   31MOL   C82827888   3.210   4.756   2.815 -0.1333 -0.2801 -0.0967
   31MOL   C82927889   3.301   4.851   2.762  0.1850 -0.2796  0.7743
   31MOL   C83027890   3.269   4.989   2.767  0.3952 -0.5437  0.3129
   31MOL   C83127891   3.148   5.038   2.824 -0.1513 -0.7122 -0.1858
   31MOL   C83227892   3.064   4.941   2.878  0.5677  0.0838 -0.7863
   31MOL   C83327893   3.091   4.801   2.876  0.3757 -0.4752 -0.8904
   31MOL   C83427894   3.119   5.185   2.828  0.3305 -0.1763 -0.0161
   31MOL   C83527895   3.151   5.268   2.719 -0.3520 -0.2159 -0.0545
   31MOL   C83627896   3.132   5.409   2.731 -0.0834 -0.2170 -0.3096
   31MOL   C83727897   3.077   5.471   2.845 -0.2065 -0.1375 -0.1212
   31MOL   C83827898   3.038   5.383   2.949 -0.2542  0.1712 -0.6419
   31MOL   C83927899   3.060   5.244   2.945  0.6274  0.3181  0.3904
   31MOL   O84027900   3.063   5.609   2.857 -0.0670 -0.0519 -0.2946
   31MOL   H84127901   2.830   4.347   2.035 -1.2017  2.0662 -0.8454
   31MOL   H84227902   3.005   4.249   2.181  0.6525  1.0980  1.2853
   31MOL   H84327903   3.248   4.594   2.161  0.9529 -3.1462  2.0831
   31MOL   H84427904   3.080   4.706   2.002 -1.0087  1.2851  0.4568
   31MOL   H84527905   3.461   4.406   2.455  0.4380  0.5240 -0.9864
   31MOL   H84627906   3.467   4.536   2.672 -0.8399  2.5971 -0.5550
   31MOL   H84727907   3.038   4.583   2.642 -0.6552 -1.0098 -1.1230
   31MOL   H84827908   3.038   4.446   2.423 -1.5218  0.9299  0.5178
   31MOL   H84927909   3.381   4.824   2.694  0.6312  2.6084  0.0609
   31MOL   H85027910   3.337   5.061   2.723 -1.2536  1.4559  0.9361
   31MOL   H85127911   2.974   4.971   2.929 -0.0390 -0.0804 -1.7543
   31MOL   H85227912   3.022   4.730   2.917 -0.8246  0.2786 -1.5648
   31MOL   H85327913   3.206   5.231   2.634 -0.4192  0.0453 -0.2114
   31MOL   H85427914   3.161   5.484   2.658  4.6284  0.6044  2.2183
   31MOL   H85527915   2.991   5.427   3.036  0.1985 -1.1226  0.2692
   31MOL   H85627916   3.041   5.182   3.031  0.2491  1.9012  1.4895
   31MOL   C85727917   3.158   5.687   2.800 -0.0249 -0.1198  0.0818
   31MOL   C85827918   3.278   5.718   2.872 -0.5790  0.5208 -0.0359
   31MOL   C85927919   3.383   5.782   2.809 -1.3388 -0.2024 -0.7186
   31MOL   C86027920   3.365   5.834   2.678 -0.0381 -0.3530 -0.7743
   31MOL   C86127921   3.242   5.819   2.609  0.2390  0.8866 -0.7907
   31MOL   C86227922   3.143   5.737   2.667 -0.0429  0.2929  0.0717
   31MOL   S86327923   3.504   5.923   2.598  0.0151 -0.2014 -0.0630
   31MOL   O86427924   3.599   5.970   2.701  0.4854 -0.3167 -0.4029
   31MOL   O86527925   3.444   6.028   2.511 -0.5383  0.7444 -0.1529
   31MOL   C86627926   3.584   5.798   2.502  0.1548  0.2262  0.5598
   31MOL   C86727927   3.552   5.791   2.365 -0.5753  0.6202 -0.6274
   31MOL   C86827928   3.616   5.684   2.291  0.4225  0.7438  0.3467
   31MOL   C86927929   3.705   5.592   2.349  0.0627 -0.4363  0.1309
   31MOL   C87027930   3.737   5.607   2.483 -0.1183  0.1188 -0.1314
   31MOL   C87127931   3.679   5.711   2.555  0.2185 -0.2207  0.2688
   31MOL   O87227932   3.760   5.487   2.271 -0.6198 -0.4066  0.1294
   31MOL   C87327933   3.861   5.518   2.178 -0.0031 -0.4508  0.3039
   31MOL   C87427934   3.928   5.410   2.122  0.0780 -0.1932 -0.4799
   31MOL   C87527935   4.017   5.428   2.014 -0.1436 -0.1347  0.6892
   31MOL   C87627936   4.041   5.555   1.962 -0.2966 -0.3083 -0.5539
   31MOL   C87727937   3.976   5.666   2.019  0.3497 -0.2715 -0.5660
   31MOL   C87827938   3.884   5.647   2.125 -0.1572 -1.0711 -0.0255
   31MOL   C87927939   4.121   5.578   1.840 -0.0837 -0.4771  0.4429
   31MOL   C88027940   4.219   5.677   1.833  0.3442  0.0716  0.4170
   31MOL   C88127941   4.309   5.670   1.722  0.1110  0.0888  0.8906
   31MOL   C88227942   4.279   5.589   1.612  0.1915  0.2684  0.4428
   31MOL   C88327943   4.170   5.500   1.619 -0.1421  0.5469 -0.1099
   31MOL   C88427944   4.088   5.496   1.733 -0.0430  0.0010  0.0840
   31MOL   O88527945   4.361   5.596   1.506  0.1218 -0.0047 -0.1561
   31MOL   H88627946   3.293   5.686   2.974  2.7728  1.1571 -0.2704
   31MOL   H88727947   3.474   5.807   2.862 -0.7942 -1.6918 -0.9288
   31MOL   H88827948   3.228   5.861   2.511  1.3709 -2.0048 -2.2520
   31MOL   H88927949   3.064   5.708   2.601  0.0635 -4.3383  1.7909
   31MOL   H89027950   3.487   5.857   2.309 -0.6480 -0.6525 -2.0749
   31MOL   H89127951   3.592   5.674   2.186 -1.6430 -1.9854  1.0053
   31MOL   H89227952   3.809   5.542   2.531  1.5313  0.7661 -1.6498
   31MOL   H89327953   3.702   5.722   2.659 -2.1159  1.1000  0.6782
   31MOL   H89427954   3.905   5.310   2.157 -1.1863 -0.6382 -2.5309
   31MOL   H89527955   4.065   5.344   1.965  2.1149  1.6577 -0.2725
   31MOL   H89627956   4.001   5.766   1.988 -1.7828  0.6135  0.4629
   31MOL   H89727957   3.845   5.738   2.168  1.1431  0.2305 -1.5057
   31MOL   H89827958   4.231   5.738   1.922 -0.1011 -1.3794  1.5009
   31MOL   H89927959   4.399   5.730   1.716  0.1338  0.1175  1.5619
   31MOL   H90027960   4.152   5.431   1.537  0.4759 -0.0325  0.2387
   31MOL   H90127961   4.012   5.420   1.730 -1.4902  1.4210 -0.1020
   31MOL   H90227962   4.332   5.561   1.423  1.2139 -0.0446 -0.5283
   32MOL     C127963   4.697   7.768   8.033 -0.3848 -0.4990 -0.1099
   32MOL     C227964   4.775   7.717   8.144  0.0177  0.1117  0.3785
   32MOL     C327965   4.802   7.577   8.151  0.6679 -0.0658  0.3094
   32MOL     C427966   4.780   7.494   8.040  0.3681  0.4328 -0.0263
   32MOL     C527967   4.708   7.540   7.928  0.3095  0.2518 -0.3564
   32MOL     C627968   4.669   7.679   7.921  0.3961  0.5309 -0.0508
   32MOL     S727969   4.837   7.313   8.048  0.0610 -0.0108 -0.2657
   32MOL     O827970   4.931   7.294   8.162  0.6749 -0.4317 -0.4591
   32MOL     O927971   4.886   7.267   7.916 -0.1954 -0.1913  0.0521
   32MOL    C1027972   4.689   7.216   8.071  0.5843  0.4310 -0.6321
   32MOL    C1127973   4.696   7.074   8.051 -0.4923 -0.4463  0.3701
   32MOL    C1227974   4.581   6.996   8.064  0.7943  0.5401 -0.2756
   32MOL    C1327975   4.462   7.049   8.119  0.3693  0.3445  0.4118
   32MOL    C1427976   4.450   7.182   8.148  0.3173 -0.2239  0.3970
   32MOL    C1527977   4.563   7.270   8.121  0.0915 -0.0900  0.7384
   32MOL    O1627978   4.361   6.968   8.130 -0.5010  0.2666  0.5599
   32MOL    C1727979   4.363   6.882   8.239 -0.0934  0.1447 -0.2354
   32MOL    C1827980   4.394   6.925   0.000  0.6348 -0.9815 -0.3397
   32MOL    C1927981   4.400   6.835   0.111  0.2583 -0.4396  0.2055
   32MOL    C2027982   4.361   6.695   0.087 -0.9220 -0.6245  0.3099
   32MOL    C2127983   4.329   6.656   8.321 -0.1461 -0.3629  0.0837
   32MOL    C2227984   4.318   6.750   8.212  0.5605 -0.4464 -1.0276
   32MOL    C2327985   4.370   6.598   0.197  0.4928 -0.0394 -0.0487
   32MOL    C2427986   4.303   6.478   0.197  0.1021 -0.4544  0.2417
   32MOL    C2527987   4.331   6.389   0.296  0.2277  0.3491  0.1143
   32MOL    C2627988   4.419   6.416   0.401  0.1357 -0.6952  0.8447
   32MOL    C2727989   4.472   6.543   0.413  0.2781 -0.1687 -0.1653
   32MOL    C2827990   4.447   6.635   0.313  0.5733  0.6277 -0.6594
   32MOL    O2927991   4.444   6.323   0.497  0.5210  0.3845  0.9148
   32MOL    H3027992   4.787   7.775   8.234 -0.1408  3.2080 -1.5289
   32MOL    H3127993   4.865   7.548   8.234  2.3350  1.0153 -0.5472
   32MOL    H3227994   4.703   7.481   7.838  0.2565 -0.5141  0.1444
   32MOL    H3327995   4.615   7.712   7.833 -0.2399 -0.0329  0.1269
   32MOL    H3427996   4.789   7.025   8.024 -0.6889 -0.0413 -1.1048
   32MOL    H3527997   4.583   6.891   8.040  1.2974  0.1209  1.5317
   32MOL    H3627998   4.361   7.223   8.194 -0.8002 -1.5649 -0.5434
   32MOL    H3727999   4.553   7.377   8.133 -0.9918 -0.1819  0.6787
   32MOL    H3828000   4.419   7.027   0.023 -1.5074 -1.0925  2.7916
   32MOL    H3928001   4.420   6.875   0.209  1.9305 -1.1575  0.1747
   32MOL    H4028002   4.308   6.550   8.311 -0.0135 -0.7858  3.5963
   32MOL    H4128003   4.291   6.707   8.117 -0.1845 -1.6679 -0.2789
   32MOL    H4228004   4.236   6.448   0.117 -1.1747 -1.1065  1.5242
   32MOL    H4328005   4.282   6.293   0.290 -0.4074  0.5424  1.9102
   32MOL    H4428006   4.548   6.566   0.486 -1.9896  1.1702  1.8184
   32MOL    H4528007   4.503   6.728   0.316  0.7460  0.5061 -0.1146
   32MOL    H4628008   4.664   7.871   8.027  1.0692  0.0698  1.1890
   32MOL    C4728009   4.565   6.256   0.476 -0.3963 -0.1794  0.3854
   32MOL    C4828010   4.557   6.135   0.401  0.2340  0.2225  0.1666
   32MOL    C4928011   4.678   6.068   0.377  0.2675  0.4505  0.3582
   32MOL    C5028012   4.803   6.123   0.424 -0.5032  0.0712  0.3746
   32MOL    C5128013   4.800   6.251   0.489 -0.3478  0.1578  0.7720
   32MOL    C5228014   4.684   6.316   0.521  0.2464 -0.4167  0.4013
   32MOL    S5328015   4.966   6.065   0.369  0.2384  0.2453 -0.6571
   32MOL    O5428016   5.024   6.174   0.293  0.2813 -0.0736  0.4144
   32MOL    O5528017   4.942   5.935   0.304  0.5314 -0.4418 -0.8989
   32MOL    C5628018   5.053   6.031   0.524 -0.8597 -0.4329 -0.1489
   32MOL    C5728019   5.177   6.092   0.555 -0.1562 -0.0521 -0.9688
   32MOL    C5828020   5.220   6.087   0.687  0.5632  0.0227  0.3528
   32MOL    C5928021   5.149   6.020   0.792  0.0567 -0.7023  0.0394
   32MOL    C6028022   5.035   5.947   0.758 -0.3830 -0.3085  0.3023
   32MOL    C6128023   4.985   5.963   0.629  0.8470  0.1131 -0.3222
   32MOL    O6228024   5.198   6.018   0.921  0.1359 -0.1946  0.1639
   32MOL    C6328025   5.108   6.018   1.021 -0.3420  0.1491  0.5431
   32MOL    C6428026   5.056   6.139   1.066 -0.0145  0.2949  0.6754
   32MOL    C6528027   4.963   6.140   1.167 -0.0300 -0.2590 -0.6441
   32MOL    C6628028   4.926   6.016   1.236  0.0757  0.6517 -0.3684
   32MOL    C6728029   4.988   5.896   1.196  0.5246 -0.0968  0.3110
   32MOL    C6828030   5.071   5.897   1.083 -0.5129 -0.8696 -0.6823
   32MOL    C6928031   4.835   6.020   1.356  0.4335 -0.2998  0.4217
   32MOL    C7028032   4.749   5.919   1.396  0.0574  0.1921  0.0322
   32MOL    C7128033   4.638   5.934   1.480 -0.3920  0.0155  0.6212
   32MOL    C7228034   4.623   6.056   1.543 -0.3447 -0.1804  0.6108
   32MOL    C7328035   4.712   6.164   1.518 -0.1177 -0.3079 -0.7318
   32MOL    C7428036   4.816   6.146   1.423 -0.2093  0.7048  0.3042
   32MOL    O7528037   4.518   6.077   1.627  0.2332  0.5952  0.2230
   32MOL    H7628038   4.467   6.087   0.366 -0.2590  1.2566  0.0104
   32MOL    H7728039   4.683   5.982   0.312 -2.9757  0.1119  0.4508
   32MOL    H7828040   4.892   6.300   0.520 -1.4887  2.0242  1.2968
   32MOL    H7928041   4.695   6.401   0.587 -0.5822  1.0626 -1.3093
   32MOL    H8028042   5.234   6.137   0.475  1.1823 -1.3803 -0.7917
   32MOL    H8128043   5.314   6.131   0.718  0.1656  0.0762  1.5218
   32MOL    H8228044   4.977   5.902   0.837 -2.1121  0.1929 -0.6764
   32MOL    H8328045   4.892   5.916   0.602  0.9725 -0.2951 -0.0393
   32MOL    H8428046   5.095   6.230   1.022 -0.8373 -0.1772 -1.0587
   32MOL    H8528047   4.907   6.230   1.189 -2.0869 -1.2471 -1.6571
   32MOL    H8628048   4.965   5.805   1.251 -2.5655  0.9081  0.7818
   32MOL    H8728049   5.106   5.805   1.040  0.8856  0.8194 -3.3223
   32MOL    H8828050   4.765   5.827   1.341 -1.5278  1.0307 -1.9058
   32MOL    H8928051   4.571   5.851   1.494 -1.0078  0.1939 -1.2400
   32MOL    H9028052   4.704   6.263   1.561  1.3130 -0.3606 -0.3485
   32MOL    H9128053   4.888   6.224   1.405  0.4752 -0.0651 -0.3823
   32MOL    C9228054   4.386   6.026   1.607 -0.1050 -0.1552  0.5820
   32MOL    C9328055   4.306   6.019   1.717  0.7696 -0.1545  0.1407
   32MOL    C9428056   4.176   5.973   1.709  0.8977  0.1818 -0.7320
   32MOL    C9528057   4.127   5.937   1.582 -0.2905 -0.1472  0.6507
   32MOL    C9628058   4.211   5.934   1.473 -0.4544 -0.2029  0.0753
   32MOL    C9728059   4.340   5.975   1.479  0.3493  0.0632  0.3823
   32MOL    S9828060   3.951   5.899   1.575  0.4183 -0.0766  0.1980
   32MOL    O9928061   3.888   6.016   1.514 -0.2712 -0.3271  0.0340
   32MOL   O10028062   3.911   5.844   1.708  0.0012 -0.0654  0.9553
   32MOL   C10128063   3.926   5.768   1.455  0.2842  0.0595 -0.2104
   32MOL   C10228064   3.903   5.637   1.506  0.0992  0.4754 -0.1851
   32MOL   C10328065   3.888   5.531   1.414 -0.0494  0.0799  0.2380
   32MOL   C10428066   3.890   5.550   1.274 -0.1128 -0.4030 -0.0630
   32MOL   C10528067   3.907   5.685   1.228 -0.3986 -0.0750 -0.6785
   32MOL   C10628068   3.930   5.792   1.317 -0.1998  0.0654 -0.0134
   32MOL   O10728069   3.856   5.450   1.188  0.0607  0.0077  0.0557
   32MOL   C10828070   3.921   5.335   1.195 -0.8765 -0.3403  0.3617
   32MOL   C10928071   3.859   5.221   1.246 -0.1809  0.3646 -0.2603
   32MOL   C11028072   3.932   5.102   1.235  0.7032  0.3703 -0.3206
   32MOL   C11128073   4.067   5.093   1.203 -0.3336  0.0652  0.8214
   32MOL   C11228074   4.127   5.212   1.154  0.3865 -0.1410  0.2459
   32MOL   C11328075   4.053   5.331   1.145  0.4113  0.0636  0.0766
   32MOL   C11428076   4.131   4.962   1.180  0.4402  0.1262  0.1763
   32MOL   C11528077   4.142   4.868   1.276  0.5474  1.2001  0.0081
   32MOL   C11628078   4.194   4.736   1.252  0.9920 -0.1794  0.3385
   32MOL   C11728079   4.250   4.712   1.122  0.2051 -0.2318 -0.0417
   32MOL   C11828080   4.238   4.809   1.019  1.0255  0.2323 -0.3243
   32MOL   C11928081   4.175   4.933   1.047  0.5426  0.5094  0.5680
   32MOL   O12028082   4.300   4.590   1.099 -0.1146  0.3762 -0.2428
   32MOL   H12128083   4.339   6.047   1.816  3.0181  1.8049 -1.1302
   32MOL   H12228084   4.121   5.951   1.799  0.1293  0.2959 -1.1755
   32MOL   H12328085   4.163   5.886   1.389 -1.2199  2.3296 -0.9671
   32MOL   H12428086   4.411   5.962   1.398  1.2350 -0.3996  1.2272
   32MOL   H12528087   3.895   5.616   1.612  2.6312  0.3974  0.0259
   32MOL   H12628088   3.860   5.436   1.458 -3.5549  0.5116 -0.8791
   32MOL   H12728089   3.887   5.708   1.124 -1.5756 -1.0571 -0.6901
   32MOL   H12828090   3.933   5.895   1.285 -1.8676 -0.0370 -0.5496
   32MOL   H12928091   3.757   5.218   1.281 -1.2576  0.4942 -3.2414
   32MOL   H13028092   3.892   5.010   1.275  1.5724  0.0383 -0.1977
   32MOL   H13128093   4.229   5.206   1.120  0.0374 -0.5731 -0.7540
   32MOL   H13228094   4.089   5.422   1.100 -0.8857  0.5082 -0.0928
   32MOL   H13328095   4.103   4.892   1.374 -3.4463  0.7070 -1.3887
   32MOL   H13428096   4.210   4.670   1.336  0.1648 -1.5132 -0.5247
   32MOL   H13528097   4.262   4.793   0.915 -0.0500 -2.5099 -0.1850
   32MOL   H13628098   4.169   5.005   0.967  0.4227  0.4460  0.5209
   32MOL   C13728099   4.237   4.472   1.145 -0.5249  0.4720  0.3512
   32MOL   C13828100   4.294   4.387   1.243  0.5463 -0.3633  0.0647
   32MOL   C13928101   4.226   4.273   1.280  0.3913 -0.4412  0.0667
   32MOL   C14028102   4.109   4.233   1.213  0.2506  0.6264  0.2657
   32MOL   C14128103   4.054   4.308   1.114 -0.0043 -0.4238 -0.0667
   32MOL   C14228104   4.117   4.431   1.087 -0.8035  0.0252 -0.3160
   32MOL   S14328105   4.022   4.089   1.277  0.0086 -0.6098 -0.0913
   32MOL   O14428106   4.125   3.993   1.324  0.3944 -0.4205  0.1015
   32MOL   O14528107   3.924   4.048   1.180  0.0620  0.5462  0.1521
   32MOL   C14628108   3.935   4.145   1.423 -0.4970  0.1800 -0.1875
   32MOL   C14728109   3.942   4.283   1.465 -0.3886 -0.2510  0.1380
   32MOL   C14828110   3.877   4.325   1.582 -0.6506 -0.1795  0.2537
   32MOL   C14928111   3.801   4.232   1.649 -0.0398  1.0725  0.1790
   32MOL   C15028112   3.793   4.100   1.606  0.8725 -0.6605 -0.0837
   32MOL   C15128113   3.857   4.057   1.492 -0.2290 -0.4638 -0.2535
   32MOL   O15228114   3.724   4.256   1.756  0.2449  0.1036 -0.0344
   32MOL   C15328115   3.777   4.291   1.875 -0.4192 -0.0875  0.0852
   32MOL   C15428116   3.892   4.228   1.927  0.0908 -0.2357  0.4734
   32MOL   C15528117   3.923   4.242   2.063  0.1970 -0.1364  0.1281
   32MOL   C15628118   3.845   4.320   2.152  0.2810 -0.5364 -0.5075
   32MOL   C15728119   3.752   4.407   2.087  0.7108 -0.6522 -0.6595
   32MOL   C15828120   3.713   4.393   1.953  0.3703  0.1729 -0.5334
   32MOL   C15928121   3.868   4.319   2.300 -0.0621  0.4529 -0.3842
   32MOL   C16028122   3.755   4.309   2.386 -0.8474  0.3597  1.1485
   32MOL   C16128123   3.779   4.311   2.527  0.3843 -0.1429  0.4608
   32MOL   C16228124   3.906   4.306   2.589  0.3996  0.6362 -0.6545
   32MOL   C16328125   4.020   4.320   2.501  0.0362 -0.0503  0.3443
   32MOL   C16428126   3.994   4.318   2.361 -0.3809  0.3711 -0.0876
   32MOL   O16528127   3.910   4.320   2.721  0.3698  0.1452  0.1519
   32MOL   H16628128   4.393   4.406   1.282  0.1053 -2.4235  2.2358
   32MOL   H16728129   4.269   4.202   1.349  0.7502  1.7446  2.1571
   32MOL   H16828130   3.961   4.272   1.072  0.3348 -0.7647 -0.5297
   32MOL   H16928131   4.067   4.490   1.012 -0.9042  3.2723  2.1737
   32MOL   H17028132   4.002   4.357   1.414  0.6955 -0.7048  0.7460
   32MOL   H17128133   3.875   4.430   1.607  0.7498  0.3952 -1.8761
   32MOL   H17228134   3.741   4.029   1.668  1.5401 -0.1873  1.0341
   32MOL   H17328135   3.846   3.953   1.467  0.5080 -0.7126  0.4428
   32MOL   H17428136   3.952   4.158   1.871 -1.6975  0.9276 -3.1142
   32MOL   H17528137   4.010   4.191   2.103  0.7962  1.2399  0.6065
   32MOL   H17628138   3.699   4.479   2.149  2.6809 -0.6832  1.1408
   32MOL   H17728139   3.637   4.455   1.909  1.0486  0.4728 -1.3077
   32MOL   H17828140   3.651   4.303   2.358 -1.8273  1.1948  4.3320
   32MOL   H17928141   3.695   4.298   2.594  0.0056 -0.4911 -0.0758
   32MOL   H18028142   4.121   4.337   2.534 -0.2849 -1.5753  2.1665
   32MOL   H18128143   4.074   4.325   2.289 -1.7841  1.3591 -1.5858
   32MOL   C18228144   3.917   4.209   2.802  0.2444 -0.2771  0.0238
   32MOL   C18328145   4.042   4.160   2.849 -0.1926 -0.0474 -0.5278
   32MOL   C18428146   4.055   4.042   2.932 -0.1266 -0.4599  0.6920
   32MOL   C18528147   3.938   3.989   2.987 -0.4450 -0.4837 -0.3242
   32MOL   C18628148   3.810   4.047   2.949 -0.7252 -0.4390  0.2071
   32MOL   C18728149   3.797   4.151   2.852 -0.7480 -0.2682 -0.3135
   32MOL   S18828150   3.949   3.840   3.089  0.5383 -0.1778  0.3318
   32MOL   O18928151   3.927   3.889   3.226  0.1848 -0.0118 -0.3085
   32MOL   O19028152   4.068   3.761   3.055  0.3788  0.2719  0.5105
   32MOL   C19128153   3.809   3.749   3.042 -0.2889  0.1125  0.5636
   32MOL   C19228154   3.694   3.754   3.123 -0.5461 -0.4749 -0.4136
   32MOL   C19328155   3.581   3.695   3.082 -0.0675 -0.3565  0.2523
   32MOL   C19428156   3.582   3.614   2.966  0.6419 -0.6296 -0.0123
   32MOL   C19528157   3.700   3.604   2.887 -0.1375  0.3419  0.0568
   32MOL   C19628158   3.814   3.677   2.925 -0.2440 -0.2428  0.4802
   32MOL   O19728159   3.472   3.555   2.919 -0.3126  0.1215  0.7020
   32MOL   C19828160   3.402   3.607   2.810  0.1174 -0.2099 -0.3147
   32MOL   C19928161   3.276   3.665   2.839  0.6060 -0.0972 -0.4377
   32MOL   C20028162   3.199   3.715   2.735 -0.0796  0.9277 -0.0399
   32MOL   C20128163   3.235   3.705   2.599 -0.0809  0.2636  0.5083
   32MOL   C20228164   3.366   3.649   2.568 -0.1530  0.1926  1.0168
   32MOL   C20328165   3.447   3.601   2.675  0.1386 -0.3065 -0.1333
   32MOL   C20428166   3.148   3.768   2.495 -0.1734 -0.0757  0.3432
   32MOL   C20528167   3.204   3.853   2.393 -0.8000  0.4290 -0.0751
   32MOL   C20628168   3.119   3.906   2.295  0.4796  0.2016 -0.9415
   32MOL   C20728169   2.980   3.874   2.285 -0.6970  0.5489  0.0446
   32MOL   C20828170   2.929   3.789   2.389  0.4681 -0.6425 -0.1190
   32MOL   C20928171   3.012   3.735   2.488 -0.4487  0.2869 -0.8040
   32MOL   O21028172   2.914   3.929   2.173 -0.8702 -0.2599  0.3743
   32MOL   H21128173   4.133   4.209   2.818 -0.0214 -0.5108 -0.7627
   32MOL   H21228174   4.152   4.005   2.961 -0.5459 -2.0593  0.1194
   32MOL   H21328175   3.719   3.999   2.982  0.2290 -0.3373  3.1543
   32MOL   H21428176   3.697   4.182   2.827 -1.1222 -0.8200  0.4994
   32MOL   H21528177   3.693   3.798   3.222  0.8549  1.2227 -1.1051
   32MOL   H21628178   3.494   3.712   3.144  1.0139  1.5357  1.3311
   32MOL   H21728179   3.689   3.537   2.804  1.1139  0.4218 -0.1929
   32MOL   H21828180   3.906   3.672   2.869 -0.8392  0.0681 -0.5370
   32MOL   H21928181   3.248   3.677   2.942 -0.2107 -0.9570 -0.5506
   32MOL   H22028182   3.105   3.762   2.761 -2.4349 -1.4456 -3.7834
   32MOL   H22128183   3.411   3.642   2.470 -0.4366  1.2302  0.8060
   32MOL   H22228184   3.545   3.565   2.645  1.1697 -0.4780  3.2635
   32MOL   H22328185   3.309   3.879   2.394 -0.2757 -1.4587 -2.1714
   32MOL   H22428186   3.167   3.967   2.220  1.0436  0.0553 -0.7002
   32MOL   H22528187   2.824   3.763   2.392  0.4191 -0.6425 -1.3921
   32MOL   H22628188   2.957   3.672   2.556  1.4426  0.9646  1.3872
   32MOL   C22728189   2.776   3.916   2.171 -0.4287  0.3214 -0.8060
   32MOL   C22828190   2.702   4.012   2.239  0.0036 -0.4181  0.5817
   32MOL   C22928191   2.559   4.008   2.234 -0.8219  0.7372  0.1034
   32MOL   C23028192   2.495   3.908   2.166 -0.1134 -0.1691  0.4487
   32MOL   C23128193   2.571   3.815   2.094  0.4979 -0.0717 -0.4486
   32MOL   C23228194   2.714   3.813   2.099  0.1030 -0.2203 -0.2151
   32MOL   S23328195   2.315   3.910   2.153  0.2370 -0.2179  0.1856
   32MOL   O23428196   2.259   4.029   2.218  0.3144 -0.7386 -0.1935
   32MOL   O23528197   2.280   3.772   2.199 -0.4605 -0.3708  0.0614
   32MOL   C23628198   2.277   3.910   1.974  0.6803  0.2518 -0.3655
   32MOL   C23728199   2.335   4.003   1.885 -0.8052  0.7735  0.2782
   32MOL   C23828200   2.309   4.002   1.753 -0.8169  0.7165 -0.1771
   32MOL   C23928201   2.212   3.913   1.702 -0.2233 -0.5683  0.3976
   32MOL   C24028202   2.152   3.821   1.788 -0.1053 -0.6913 -0.0851
   32MOL   C24128203   2.182   3.824   1.924  0.0852  0.8299  0.3963
   32MOL   O24228204   2.178   3.918   1.564  0.1800 -0.2496 -0.5266
   32MOL   C24328205   2.183   4.034   1.498 -0.0571 -0.4130  0.3724
   32MOL   C24428206   2.254   4.022   1.377 -0.7167 -0.3399 -0.2189
   32MOL   C24528207   2.272   4.140   1.306 -0.3780 -0.3194 -0.1490
   32MOL   C24628208   2.198   4.262   1.334 -0.6960  1.0358 -0.1712
   32MOL   C24728209   2.121   4.268   1.447 -0.7488 -0.1364  0.3117
   32MOL   C24828210   2.115   4.155   1.533 -0.2055 -0.0990 -0.4595
   32MOL   C24928211   2.195   4.366   1.228 -0.0144 -0.4162 -0.0068
   32MOL   C25028212   2.197   4.505   1.260  0.5104  0.6638  0.1416
   32MOL   C25128213   2.194   4.609   1.165  0.8628 -0.1060 -0.0949
   32MOL   C25228214   2.194   4.578   1.031 -0.4632  0.0880  0.3650
   32MOL   C25328215   2.186   4.441   0.991  0.2801  0.1384 -0.3393
   32MOL   C25428216   2.185   4.338   1.092 -0.1661 -0.6505 -0.2301
   32MOL   O25528217   2.187   4.674   0.933 -0.0002  0.2851  0.6521
   32MOL   H25628218   2.754   4.079   2.306 -1.0182  0.2020  0.7621
   32MOL   H25728219   2.492   4.073   2.289 -1.1798  0.2803  0.2144
   32MOL   H25828220   2.509   3.737   2.053  1.8097 -0.9966 -0.7014
   32MOL   H25928221   2.775   3.742   2.044 -0.1206 -1.1153  0.6791
   32MOL   H26028222   2.403   4.077   1.926  0.2379 -0.0376  0.0281
   32MOL   H26128223   2.356   4.072   1.685  0.7680  0.7390  0.9091
   32MOL   H26228224   2.081   3.748   1.753  3.3020 -4.0079 -0.3204
   32MOL   H26328225   2.133   3.752   1.988 -0.8941 -0.1600 -1.4272
   32MOL   H26428226   2.287   3.927   1.338  0.2488 -1.1680  2.4953
   32MOL   H26528227   2.307   4.139   1.204 -0.6378 -1.1794 -0.2365
   32MOL   H26628228   2.050   4.346   1.469  0.3561 -0.0089  3.5494
   32MOL   H26728229   2.045   4.163   1.616 -0.0461 -1.5057 -0.1854
   32MOL   H26828230   2.199   4.533   1.364 -0.0365 -0.8892  0.5894
   32MOL   H26928231   2.204   4.712   1.198  1.4434 -0.1123 -0.2410
   32MOL   H27028232   2.183   4.416   0.886 -1.2542  1.4669 -0.6237
   32MOL   H27128233   2.187   4.236   1.056  3.0871 -1.0821  1.0323
   32MOL   C27228234   2.298   4.705   0.859  0.3747 -0.2249 -0.2029
   32MOL   C27328235   2.341   4.623   0.758  0.0846  0.2799 -0.4315
   32MOL   C27428236   2.443   4.657   0.662 -0.7152 -0.3442 -0.3788
   32MOL   C27528237   2.500   4.790   0.674  0.2209 -0.3977 -0.0443
   32MOL   C27628238   2.460   4.871   0.784  0.1596 -0.3209  0.0862
   32MOL   C27728239   2.360   4.831   0.876 -0.3937 -0.3321  0.0299
   32MOL   S27828240   2.637   4.844   0.566 -0.1051 -0.0671 -0.3321
   32MOL   O27928241   2.599   4.972   0.503 -0.5046 -0.2280  0.4901
   32MOL   O28028242   2.681   4.730   0.480 -0.1120  0.3967  0.2608
   32MOL   C28128243   2.782   4.866   0.665  0.1422 -0.6592  0.3926
   32MOL   C28228244   2.844   4.990   0.681 -0.2932  0.5199  0.4456
   32MOL   C28328245   2.954   4.999   0.771 -0.4051  0.1615 -0.7426
   32MOL   C28428246   2.991   4.891   0.855  1.2039  0.4013 -0.2629
   32MOL   C28528247   2.936   4.769   0.828  0.1815 -0.1151 -1.0537
   32MOL   C28628248   2.829   4.753   0.738  0.8818  0.9612 -0.1098
   32MOL   O28728249   3.089   4.898   0.955  0.1144  0.1900  0.7697
   32MOL   C28828250   3.070   4.957   1.076 -0.1329  0.3249 -0.0051
   32MOL   C28928251   3.139   4.904   1.187 -0.6760  0.1867  0.3349
   32MOL   C29028252   3.104   4.935   1.317  0.5626 -0.6075  0.6962
   32MOL   C29128253   3.022   5.045   1.339  0.6270 -0.2240 -0.0624
   32MOL   C29228254   2.955   5.101   1.230 -0.2287 -0.1244  0.2220
   32MOL   C29328255   2.969   5.051   1.095  0.1547 -0.2214  0.6507
   32MOL   C29428256   2.997   5.104   1.471  0.0918 -0.4533 -0.3004
   32MOL   C29528257   3.059   5.228   1.502 -0.2400 -0.6843 -0.5083
   32MOL   C29628258   3.056   5.275   1.636 -0.0697 -0.1611 -0.1014
   32MOL   C29728259   3.009   5.200   1.745  0.5960  0.0728 -0.3271
   32MOL   C29828260   2.946   5.078   1.711 -0.2509  0.3146  0.3061
   32MOL   C29928261   2.941   5.032   1.577  0.0221 -0.8007  0.3095
   32MOL   O30028262   3.026   5.249   1.869  0.1669  0.2604  0.0175
   32MOL   H30128263   2.287   4.531   0.739  0.5691 -0.4041  1.4151
   32MOL   H30228264   2.480   4.586   0.589 -1.7231 -0.6701 -0.5908
   32MOL   H30328265   2.505   4.967   0.807 -0.3987 -0.3190  1.2222
   32MOL   H30428266   2.329   4.905   0.949 -1.3240 -0.1209 -0.5752
   32MOL   H30528267   2.816   5.078   0.626 -1.8016  0.3915  0.9916
   32MOL   H30628268   3.010   5.091   0.784  3.6997 -2.2115 -0.6703
   32MOL   H30728269   2.969   4.675   0.870 -2.3585  0.0326  1.4869
   32MOL   H30828270   2.771   4.663   0.727  0.9267  0.6838  1.7318
   32MOL   H30928271   3.215   4.831   1.162 -0.1147  0.9998 -0.3822
   32MOL   H31028272   3.146   4.895   1.408 -0.3163  2.5022  2.5615
   32MOL   H31128273   2.879   5.177   1.236  0.0320  0.0848  0.9395
   32MOL   H31228274   2.909   5.096   1.018 -0.2936 -0.0512  1.0982
   32MOL   H31328275   3.097   5.284   1.418  0.4763  0.5899  0.6477
   32MOL   H31428276   3.097   5.369   1.668 -1.1813  0.2621  0.1079
   32MOL   H31528277   2.905   5.027   1.797 -0.5653  1.2088  0.6961
   32MOL   H31628278   2.888   4.940   1.557  0.6951 -0.9096 -1.0181
   32MOL   C31728279   3.028   5.165   1.978 -0.0598  0.2622 -0.5172
   32MOL   C31828280   2.960   5.206   2.092  0.6265  1.5358  0.3747
   32MOL   C31928281   2.980   5.138   2.216 -0.5350 -0.2138 -0.3701
   32MOL   C32028282   3.066   5.029   2.219 -0.1601  0.6600 -0.2094
   32MOL   C32128283   3.134   4.991   2.100  0.2382 -0.1699  0.1203
   32MOL   C32228284   3.123   5.061   1.976 -0.1344  0.1503 -0.1280
   32MOL   S32328285   3.103   4.919   2.359 -0.0713 -0.0428  0.0040
   32MOL   O32428286   3.211   4.974   2.444 -0.1459  0.1584  0.8691
   32MOL   O32528287   3.118   4.784   2.305 -0.5810 -0.1406 -0.5396
   32MOL   C32628288   2.954   4.916   2.462  0.5610 -0.2574 -0.1659
   32MOL   C32728289   2.950   4.997   2.570 -0.0552  0.4740 -0.1096
   32MOL   C32828290   2.839   4.993   2.661  0.1109  0.4394  0.1467
   32MOL   C32928291   2.726   4.913   2.616 -0.4498 -0.5535 -0.4207
   32MOL   C33028292   2.731   4.830   2.506  0.2277  0.3616 -0.1712
   32MOL   C33128293   2.851   4.824   2.433  0.1114  0.4372  0.2579
   32MOL   O33228294   2.612   4.911   2.687  0.7763 -0.0556 -0.5883
   32MOL   C33328295   2.598   4.807   2.779  0.2961  0.5842 -0.5457
   32MOL   C33428296   2.487   4.723   2.765 -0.6686  0.2422  0.1412
   32MOL   C33528297   2.475   4.606   2.840 -0.5392  0.9067  0.5934
   32MOL   C33628298   2.560   4.580   2.957  0.1311 -1.0344 -0.2818
   32MOL   C33728299   2.667   4.670   2.975  0.2866  0.7786  0.3532
   32MOL   C33828300   2.688   4.783   2.891 -0.3859 -0.5778  0.4029
   32MOL   C33928301   2.539   4.475   3.054  0.5050 -0.0345 -0.0691
   32MOL   C34028302   2.540   4.338   3.013 -0.1482  0.7165 -0.3119
   32MOL   C34128303   2.534   4.231   3.105 -0.2365 -0.1015  0.4731
   32MOL   C34228304   2.527   4.257   3.243  0.1357 -0.6530  0.0540
   32MOL   C34328305   2.541   4.391   3.286  0.2735 -0.1350 -0.6114
   32MOL   C34428306   2.549   4.499   3.192 -0.7091  0.5906  0.8977
   32MOL   O34528307   2.502   4.156   3.326  0.2990  0.2671  0.0540
   32MOL   H34628308   2.891   5.289   2.084  0.6742  1.3544 -2.4598
   32MOL   H34728309   2.923   5.163   2.305  1.4162  0.7981  0.6288
   32MOL   H34828310   3.209   4.914   2.105  0.1111 -0.5346 -2.7332
   32MOL   H34928311   3.184   5.034   1.891 -2.5136 -2.2356 -1.1572
   32MOL   H35028312   3.038   5.056   2.594 -0.5587  0.9829  0.5355
   32MOL   H35128313   2.837   5.058   2.748  1.1590 -0.9349  1.2230
   32MOL   H35228314   2.644   4.768   2.489  0.1356  0.3727  0.2516
   32MOL   H35328315   2.857   4.768   2.341  0.6451  0.2086  0.4328
   32MOL   H35428316   2.417   4.741   2.685 -1.8179 -1.4933  0.7329
   32MOL   H35528317   2.396   4.535   2.819 -0.1345  0.4573  0.5928
   32MOL   H35628318   2.742   4.670   3.052  0.3287 -1.2137  0.3465
   32MOL   H35728319   2.777   4.837   2.917  0.3892  0.5110 -4.0502
   32MOL   H35828320   2.540   4.312   2.908 -1.2444 -1.2040  0.1551
   32MOL   H35928321   2.528   4.133   3.059 -0.0830  0.4830 -0.8147
   32MOL   H36028322   2.524   4.425   3.387 -0.0040 -0.5333 -0.5225
   32MOL   H36128323   2.556   4.599   3.232  1.1831  0.9985 -0.3761
   32MOL   C36228324   2.547   4.160   3.456 -0.4565 -0.5106  1.2967
   32MOL   C36328325   2.455   4.177   3.563 -0.5558 -0.0070 -0.5065
   32MOL   C36428326   2.506   4.181   3.698 -0.4368 -0.2491 -0.4904
   32MOL   C36528327   2.645   4.196   3.717 -0.8119 -0.2089  0.1754
   32MOL   C36628328   2.733   4.189   3.604 -0.1399  0.2192  0.5282
   32MOL   C36728329   2.689   4.167   3.478  0.4733  0.5359 -0.1462
   32MOL   S36828330   2.705   4.213   3.888 -0.1707 -0.2870 -0.2018
   32MOL   O36928331   2.681   4.352   3.930  0.0035 -0.5468 -0.3510
   32MOL   O37028332   2.842   4.161   3.893  0.6366  0.6264 -0.6940
   32MOL   C37128333   2.605   4.099   3.980  0.2935 -0.2721 -1.4782
   32MOL   C37228334   2.618   3.962   3.945 -0.1368 -0.4277 -0.0785
   32MOL   C37328335   2.527   3.868   4.001 -0.8679 -0.5467  0.1894
   32MOL   C37428336   2.419   3.920   4.078 -0.0898  0.1838  0.0245
   32MOL   C37528337   2.404   4.054   4.105 -0.4734 -0.3172  1.2496
   32MOL   C37628338   2.496   4.146   4.058  0.0495 -0.1502 -0.2850
   32MOL   O37728339   2.328   3.830   4.126  0.3319 -0.0164  0.6933
   32MOL   C37828340   2.328   3.795   4.259 -0.6643  0.6241  0.1706
   32MOL   C37928341   2.369   3.664   4.290  0.3331 -0.0874 -0.1317
   32MOL   C38028342   2.374   3.623   4.432 -0.2429 -0.4614  0.1392
   32MOL   C38128343   2.321   3.704   4.535  0.5847 -0.0007 -0.3376
   32MOL   C38228344   2.286   3.835   4.500  0.1324  0.0943 -0.8072
   32MOL   C38328345   2.281   3.878   4.364 -0.5389  0.0565  0.6379
   32MOL   C38428346   2.310   3.664   4.685  0.1435  0.2957 -0.2822
   32MOL   C38528347   2.400   3.719   4.777  0.4564  0.6207  0.4725
   32MOL   C38628348   2.393   3.692   4.914 -0.5605  0.0783 -0.1165
   32MOL   C38728349   2.291   3.606   4.958 -0.0938 -0.5387  0.4807
   32MOL   C38828350   2.200   3.542   4.875  0.4331 -0.8030 -0.1910
   32MOL   C38928351   2.214   3.571   4.738 -0.5725  0.4942 -0.2196
   32MOL   O39028352   2.277   3.590   5.100 -0.3128 -0.1343 -0.1271
   32MOL   H39128353   2.348   4.172   3.552 -0.4253 -2.7510 -0.9153
   32MOL   H39228354   2.435   4.175   3.780  0.5505  2.2715  0.6348
   32MOL   H39328355   2.839   4.193   3.623  0.2909 -1.4152 -1.4230
   32MOL   H39428356   2.755   4.158   3.393  0.9791 -0.9897  0.4018
   32MOL   H39528357   2.702   3.921   3.890  0.2807  1.3754 -0.8279
   32MOL   H39628358   2.538   3.764   3.973 -0.3830 -0.5074  0.2404
   32MOL   H39728359   2.323   4.085   4.168 -0.2548 -1.7039  2.2209
   32MOL   H39828360   2.484   4.251   4.082 -2.4187 -0.1593 -1.3598
   32MOL   H39928361   2.398   3.605   4.204  1.3616  1.0010 -0.5446
   32MOL   H40028362   2.420   3.528   4.454  0.4534  0.3366  2.2592
   32MOL   H40128363   2.263   3.903   4.580  0.1325 -0.7927 -0.0487
   32MOL   H40228364   2.244   3.978   4.343 -2.1648 -0.2710  1.8273
   32MOL   H40328365   2.468   3.796   4.743 -0.4282  1.3085  0.2500
   32MOL   H40428366   2.463   3.739   4.981 -0.8215 -0.1939  0.3570
   32MOL   H40528367   2.121   3.474   4.903 -1.5255  1.3445 -0.3449
   32MOL   H40628368   2.137   3.531   4.674 -0.5931  0.4125 -0.1431
   32MOL   C40728369   2.267   3.705   5.178 -0.3945 -0.2499 -0.7708
   32MOL   C40828370   2.351   3.718   5.289  0.3007 -0.5975 -0.0611
   32MOL   C40928371   2.339   3.833   5.366  0.3765 -0.8280 -0.3299
   32MOL   C41028372   2.249   3.932   5.336 -0.0144 -0.2536  0.7541
   32MOL   C41128373   2.155   3.917   5.231  0.2899 -0.1999  0.7182
   32MOL   C41228374   2.162   3.801   5.158 -0.4244  0.3964  0.0256
   32MOL   S41328375   2.263   4.088   5.427 -0.2188 -0.3178 -0.3016
   32MOL   O41428376   2.313   4.049   5.558  0.1882  0.2375  0.4174
   32MOL   O41528377   2.146   4.177   5.405 -0.0696  0.2282 -0.3259
   32MOL   C41628378   2.407   4.154   5.345  0.0405 -0.3147 -0.6119
   32MOL   C41728379   2.399   4.259   5.253  0.1576 -0.2332 -0.0465
   32MOL   C41828380   2.515   4.306   5.195  0.3018 -1.0316  0.5769
   32MOL   C41928381   2.640   4.254   5.234  0.0264  0.4494  0.1207
   32MOL   C42028382   2.646   4.150   5.327  0.3756  1.2133  0.4286
   32MOL   C42128383   2.528   4.103   5.389 -0.4449  1.2052 -0.0069
   32MOL   O42228384   2.759   4.308   5.194  0.2050 -0.4785  0.2524
   32MOL   C42328385   2.845   4.370   5.283 -0.3211 -0.5390  0.7484
   32MOL   C42428386   2.798   4.439   5.396 -0.1053  0.0414  0.3163
   32MOL   C42528387   2.889   4.481   5.491 -0.6339  0.4267  0.0111
   32MOL   C42628388   3.031   4.473   5.476 -0.5787 -0.2595 -0.0080
   32MOL   C42728389   3.079   4.405   5.359 -0.2356 -0.1702  0.8788
   32MOL   C42828390   2.986   4.357   5.259  0.5221  0.5947  0.1352
   32MOL   C42928391   3.124   4.530   5.571 -0.2639  0.2376 -0.3442
   32MOL   C43028392   3.250   4.467   5.606 -0.3831  0.1237  0.4816
   32MOL   C43128393   3.334   4.523   5.703 -0.7441  0.1288  0.3693
   32MOL   C43228394   3.294   4.637   5.777  0.4476 -0.9337  0.0623
   32MOL   C43328395   3.180   4.707   5.738  0.2029  0.6291 -0.3802
   32MOL   C43428396   3.094   4.652   5.636  0.1712  0.0882 -0.4725
   32MOL   O43528397   3.367   4.682   5.887  0.2166 -0.3013 -0.4908
   32MOL   H43628398   2.421   3.636   5.297 -0.5798 -1.4059 -0.4652
   32MOL   H43728399   2.411   3.852   5.445 -1.7779 -0.1912  1.5324
   32MOL   H43828400   2.086   3.992   5.196 -2.1206 -2.9512 -0.6426
   32MOL   H43928401   2.094   3.791   5.074 -0.3017 -1.2239  0.1147
   32MOL   H44028402   2.301   4.298   5.228  0.5329 -0.7209 -2.4060
   32MOL   H44128403   2.507   4.394   5.133  0.3684 -1.0638  0.5237
   32MOL   H44228404   2.746   4.117   5.353  0.6390  0.4364 -1.4750
   32MOL   H44328405   2.539   4.023   5.461 -0.0765  1.0033 -0.2879
   32MOL   H44428406   2.693   4.459   5.409  0.0383 -0.6306  2.8307
   32MOL   H44528407   2.850   4.538   5.574  1.0008  1.5907  0.0214
   32MOL   H44628408   3.186   4.399   5.343 -0.0878 -0.8621  2.0155
   32MOL   H44728409   3.027   4.308   5.172 -1.0189 -0.4501 -0.0235
   32MOL   H44828410   3.274   4.367   5.574  0.1256  0.7979 -1.2893
   32MOL   H44928411   3.411   4.457   5.740 -1.2855 -0.7817 -0.1322
   32MOL   H45028412   3.162   4.799   5.792 -1.8995  1.4081 -2.3065
   32MOL   H45128413   3.001   4.701   5.610  1.2371  0.9350 -2.8357
   32MOL   C45228414   3.313   4.642   6.009  0.3555  0.7659 -0.3845
   32MOL   C45328415   3.248   4.735   6.095 -0.7291 -0.1384 -0.5613
   32MOL   C45428416   3.181   4.684   6.211  0.1156 -0.1820  0.4121
   32MOL   C45528417   3.206   4.552   6.254 -0.4698  0.5264 -0.4746
   32MOL   C45628418   3.278   4.463   6.181  0.3226  0.3066 -0.2484
   32MOL   C45728419   3.329   4.507   6.056 -0.5724 -0.1514  0.6966
   32MOL   S45828420   3.155   4.494   6.414 -0.4665  0.1317 -0.5206
   32MOL   O45928421   3.070   4.604   6.465  0.0111  0.3080  0.2609
   32MOL   O46028422   3.270   4.442   6.485  0.2719  0.3627  0.1551
   32MOL   C46128423   3.051   4.348   6.402 -0.6757  0.1569  0.2252
   32MOL   C46228424   2.942   4.344   6.314  0.2344  0.3315  0.1110
   32MOL   C46328425   2.856   4.234   6.320  0.3276  0.6602  0.0146
   32MOL   C46428426   2.877   4.128   6.410  0.1467  0.4097 -0.7268
   32MOL   C46528427   2.993   4.130   6.492  0.1582  0.6483 -0.6276
   32MOL   C46628428   3.079   4.240   6.492  0.1595 -0.3548 -0.1537
   32MOL   O46728429   2.781   4.029   6.414  0.2806 -0.0654  0.2980
   32MOL   C46828430   2.711   4.011   6.526  0.0698  0.3568 -0.0140
   32MOL   C46928431   2.696   4.108   6.631  0.1740  0.2716 -0.5178
   32MOL   C47028432   2.625   4.072   6.749  0.4117 -0.0439 -0.0138
   32MOL   C47128433   2.572   3.941   6.766 -0.2143  0.2134 -0.2906
   32MOL   C47228434   2.590   3.851   6.660 -0.7019  0.3680 -0.2507
   32MOL   C47328435   2.653   3.884   6.540 -0.1699  0.1100  0.1089
   32MOL   C47428436   2.496   3.892   6.884 -0.4155  0.4006 -0.1955
   32MOL   C47528437   2.533   3.926   7.018 -0.4483  0.2154  0.2689
   32MOL   C47628438   2.467   3.870   7.127 -0.0079  0.6509 -0.3731
   32MOL   C47728439   2.353   3.787   7.110  0.6440 -0.2499 -0.1277
   32MOL   C47828440   2.310   3.761   6.977  0.0987  0.5907 -0.6301
   32MOL   C47928441   2.382   3.807   6.866 -0.1387 -0.2029  0.0910
   32MOL   O48028442   2.276   3.741   7.215  0.4393  0.4038  0.0785
   32MOL   H48128443   3.241   4.840   6.068  0.7079 -0.3175 -1.7016
   32MOL   H48228444   3.122   4.749   6.275  0.7244  0.6575  0.1268
   32MOL   H48328445   3.311   4.369   6.222  0.1189  0.0727 -0.6210
   32MOL   H48428446   3.392   4.443   5.998  1.1997  2.1053  0.0575
   32MOL   H48528447   2.919   4.435   6.261  0.0972  0.9453  1.2134
   32MOL   H48628448   2.772   4.219   6.253  0.5824 -2.3906  0.3052
   32MOL   H48728449   2.995   4.053   6.567 -0.1479  0.1996 -1.0740
   32MOL   H48828450   3.163   4.244   6.560  0.8278  0.2447 -0.9983
   32MOL   H48928451   2.744   4.204   6.622  1.7243 -0.2716  1.5796
   32MOL   H49028452   2.615   4.144   6.830 -0.5523 -1.0505  0.7686
   32MOL   H49128453   2.552   3.750   6.668 -0.6988  0.6001  3.6336
   32MOL   H49228454   2.668   3.807   6.466  0.7139  0.2778  0.1134
   32MOL   H49328455   2.623   3.982   7.036 -0.6328  1.0389 -1.2912
   32MOL   H49428456   2.500   3.891   7.228 -0.2571 -1.8767  0.2844
   32MOL   H49528457   2.223   3.701   6.956  0.8261 -0.0770 -1.7374
   32MOL   H49628458   2.352   3.779   6.767  2.4304 -0.7041 -0.5767
   32MOL   C49728459   2.288   3.610   7.242  0.2716 -0.5579  0.3705
   32MOL   C49828460   2.421   3.550   7.248 -0.1041  0.3229 -0.1031
   32MOL   C49928461   2.435   3.409   7.223 -0.1255 -0.4581  0.1780
   32MOL   C50028462   2.316   3.328   7.213 -0.1948 -0.3825 -0.2995
   32MOL   C50128463   2.189   3.392   7.216  0.4643  0.3125 -0.2825
   32MOL   C50228464   2.174   3.531   7.223 -0.4184  0.3707  0.2914
   32MOL   S50328465   2.334   3.149   7.181 -0.4287 -0.2191 -0.1943
   32MOL   O50428466   2.197   3.086   7.182  0.1676 -0.5873  0.0959
   32MOL   O50528467   2.438   3.104   7.274  0.0813  0.3001 -0.6070
   32MOL   C50628468   2.397   3.153   7.013 -0.4792 -0.2310 -0.3584
   32MOL   C50728469   2.319   3.214   6.913 -0.1334 -0.7652  0.2176
   32MOL   C50828470   2.377   3.233   6.784  0.4649  0.1161 -0.1523
   32MOL   C50928471   2.509   3.194   6.757 -0.5712  0.7513  0.1640
   32MOL   C51028472   2.584   3.123   6.855 -0.1380 -0.1660  0.1902
   32MOL   C51128473   2.527   3.107   6.982  0.0576  0.3386 -0.3980
   32MOL   O51228474   2.549   3.212   6.623  0.1233 -0.1846 -0.3674
   32MOL   C51328475   2.655   3.294   6.607 -0.3111 -0.3363  0.0040
   32MOL   C51428476   2.776   3.247   6.547  0.1303 -0.3187 -0.1807
   32MOL   C51528477   2.883   3.330   6.515 -1.0522 -0.2665 -0.2200
   32MOL   C51628478   2.873   3.467   6.553 -0.5660  0.3096 -0.5519
   32MOL   C51728479   2.756   3.511   6.613 -0.0136 -0.6568 -0.4142
   32MOL   C51828480   2.645   3.429   6.642 -0.2050  0.8664 -0.6041
   32MOL   C51928481   2.982   3.560   6.517  0.0745 -0.1990 -0.5267
   32MOL   C52028482   2.958   3.691   6.481  0.0701  0.6482  0.9082
   32MOL   C52128483   3.073   3.776   6.461 -0.2455 -0.3275 -0.4450
   32MOL   C52228484   3.206   3.731   6.477 -0.2264 -0.0739 -0.3054
   32MOL   C52328485   3.227   3.593   6.515  0.7277  0.1083 -0.5772
   32MOL   C52428486   3.116   3.510   6.534  0.8525 -0.1427  0.9768
   32MOL   O52528487   3.306   3.814   6.457 -0.0318  0.6084 -0.4629
   32MOL   H52628488   2.502   3.620   7.257 -1.1457  1.3952  1.1161
   32MOL   H52728489   2.528   3.355   7.230 -0.1107 -0.6261 -1.0658
   32MOL   H52828490   2.110   3.321   7.194 -0.1953  1.0238 -0.2176
   32MOL   H52928491   2.074   3.571   7.211 -0.9112 -1.3160 -1.5248
   32MOL   H53028492   2.223   3.251   6.947  0.0615 -1.2769  1.3467
   32MOL   H53128493   2.325   3.287   6.706  0.3165  0.2365  0.0302
   32MOL   H53228494   2.679   3.085   6.820 -0.3589 -1.1335  0.5997
   32MOL   H53328495   2.580   3.054   7.060 -0.6519  1.4653  0.8634
   32MOL   H53428496   2.790   3.142   6.523  0.2343 -0.1350 -0.9410
   32MOL   H53528497   2.967   3.290   6.460 -1.1128 -1.5175  0.5879
   32MOL   H53628498   2.741   3.613   6.645  0.2197 -0.2333 -1.6162
   32MOL   H53728499   2.555   3.468   6.688 -1.0127 -2.2318  0.5994
   32MOL   H53828500   2.860   3.735   6.469 -0.4701 -0.9018 -0.5466
   32MOL   H53928501   3.060   3.880   6.434 -2.0349 -0.9712 -2.1342
   32MOL   H54028502   3.329   3.568   6.538  1.5340  1.1107 -2.8303
   32MOL   H54128503   3.134   3.407   6.557 -0.9570 -0.7881 -0.2937
   32MOL   C54228504   3.405   3.784   6.369 -0.3435 -0.1985  0.3408
   32MOL   C54328505   3.537   3.803   6.397 -0.2293  0.0237  0.1903
   32MOL   C54428506   3.644   3.786   6.306  0.5514 -0.2794  0.1819
   32MOL   C54528507   3.610   3.750   6.174 -0.2631 -0.4763  0.0124
   32MOL   C54628508   3.475   3.731   6.147 -0.6674  0.7279 -0.4654
   32MOL   C54728509   3.376   3.740   6.243  0.4866 -0.1435  0.1312
   32MOL   S54828510   3.726   3.725   6.042  0.1611  0.5472  0.1339
   32MOL   O54928511   3.654   3.753   5.919  0.1012  0.0115 -0.1777
   32MOL   O55028512   3.787   3.588   6.063  0.0755  0.0554 -0.3857
   32MOL   C55128513   3.850   3.854   6.054 -0.1299  0.1860  0.3205
   32MOL   C55228514   3.818   3.983   6.117  0.4112 -0.6771 -0.0230
   32MOL   C55328515   3.919   4.082   6.126 -0.0103  0.0714  0.2649
   32MOL   C55428516   4.043   4.067   6.070  0.0596  0.7272  0.1934
   32MOL   C55528517   4.076   3.941   6.011 -0.2880  0.7062  0.0043
   32MOL   C55628518   3.977   3.836   6.003  0.4285 -0.2351  0.2995
   32MOL   O55728519   4.139   4.164   6.081  0.1329 -0.2876  0.3151
   32MOL   C55828520   4.143   4.263   5.988 -0.2716 -0.0231  0.3515
   32MOL   C55928521   4.035   4.348   5.956 -0.2509  0.0294 -0.3019
   32MOL   C56028522   4.051   4.452   5.861 -0.6215 -0.3134 -0.9277
   32MOL   C56128523   4.179   4.476   5.796 -0.2260 -0.3495 -0.3160
   32MOL   C56228524   4.285   4.392   5.832  0.2944  0.2108  0.5125
   32MOL   C56328525   4.267   4.287   5.919 -0.4864 -0.5149  0.7066
   32MOL   C56428526   4.185   4.584   5.695 -0.1693  0.5697  0.0149
   32MOL   C56528527   4.145   4.714   5.721  0.3293  0.2687  0.8617
   32MOL   C56628528   4.172   4.812   5.620 -0.5744 -0.0446 -0.4629
   32MOL   C56728529   4.238   4.780   5.500  0.5652  0.1861 -0.0007
   32MOL   C56828530   4.274   4.646   5.472 -0.2386 -0.1073 -0.2386
   32MOL   C56928531   4.250   4.553   5.569 -0.4751  0.7702  0.1903
   32MOL   O57028532   4.280   4.883   5.415 -0.4967 -0.8903 -0.2069
   32MOL   H57128533   3.573   3.833   6.494  0.0695  2.2608 -0.5945
   32MOL   H57228534   3.748   3.803   6.327  1.2056 -2.9661 -0.6148
   32MOL   H57328535   3.448   3.706   6.046 -0.3576  1.0821 -0.6375
   32MOL   H57428536   3.272   3.729   6.219  0.7107  1.1044 -1.5001
   32MOL   H57528537   3.718   4.000   6.154 -1.0555 -4.2415 -2.0606
   32MOL   H57628538   3.898   4.171   6.184  0.4533 -0.0774  0.6624
   32MOL   H57728539   4.174   3.929   5.967 -0.3090  0.2388  0.0818
   32MOL   H57828540   4.002   3.750   5.943  0.7139  1.4420 -2.0661
   32MOL   H57928541   3.944   4.336   6.012 -0.9923 -0.0283 -1.4907
   32MOL   H58028542   3.969   4.514   5.827  0.1630  1.6570  0.6752
   32MOL   H58128543   4.376   4.402   5.774 -1.3540  3.0317 -1.7403
   32MOL   H58228544   4.347   4.217   5.931 -0.5484 -0.5260  1.0675
   32MOL   H58328545   4.111   4.748   5.818  1.8941 -1.4942  2.0566
   32MOL   H58428546   4.157   4.918   5.636 -0.7333 -0.2959  1.0938
   32MOL   H58528547   4.320   4.616   5.379 -0.0954  2.1436 -0.9107
   32MOL   H58628548   4.271   4.448   5.552  0.9173  1.2618 -1.1980
   32MOL   C58728549   4.248   4.881   5.281 -0.2293  0.1296 -0.3384
   32MOL   C58828550   4.338   4.829   5.178  0.4995 -0.0848  0.3121
   32MOL   C58928551   4.314   4.847   5.041 -0.6227  0.2851 -0.2363
   32MOL   C59028552   4.199   4.916   5.002 -0.2689 -0.6617  0.7989
   32MOL   C59128553   4.108   4.960   5.095 -0.0479  0.2372  0.0506
   32MOL   C59228554   4.131   4.942   5.235 -0.4629  0.1998  0.2684
   32MOL   S59328555   4.157   4.929   4.830 -0.1985  0.1569 -0.4018
   32MOL   O59428556   4.275   4.963   4.750 -0.2245 -0.0830  0.1180
   32MOL   O59528557   4.032   5.007   4.814 -0.0451 -0.5576  0.6140
   32MOL   C59628558   4.118   4.748   4.791  0.0098 -0.1967  0.3305
   32MOL   C59728559   4.180   4.685   4.679 -0.5009 -0.0088  0.1541
   32MOL   C59828560   4.158   4.551   4.658  0.2006 -0.5422  0.3583
   32MOL   C59928561   4.059   4.481   4.738 -0.0440 -0.5427  0.1133
   32MOL   C60028562   4.007   4.540   4.853 -0.2801 -0.1113 -0.0917
   32MOL   C60128563   4.032   4.679   4.875 -0.1981 -0.1020  0.3765
   32MOL   O60228564   4.047   4.348   4.721 -0.5317  0.0629  0.6186
   32MOL   C60328565   3.946   4.310   4.627 -0.3421  0.5979  0.8764
   32MOL   C60428566   3.813   4.342   4.650 -0.3179 -0.4692  0.1948
   32MOL   C60528567   3.716   4.309   4.551 -0.3855  0.1654  0.2817
   32MOL   C60628568   3.745   4.244   4.431 -0.0554  1.1125 -0.6067
   32MOL   C60728569   3.886   4.226   4.406 -0.1728  0.1538  0.3744
   32MOL   C60828570   3.978   4.246   4.503  0.0827  0.1289  0.5604
   32MOL   C60928571   3.643   4.195   4.341 -0.5198 -0.0416  0.1247
   32MOL   C61028572   3.507   4.238   4.354  0.3206  0.0646 -0.3233
   32MOL   C61128573   3.409   4.200   4.261 -0.3172 -0.1013 -0.1348
   32MOL   C61228574   3.438   4.102   4.164  0.1874 -0.3870  0.5353
   32MOL   C61328575   3.572   4.055   4.149  0.1686  0.3133  0.3587
   32MOL   C61428576   3.675   4.100   4.238  0.0333 -0.1150  0.1765
   32MOL   O61528577   3.335   4.032   4.102  0.1353 -0.4436  0.0970
   32MOL   H61628578   4.429   4.778   5.208 -0.5351 -1.7147  0.7358
   32MOL   H61728579   4.387   4.806   4.974 -0.8864  0.1736 -0.4526
   32MOL   H61828580   4.030   5.026   5.060 -1.8112 -1.3216  0.8763
   32MOL   H61928581   4.065   4.994   5.303  0.5069 -0.0884  1.4457
   32MOL   H62028582   4.242   4.757   4.627 -0.7590 -0.0506 -0.2126
   32MOL   H62128583   4.199   4.494   4.576  0.8234  0.5439 -0.0975
   32MOL   H62228584   3.957   4.477   4.925  0.6824 -0.2821  0.4408
   32MOL   H62328585   3.987   4.730   4.959 -0.2333 -1.8577  1.4382
   32MOL   H62428586   3.789   4.384   4.746  0.6184 -2.3538  1.2848
   32MOL   H62528587   3.613   4.328   4.576 -0.3649  1.0161 -0.2690
   32MOL   H62628588   3.927   4.188   4.314 -1.4830 -1.6699  0.5124
   32MOL   H62728589   4.082   4.230   4.478 -0.1735  1.1332 -1.1816
   32MOL   H62828590   3.477   4.314   4.425  2.3366 -0.0370  0.6625
   32MOL   H62928591   3.307   4.232   4.274 -0.0895  0.4357  0.3569
   32MOL   H63028592   3.609   3.979   4.081 -1.1704  0.6439 -0.7634
   32MOL   H63128593   3.773   4.054   4.236 -0.1944 -0.6104  0.3882
   32MOL   C63228594   3.218   4.000   4.165 -0.2107 -0.1931  0.2543
   32MOL   C63328595   3.226   3.920   4.284 -0.3973 -1.2017  0.1838
   32MOL   C63428596   3.104   3.892   4.349 -0.2963  0.1771  0.4638
   32MOL   C63528597   2.980   3.918   4.284 -0.4853 -0.7422  0.2811
   32MOL   C63628598   2.980   3.980   4.155  0.6377 -0.3574  0.5146
   32MOL   C63728599   3.101   4.013   4.095 -0.0134 -0.1335  0.1458
   32MOL   S63828600   2.827   3.862   4.356 -0.2074 -0.2786 -0.0768
   32MOL   O63928601   2.861   3.743   4.439  0.0373  0.4169 -1.0457
   32MOL   O64028602   2.726   3.841   4.247  0.2733 -0.0674 -0.0525
   32MOL   C64128603   2.771   3.987   4.473 -0.7641  0.0320 -0.4452
   32MOL   C64228604   2.826   4.119   4.473 -0.1427 -0.4843  1.1568
   32MOL   C64328605   2.783   4.207   4.576 -0.1185 -0.4365 -0.1362
   32MOL   C64428606   2.684   4.164   4.677  0.3103  0.7394  0.3529
   32MOL   C64528607   2.642   4.031   4.673 -0.8043  0.4014  0.2775
   32MOL   C64628608   2.689   3.940   4.576  0.2267  0.6425 -0.2180
   32MOL   O64728609   2.646   4.244   4.779 -0.5965 -0.0649  0.7034
   32MOL   C64828610   2.734   4.336   4.839 -0.8189 -0.2270 -0.3619
   32MOL   C64928611   2.880   4.320   4.834  0.3440  0.0807  0.6408
   32MOL   C65028612   2.963   4.409   4.902 -0.3541  0.1148 -0.8551
   32MOL   C65128613   2.907   4.521   4.966 -0.6485  0.5379 -0.4873
   32MOL   C65228614   2.766   4.536   4.968 -0.3640 -0.1521 -0.3330
   32MOL   C65328615   2.681   4.445   4.906 -0.3049 -1.1194  0.2348
   32MOL   C65428616   3.000   4.618   5.041  0.6079  0.3347  0.4669
   32MOL   C65528617   3.131   4.644   4.991 -0.2793  0.4841  0.3315
   32MOL   C65628618   3.214   4.738   5.059  0.0132 -0.0340  0.5703
   32MOL   C65728619   3.172   4.787   5.186  0.2012  0.0979 -0.3388
   32MOL   C65828620   3.048   4.746   5.237 -0.2047 -0.5307  0.3141
   32MOL   C65928621   2.958   4.666   5.167  0.1713 -0.3473  0.0349
   32MOL   O66028622   3.247   4.878   5.255 -0.1277 -0.3167 -0.5800
   32MOL   H66128623   3.318   3.903   4.338 -0.7785 -0.2127  1.1660
   32MOL   H66228624   3.103   3.853   4.450 -0.4497  1.2378  0.8774
   32MOL   H66328625   2.888   4.003   4.102 -0.9081 -1.4601  2.6439
   32MOL   H66428626   3.101   4.066   4.001  0.0388  0.4437  0.4729
   32MOL   H66528627   2.895   4.155   4.400 -1.3728  1.4859  0.9314
   32MOL   H66628628   2.807   4.312   4.577  1.0410 -0.6779 -1.7796
   32MOL   H66728629   2.570   3.995   4.745 -1.0691  0.5055  0.0662
   32MOL   H66828630   2.648   3.840   4.583  1.8071  0.1315  2.7279
   32MOL   H66928631   2.931   4.245   4.775 -2.1148 -0.9703 -0.2315
   32MOL   H67028632   3.070   4.395   4.909 -0.5422 -1.4233 -1.0686
   32MOL   H67128633   2.715   4.625   5.002  0.3403 -0.2634  1.0230
   32MOL   H67228634   2.574   4.461   4.909 -0.1053  0.2581  0.4296
   32MOL   H67328635   3.150   4.618   4.888  4.7543 -2.9430  1.9300
   32MOL   H67428636   3.311   4.762   5.018 -0.6257  1.3910 -0.1249
   32MOL   H67528637   3.016   4.790   5.331  0.8280 -1.3831  1.0844
   32MOL   H67628638   2.857   4.655   5.203  0.0955 -0.9627 -0.3574
   32MOL   C67728639   3.377   4.854   5.295  0.7806  0.0321 -0.6020
   32MOL   C67828640   3.395   4.739   5.382 -0.4328  0.3743  0.2192
   32MOL   C67928641   3.526   4.705   5.418  1.0861  0.3829 -0.3759
   32MOL   C68028642   3.637   4.783   5.393  0.0159 -0.1446  0.1059
   32MOL   C68128643   3.622   4.901   5.326 -0.0645  0.2133  0.0851
   32MOL   C68228644   3.492   4.938   5.276 -0.0480  0.1440 -0.5691
   32MOL   S68328645   3.802   4.735   5.447  0.1291 -0.3568  0.0331
   32MOL   O68428646   3.887   4.855   5.446  0.4274 -0.1201  0.0068
   32MOL   O68528647   3.845   4.610   5.377  0.3011  0.1843 -0.6979
   32MOL   C68628648   3.788   4.686   5.620  0.6679 -0.3447  0.4046
   32MOL   C68728649   3.722   4.568   5.658 -0.2356 -0.0519 -0.3792
   32MOL   C68828650   3.689   4.551   5.793 -0.3614 -0.0150  0.3538
   32MOL   C68928651   3.737   4.636   5.893  0.4338 -0.5564  0.0607
   32MOL   C69028652   3.809   4.755   5.855 -0.4415 -0.0662  0.2435
   32MOL   C69128653   3.829   4.777   5.717  0.2016 -0.0291  0.4075
   32MOL   O69228654   3.705   4.616   6.020  0.0516 -0.4458  0.0836
   32MOL   C69328655   3.755   4.693   6.125 -0.3881 -0.6665 -0.1145
   32MOL   C69428656   3.666   4.762   6.202  0.2241 -0.3647  0.4756
   32MOL   C69528657   3.721   4.846   6.302 -0.2778 -0.0764  0.4580
   32MOL   C69628658   3.862   4.851   6.329  0.5876  0.1118  0.8479
   32MOL   C69728659   3.946   4.764   6.255  0.5569 -0.0326 -0.1341
   32MOL   C69828660   3.891   4.679   6.159 -0.2078  0.2162 -0.2425
   32MOL   C69928661   3.925   4.945   6.425 -0.3138 -0.5734 -0.1143
   32MOL   C70028662   4.049   4.921   6.482 -0.3465  0.7009  0.4430
   32MOL   C70128663   4.108   5.003   6.579 -0.0029  0.1282 -0.4431
   32MOL   C70228664   4.034   5.108   6.636  0.4873 -0.2880  0.3106
   32MOL   C70328665   3.911   5.144   6.578  0.3617  0.0793  0.1362
   32MOL   C70428666   3.852   5.059   6.474 -0.0019  0.4524 -0.9759
   32MOL   O70528667   4.097   5.202   6.720 -0.1804 -0.5178  0.0391
   32MOL   H70628668   3.308   4.683   5.413  0.3281 -1.7745 -1.4521
   32MOL   H70728669   3.529   4.609   5.467  1.6953  0.5611 -0.0595
   32MOL   H70828670   3.698   4.978   5.318 -0.7043  1.1260  2.3314
   32MOL   H70928671   3.482   5.032   5.224 -0.1858  1.1884  1.3027
   32MOL   H71028672   3.691   4.498   5.582  1.8079 -0.6670 -0.6764
   32MOL   H71128673   3.626   4.466   5.815 -0.6629 -0.3706 -1.7615
   32MOL   H71228674   3.837   4.827   5.931  0.4024 -1.2841  1.1066
   32MOL   H71328675   3.876   4.869   5.686 -0.0103 -0.7108 -2.0128
   32MOL   H71428676   3.560   4.762   6.178  0.6297  2.7001 -1.5215
   32MOL   H71528677   3.655   4.915   6.354  0.2573 -0.0589  1.1193
   32MOL   H71628678   4.054   4.765   6.259  0.5086  0.8714  2.0446
   32MOL   H71728679   3.950   4.620   6.091 -0.0753 -0.8816  0.7959
   32MOL   H71828680   4.106   4.833   6.456  0.5086  1.4027 -0.0739
   32MOL   H71928681   4.205   4.982   6.621  0.8228  0.5431 -2.1197
   32MOL   H72028682   3.864   5.239   6.600  0.8369  0.1298  0.9704
   32MOL   H72128683   3.754   5.086   6.438  0.6278  2.1180 -1.4837
   32MOL   C72228684   4.017   5.264   6.813 -0.0583  0.7292 -0.2567
   32MOL   C72328685   3.950   5.380   6.789 -0.5425  0.3230  0.4793
   32MOL   C72428686   3.857   5.430   6.885  0.0084  0.1184  0.2291
   32MOL   C72528687   3.836   5.363   7.006 -0.1841 -0.1268 -0.0001
   32MOL   C72628688   3.911   5.245   7.037 -0.0674  0.0959  0.4022
   32MOL   C72728689   3.992   5.198   6.929  0.0016  0.6754  0.3302
   32MOL   S72828690   3.717   5.428   7.125 -0.2076 -0.0118 -0.2416
   32MOL   O72928691   3.660   5.551   7.076  0.5540 -0.9117 -0.6433
   32MOL   O73028692   3.788   5.426   7.259  0.2793 -0.5044 -0.1551
   32MOL   C73128693   3.601   5.295   7.126  0.3688 -0.1961 -0.4557
   32MOL   C73228694   3.546   5.260   7.254 -0.3988 -0.2928 -0.3406
   32MOL   C73328695   3.438   5.175   7.256 -0.2248 -0.4795  0.0142
   32MOL   C73428696   3.396   5.117   7.129  0.9673 -0.2144 -0.4370
   32MOL   C73528697   3.469   5.134   7.006  0.4344 -0.3298  0.0348
   32MOL   C73628698   3.567   5.233   7.003  0.4882  0.4912  0.2750
   32MOL   O73728699   3.285   5.041   7.118 -0.6856  0.0830  0.4717
   32MOL   C73828700   3.237   4.992   7.233  0.2021  0.4010 -0.5892
   32MOL   C73928701   3.307   4.898   7.313  0.4830  0.5341  0.2735
   32MOL   C74028702   3.262   4.853   7.439  0.4561 -0.4045  0.4322
   32MOL   C74128703   3.131   4.904   7.482 -0.1492  0.8385 -0.7113
   32MOL   C74228704   3.067   5.005   7.406 -0.1092 -0.4194 -0.3170
   32MOL   C74328705   3.116   5.050   7.279  0.6056  0.9870 -0.1357
   32MOL   C74428706   3.078   4.849   7.607  0.9603  0.6357  0.3473
   32MOL   C74528707   3.121   4.721   7.649  0.3732 -0.2940  0.3739
   32MOL   C74628708   3.067   4.658   7.765 -0.2336 -0.4914 -0.3669
   32MOL   C74728709   2.968   4.732   7.835  0.0901 -0.6516 -0.8982
   32MOL   C74828710   2.926   4.857   7.796  0.7696  0.5330  0.4379
   32MOL   C74928711   2.980   4.917   7.682 -1.3550 -0.4282 -1.0125
   32MOL   O75028712   2.903   4.678   7.950 -0.6799 -0.3815  0.2516
   32MOL   H75128713   3.961   5.428   6.693  0.9677 -3.2115 -1.2145
   32MOL   H75228714   3.790   5.513   6.866 -0.1025  0.0744  0.4316
   32MOL   H75328715   3.912   5.197   7.133 -0.6051 -0.2918  0.2162
   32MOL   H75428716   4.045   5.106   6.951  0.3575  0.5030 -1.1796
   32MOL   H75528717   3.579   5.315   7.340  0.8517 -0.4850 -0.6949
   32MOL   H75628718   3.381   5.154   7.345 -1.2769  0.3795 -0.4421
   32MOL   H75728719   3.428   5.086   6.918 -1.2343 -1.5159  1.4526
   32MOL   H75828720   3.609   5.258   6.906 -2.2926  1.3592 -0.7368
   32MOL   H75928721   3.407   4.876   7.280  0.6822 -0.0932  1.2824
   32MOL   H76028722   3.327   4.792   7.499 -0.0360 -0.4520  0.9319
   32MOL   H76128723   2.973   5.049   7.437 -1.6851 -3.0472 -1.2188
   32MOL   H76228724   3.055   5.108   7.211 -2.4330 -1.5918  0.2578
   32MOL   H76328725   3.191   4.655   7.599  1.0139 -0.1289  1.0441
   32MOL   H76428726   3.107   4.568   7.808  2.6939  0.2177 -1.5081
   32MOL   H76528727   2.848   4.915   7.844 -0.9424  0.7036 -2.4250
   32MOL   H76628728   2.937   5.013   7.659 -1.2497  0.3914  1.9490
   32MOL   C76728729   2.989   4.663   8.053 -0.9840 -0.0183 -0.3484
   32MOL   C76828730   3.015   4.760   8.148  0.4182  0.0971  0.6300
   32MOL   C76928731   3.112   4.739   8.245 -0.6693  0.2215 -0.4730
   32MOL   C77028732   3.189   4.616   8.254 -0.1589  0.2277  0.0582
   32MOL   C77128733   3.156   4.510   8.168 -0.3018  0.0220  0.2842
   32MOL   C77228734   3.057   4.534   8.074  0.3706 -0.1546  0.2042
   32MOL   S77328735   3.314   4.597   0.014  0.0998 -0.0799 -0.7330
   32MOL   O77428736   3.359   4.459   0.027 -0.2381 -0.2659 -0.3140
   32MOL   O77528737   3.251   4.658   0.130  0.3486  0.3114 -0.1683
   32MOL   C77628738   3.456   4.700   8.333 -0.6443 -0.1047 -0.5872
   32MOL   C77728739   3.577   4.631   8.297  0.4448 -0.3071  0.3688
   32MOL   C77828740   3.688   4.703   8.255  0.1599  0.0683 -0.8482
   32MOL   C77928741   3.682   4.842   8.254  0.5083  0.4217  0.7233
   32MOL   C78028742   3.569   4.910   8.295  0.5647  0.2081 -0.4351
   32MOL   C78128743   3.447   4.840   8.330  0.1811 -0.2158 -0.5179
   32MOL   O78228744   3.794   4.921   8.228  0.3023 -0.6019  0.9187
   32MOL   C78328745   3.816   4.959   8.101  0.7426  0.1869 -0.3170
   32MOL   C78428746   3.715   5.010   8.017  0.5929  0.0670  0.7736
   32MOL   C78528747   3.746   5.035   7.880 -0.0360 -0.2701 -0.3492
   32MOL   C78628748   3.870   5.011   7.821 -0.6181  0.3907 -0.0617
   32MOL   C78728749   3.976   4.973   7.910  0.5324  0.3014  0.4442
   32MOL   C78828750   3.948   4.946   8.048  0.0128 -0.4656 -0.1767
   32MOL   C78928751   3.892   5.023   7.679 -0.0755  0.4987  0.2562
   32MOL   C79028752   3.926   4.907   7.608 -0.6282 -0.4439  0.3327
   32MOL   C79128753   3.995   4.919   7.486  0.5400 -0.3093  0.6204
   32MOL   C79228754   4.002   5.048   7.421 -0.3707 -0.5706 -0.9187
   32MOL   C79328755   3.958   5.164   7.483 -0.7048 -0.0020 -0.1771
   32MOL   C79428756   3.900   5.147   7.615 -0.1203 -0.4536  0.4263
   32MOL   O79528757   4.062   5.072   7.295  0.5948 -0.1203  0.1287
   32MOL   H79628758   2.960   4.852   8.135  1.7209  0.6018 -1.6969
   32MOL   H79728759   3.138   4.819   8.312 -2.0014  0.6399 -0.4357
   32MOL   H79828760   3.206   4.414   8.178  0.0926  0.1448 -0.4586
   32MOL   H79928761   3.025   4.452   8.011  1.3689  0.2831 -0.9039
   32MOL   H80028762   3.580   4.524   8.310  1.7458 -0.1969  1.0167
   32MOL   H80128763   3.781   4.657   8.227  0.0862 -1.0670  0.6766
   32MOL   H80228764   3.557   5.017   8.289  0.0581  0.1068 -1.4031
   32MOL   H80328765   3.362   4.899   8.361  2.3596  3.7576 -1.7185
   32MOL   H80428766   3.615   5.032   8.054  0.3988  0.6267 -0.0507
   32MOL   H80528767   3.666   5.071   7.816  2.3806  2.3024 -2.0151
   32MOL   H80628768   4.077   4.947   7.880  0.3544  2.5541 -2.3832
   32MOL   H80728769   4.020   4.902   8.115 -0.1727  1.9403  1.6779
   32MOL   H80828770   3.911   4.814   7.660 -2.2836 -0.2511  0.2372
   32MOL   H80928771   4.033   4.838   7.426  1.3606  0.8224 -0.4085
   32MOL   H81028772   3.963   5.259   7.433  0.5435 -0.0543 -0.1580
   32MOL   H81128773   3.884   5.229   7.684 -1.2863 -0.2163 -0.1173
   32MOL   C81228774   4.200   5.081   7.297  0.0758 -0.2192  1.1360
   32MOL   C81328775   4.277   4.970   7.259  0.1590  0.1148 -0.4596
   32MOL   C81428776   4.421   4.973   7.282 -0.4068  0.6088 -0.1222
   32MOL   C81528777   4.479   5.082   7.351  0.3642  0.9633 -1.0190
   32MOL   C81628778   4.402   5.198   7.377 -0.7234  0.1285 -0.6157
   32MOL   C81728779   4.266   5.201   7.343  0.3547  0.1437 -0.6939
   32MOL   S81828780   4.643   5.072   7.404 -0.3274  0.0684  0.3520
   32MOL   O81928781   4.698   5.209   7.391  0.0612  0.0535 -0.6955
   32MOL   O82028782   4.708   4.967   7.326  0.3428  0.3281 -0.0220
   32MOL   C82128783   4.646   5.020   7.572 -0.3846  0.1808  0.0874
   32MOL   C82228784   4.522   4.980   7.630 -0.3885  0.8745 -0.7995
   32MOL   C82328785   4.526   4.962   7.770  0.0574  0.5052 -0.6478
   32MOL   C82428786   4.646   4.976   7.848 -0.1117 -0.4322  0.2264
   32MOL   C82528787   4.763   5.026   7.784 -0.6288 -0.9095  0.4953
   32MOL   C82628788   4.762   5.044   7.646 -0.6142 -0.2315 -0.0385
   32MOL   O82728789   4.645   4.946   7.984  0.2586 -0.2918  0.3297
   32MOL   C82828790   4.717   5.013   8.072  0.3609  0.1068  0.0613
   32MOL   C82928791   4.668   5.133   8.126 -0.0244 -0.6204 -0.0660
   32MOL   C83028792   4.740   5.205   8.219  0.4561  0.3795  0.2301
   32MOL   C83128793   4.872   5.169   8.262  0.4006  0.2602  0.0788
   32MOL   C83228794   4.921   5.043   8.216  0.6150 -0.7323  0.0853
   32MOL   C83328795   4.842   4.968   8.123 -0.2705 -0.1895  0.7174
   32MOL   C83428796   4.950   5.252   8.353  0.1301  0.0421  0.1492
   32MOL   C83528797   5.088   5.244   8.353  0.6103  0.5163  0.0518
   32MOL   C83628798   5.168   5.323   0.073 -0.7865 -0.0469 -0.1062
   32MOL   C83728799   5.105   5.417   0.161 -0.3715  0.0355 -0.0006
   32MOL   C83828800   4.967   5.427   0.165 -0.0953 -0.6663  0.0478
   32MOL   C83928801   4.889   5.346   0.079  0.1751  0.3898  0.5663
   32MOL   O84028802   5.182   5.498   0.240  0.5180 -0.5483  0.6086
   32MOL   H84128803   4.229   4.880   7.221  1.3483 -1.0896  0.8160
   32MOL   H84228804   4.475   4.884   7.254 -1.6810 -0.2067 -0.0142
   32MOL   H84328805   4.453   5.282   7.420  1.5810 -0.9366 -1.1844
   32MOL   H84428806   4.209   5.291   7.363  0.2886  0.3609 -1.8161
   32MOL   H84528807   4.427   4.965   7.580  0.6238  1.0470 -2.8473
   32MOL   H84628808   4.438   4.931   7.824  1.1546 -2.2929 -0.3695
   32MOL   H84728809   4.850   5.053   7.843 -0.2180 -0.6229 -0.2445
   32MOL   H84828810   4.850   5.087   7.600 -0.5333  0.8029  1.0587
   32MOL   H84928811   4.573   5.175   8.096 -0.4554 -0.0191  2.0331
   32MOL   H85028812   4.696   5.291   8.268 -1.6699 -0.2714 -0.4943
   32MOL   H85128813   5.014   5.000   8.247  0.4890 -0.7089  0.5116
   32MOL   H85228814   4.877   4.871   8.093  0.0790 -0.3649  1.6651
   32MOL   H85328815   5.145   5.168   8.304 -2.3260 -2.2333  0.7243
   32MOL   H85428816   5.276   5.318   0.077 -0.8514 -0.1848  3.4664
   32MOL   H85528817   4.918   5.497   0.231  1.7149  1.2563 -0.5985
   32MOL   H85628818   4.783   5.363   0.087 -0.0759 -1.7069  2.0162
   32MOL   C85728819   5.173   5.495   0.379 -0.5257 -0.5449  0.0580
   32MOL   C85828820   5.257   5.409   0.456  0.6896 -0.4942  0.1851
   32MOL   C85928821   5.262   5.422   0.598  0.5652  0.0645 -0.8491
   32MOL   C86028822   5.183   5.517   0.660  0.8532  0.0807 -0.0060
   32MOL   C86128823   5.097   5.602   0.589  0.1206 -0.3343 -0.8492
   32MOL   C86228824   5.098   5.590   0.449 -0.1572  0.1697 -0.3569
   32MOL   S86328825   5.189   5.522   0.832  0.1232  0.2149 -0.5081
   32MOL   O86428826   5.168   5.383   0.881  1.2911  0.2466  0.0075
   32MOL   O86528827   5.088   5.625   0.876 -0.1820 -0.2211 -0.7026
   32MOL   C86628828   5.356   5.579   0.873  0.0597  0.2793 -0.3663
   32MOL   C86728829   5.443   5.495   0.944 -0.1993  0.5938 -0.3338
   32MOL   C86828830   5.575   5.538   0.975  0.2904  0.1249  0.4081
   32MOL   C86928831   5.609   5.669   0.935 -0.0007  0.1451 -0.2666
   32MOL   C87028832   5.520   5.749   0.866 -0.2372 -0.2526 -0.4823
   32MOL   C87128833   5.395   5.707   0.844  0.5619 -0.0481  0.0646
   32MOL   O87228834   5.736   5.719   0.941  0.8402  0.1987  0.1332
   32MOL   C87328835   5.776   5.771   1.059  0.3807 -0.0548  0.0403
   32MOL   C87428836   5.867   5.692   1.129  0.4181 -0.1825  0.2303
   32MOL   C87528837   5.918   5.735   1.251 -0.2683 -0.3644  0.0195
   32MOL   C87628838   5.880   5.860   1.306 -0.3055  0.3076  0.1031
   32MOL   C87728839   5.787   5.937   1.241  0.1461 -0.0749 -0.3635
   32MOL   C87828840   5.731   5.895   1.119  0.2414  0.4665 -0.0797
   32MOL   C87928841   5.955   5.913   1.421 -0.2195 -0.1043 -0.6283
   32MOL   C88028842   6.025   5.824   1.510  0.6571  0.8906 -0.6090
   32MOL   C88128843   6.121   5.876   1.601 -0.1454 -0.1568 -0.2242
   32MOL   C88228844   6.144   6.013   1.601  0.5990 -0.1354  0.8583
   32MOL   C88328845   6.068   6.097   1.521  0.1901  0.2148  0.7877
   32MOL   C88428846   5.976   6.051   1.430  0.2706  0.4705  0.2393
   32MOL   O88528847   6.241   6.060   1.684  0.5422 -0.6566 -0.0437
   32MOL   H88628848   5.331   5.343   0.413  1.3099 -0.3536  1.0285
   32MOL   H88728849   5.336   5.367   0.654  0.0968 -0.6631 -0.9334
   32MOL   H88828850   5.049   5.677   0.649 -2.2336 -0.1891 -2.8430
   32MOL   H88928851   5.038   5.647   0.380  1.1685  1.5816 -0.3521
   32MOL   H89028852   5.411   5.397   0.976  2.5294 -0.1624  0.2923
   32MOL   H89128853   5.638   5.468   1.027 -1.5623 -1.2665  0.8445
   32MOL   H89228854   5.546   5.848   0.831 -2.4493 -0.2692 -2.3396
   32MOL   H89328855   5.318   5.767   0.798 -1.0748 -1.4756  0.8736
   32MOL   H89428856   5.898   5.596   1.092  0.0744  0.0793 -0.7595
   32MOL   H89528857   5.992   5.672   1.297  0.1754 -0.7547 -1.2037
   32MOL   H89628858   5.758   6.032   1.284  1.4346 -0.0379  0.4573
   32MOL   H89728859   5.661   5.962   1.071 -1.2992 -1.5274 -0.6842
   32MOL   H89828860   6.008   5.718   1.497  1.0620  1.0042 -2.1903
   32MOL   H89928861   6.182   5.813   1.664  1.7323 -0.2152 -2.0777
   32MOL   H90028862   6.089   6.203   1.526 -0.8449  0.3949  1.5403
   32MOL   H90128863   5.920   6.122   1.371  0.6783  0.5900 -0.0052
   32MOL   H90228864   6.264   6.152   1.683 -0.5313 -0.3896 -1.0129
   33MOL     C128865   3.553   3.397   0.939  0.4277 -0.6131 -0.1057
   33MOL     C228866   3.685   3.366   0.975  0.0202 -0.2119  0.0180
   33MOL     C328867   3.703   3.297   1.092  0.0257  0.1820  0.8655
   33MOL     C428868   3.598   3.255   1.175  0.1558 -0.4100  0.5124
   33MOL     C528869   3.463   3.284   1.138  0.1446  0.0778 -0.2247
   33MOL     C628870   3.444   3.355   1.020 -0.3103 -0.0487 -0.1088
   33MOL     S728871   3.640   3.173   1.331 -0.0466 -0.1647  0.4470
   33MOL     O828872   3.748   3.071   1.298 -0.1388  1.0546  0.3450
   33MOL     O928873   3.515   3.120   1.393  0.1439  0.0989  0.1993
   33MOL    C1028874   3.718   3.299   1.441  0.3737  0.2028  0.2380
   33MOL    C1128875   3.701   3.437   1.412 -0.1492  0.5643  0.2677
   33MOL    C1228876   3.754   3.530   1.495  0.1148 -0.0877 -0.2102
   33MOL    C1328877   3.818   3.493   1.615 -0.1801 -0.3054 -0.0774
   33MOL    C1428878   3.839   3.355   1.646  0.5256  0.1107 -0.2437
   33MOL    C1528879   3.794   3.256   1.551  0.4649  0.4592  0.3610
   33MOL    O1628880   3.861   3.595   1.700  0.0440 -0.2004  0.0587
   33MOL    C1728881   3.984   3.656   1.681  0.0590  0.1474  0.3760
   33MOL    C1828882   3.983   3.799   1.703  0.2161  0.5685  0.6877
   33MOL    C1928883   4.094   3.876   1.673  0.1201  0.2885 -1.1200
   33MOL    C2028884   4.212   3.812   1.629 -0.4421 -0.5675  0.7346
   33MOL    C2128885   4.210   3.672   1.597 -0.5900  0.3014 -0.0226
   33MOL    C2228886   4.094   3.593   1.620  1.1875 -0.7345 -0.1732
   33MOL    C2328887   4.335   3.897   1.611  0.0074  0.1754  0.0129
   33MOL    C2428888   4.468   3.844   1.625 -0.0197 -0.2881  0.1084
   33MOL    C2528889   4.578   3.925   1.634 -0.5320  0.1027  0.2842
   33MOL    C2628890   4.570   4.062   1.617 -0.0059  0.1021  0.1925
   33MOL    C2728891   4.445   4.118   1.594 -0.1439  0.3470  0.4279
   33MOL    C2828892   4.328   4.039   1.583  0.3546  0.0604 -0.8061
   33MOL    O2928893   4.681   4.138   1.626 -0.5974  0.2907  0.3490
   33MOL    H3028894   3.769   3.406   0.921  0.4731 -1.6534 -0.3775
   33MOL    H3128895   3.803   3.271   1.124 -0.9503  0.2045  4.1166
   33MOL    H3228896   3.380   3.228   1.179 -0.9208 -0.8814 -3.6002
   33MOL    H3328897   3.343   3.359   0.982 -0.5282 -2.5979  0.1416
   33MOL    H3428898   3.640   3.471   1.329  1.8480  1.0643 -1.0156
   33MOL    H3528899   3.746   3.634   1.467  0.5103  0.2440  0.8568
   33MOL    H3628900   3.891   3.330   1.737 -1.3678  0.4152  0.9372
   33MOL    H3728901   3.801   3.150   1.566 -1.3929  0.1553 -0.7106
   33MOL    H3828902   3.900   3.850   1.750 -1.3440 -0.7357 -0.5670
   33MOL    H3928903   4.092   3.983   1.688  1.6822  0.1408  0.3394
   33MOL    H4028904   4.298   3.630   1.549 -0.0348  2.2202 -0.7485
   33MOL    H4128905   4.086   3.493   1.582  0.4031 -0.9114  0.4359
   33MOL    H4228906   4.486   3.740   1.649 -0.2603 -0.5394 -0.7794
   33MOL    H4328907   4.675   3.879   1.640  0.0189  1.0606 -0.9493
   33MOL    H4428908   4.442   4.222   1.565  0.5291  0.5754  1.1700
   33MOL    H4528909   4.229   4.083   1.580  1.2938  2.2994 -0.3424
   33MOL    H4628910   3.527   3.449   0.848  0.8256 -0.7683 -0.3086
   33MOL    C4728911   4.730   4.212   1.522  0.2841  0.0555  0.7441
   33MOL    C4828912   4.756   4.354   1.537 -0.1775 -0.3765 -0.2653
   33MOL    C4928913   4.810   4.428   1.431 -0.6720 -0.8791  0.0310
   33MOL    C5028914   4.855   4.364   1.309  0.2704  0.1335 -0.4738
   33MOL    C5128915   4.817   4.230   1.288  0.4427 -0.7387  0.0371
   33MOL    C5228916   4.754   4.153   1.394 -0.3871  0.3567  0.4982
   33MOL    S5328917   4.971   4.453   1.204  0.3003  0.1375 -0.0154
   33MOL    O5428918   4.933   4.597   1.194  0.4296 -0.2448 -0.1888
   33MOL    O5528919   4.999   4.374   1.085 -0.1925 -0.3215  0.5622
   33MOL    C5628920   5.121   4.446   1.303 -0.1615 -0.8995  0.9083
   33MOL    C5728921   5.219   4.345   1.288 -0.1398  0.5055 -0.4555
   33MOL    C5828922   5.325   4.337   1.384 -0.2579 -0.5293 -0.2183
   33MOL    C5928923   5.349   4.441   1.468  0.1223 -0.1055  0.0496
   33MOL    C6028924   5.268   4.553   1.469  0.1244 -0.3568  0.4639
   33MOL    C6128925   5.151   4.550   1.388  0.0157 -0.2278 -0.4680
   33MOL    O6228926   5.452   4.436   1.555  0.3499  0.4586 -0.0767
   33MOL    C6328927   5.580   4.430   1.515  0.2233  1.1181 -0.7393
   33MOL    C6428928   5.649   4.310   1.494 -0.1223  0.1618 -0.2889
   33MOL    C6528929   5.784   4.312   1.450 -0.0158  0.0500  0.9564
   33MOL    C6628930   5.860   4.434   1.455 -0.0196  0.2070  0.1556
   33MOL    C6728931   5.786   4.558   1.472 -0.7922 -0.1069 -1.0690
   33MOL    C6828932   5.650   4.552   1.498  0.1048  0.5490 -0.1073
   33MOL    C6928933   6.004   4.425   1.440 -0.0514  0.3476  0.0237
   33MOL    C7028934   6.063   4.320   1.355  0.0855 -0.3621 -0.2272
   33MOL    C7128935   6.201   4.323   1.328 -0.5718  0.1928  0.0825
   33MOL    C7228936   6.286   4.430   1.381  0.4398  0.3933  0.2969
   33MOL    C7328937   6.223   4.531   1.458  0.2366  0.0638  0.9134
   33MOL    C7428938   6.086   4.523   1.494  0.5128 -0.8352  0.3067
   33MOL    O7528939   6.420   4.430   1.348  0.7784 -0.5702  0.0162
   33MOL    H7628940   4.732   4.411   1.626 -0.5676 -2.3567  0.9256
   33MOL    H7728941   4.827   4.534   1.444 -0.1944 -0.9936  0.3408
   33MOL    H7828942   4.847   4.188   1.193  2.7256 -1.2572  0.9716
   33MOL    H7928943   4.731   4.048   1.377  0.1786  0.0224  1.7034
   33MOL    H8028944   5.208   4.266   1.215  0.4141 -0.3399  0.3582
   33MOL    H8128945   5.392   4.252   1.378  1.2572  0.4377  1.9953
   33MOL    H8228946   5.287   4.624   1.548 -0.3816  3.1572 -2.4002
   33MOL    H8328947   5.082   4.632   1.389 -0.5957 -0.7326 -1.2199
   33MOL    H8428948   5.598   4.218   1.518  1.0668 -0.4302  0.0158
   33MOL    H8528949   5.831   4.216   1.435 -2.6085 -1.1462  0.2140
   33MOL    H8628950   5.838   4.653   1.470  1.4410 -1.2969 -2.3421
   33MOL    H8728951   5.599   4.645   1.520 -1.3753 -0.0528 -0.9445
   33MOL    H8828952   6.003   4.248   1.303 -1.0907  1.2395 -1.1569
   33MOL    H8928953   6.254   4.256   1.261  0.7837  2.5261 -1.2580
   33MOL    H9028954   6.286   4.599   1.512  1.4139 -0.4935  0.2457
   33MOL    H9128955   6.050   4.591   1.569 -0.0911 -0.2318 -0.5126
   33MOL    C9228956   6.460   4.501   1.238  0.7474 -0.2440 -0.4594
   33MOL    C9328957   6.469   4.645   1.229  0.3557  0.0057 -0.2462
   33MOL    C9428958   6.503   4.713   1.113  0.8128  0.3339 -0.5471
   33MOL    C9528959   6.543   4.641   0.999 -0.4416  0.6928 -0.3843
   33MOL    C9628960   6.550   4.501   1.010 -0.7313 -0.0536 -0.1605
   33MOL    C9728961   6.505   4.431   1.124  0.2467  0.0907  0.0250
   33MOL    S9828962   6.565   4.712   0.834 -0.0904 -0.1723 -0.1034
   33MOL    O9928963   6.439   4.680   0.763  0.3398 -0.1891  0.1131
   33MOL   O10028964   6.695   4.671   0.781  0.3551 -0.3857 -0.4528
   33MOL   C10128965   6.567   4.889   0.845 -0.4998 -0.2631  0.0357
   33MOL   C10228966   6.448   4.960   0.862 -0.2910 -0.3079 -0.3636
   33MOL   C10328967   6.459   5.095   0.882 -0.5078 -0.1754  0.4634
   33MOL   C10428968   6.575   5.165   0.884 -0.8235  0.2187 -0.1826
   33MOL   C10528969   6.697   5.097   0.848  0.0440 -0.2886 -0.2379
   33MOL   C10628970   6.691   4.957   0.833 -0.7530  1.0622 -0.6320
   33MOL   O10728971   6.569   5.302   0.912  0.0163 -0.4009  0.0078
   33MOL   C10828972   6.634   5.327   1.031  0.3855 -0.3771 -0.4201
   33MOL   C10928973   6.558   5.355   1.143 -0.3614 -0.8165  0.1603
   33MOL   C11028974   6.619   5.370   1.266 -0.7152 -0.5653 -0.3673
   33MOL   C11128975   6.760   5.358   1.280  0.8803  0.3703 -0.0353
   33MOL   C11228976   6.836   5.343   1.160 -0.6672  0.4443 -0.1343
   33MOL   C11328977   6.771   5.340   1.036 -0.2346 -0.3535 -0.4104
   33MOL   C11428978   6.835   5.362   1.407 -0.0284 -0.2370  0.7862
   33MOL   C11528979   6.960   5.430   1.415 -0.5770  0.0192  0.2334
   33MOL   C11628980   7.031   5.429   1.543  0.1506  0.1762  1.2296
   33MOL   C11728981   6.976   5.361   1.653 -0.8442 -0.0893  0.3992
   33MOL   C11828982   6.851   5.295   1.639  0.0089 -0.9909  0.8290
   33MOL   C11928983   6.781   5.298   1.521  0.8222 -0.3116 -0.2145
   33MOL   O12028984   7.051   5.331   1.762 -0.1863  0.5515  0.2299
   33MOL   H12128985   6.440   4.705   1.313 -0.6529 -0.2218 -0.4228
   33MOL   H12228986   6.485   4.819   1.105 -1.2366 -0.0031 -0.8431
   33MOL   H12328987   6.595   4.447   0.927  0.7061  0.2477  0.3996
   33MOL   H12428988   6.518   4.325   1.138 -0.7400 -0.0960 -0.4640
   33MOL   H12528989   6.356   4.904   0.869  0.1509 -1.0109 -0.1900
   33MOL   H12628990   6.373   5.160   0.893  0.4679  0.9882  1.2956
   33MOL   H12728991   6.787   5.154   0.827  0.1670 -0.4656 -0.1876
   33MOL   H12828992   6.781   4.904   0.807 -0.8899  0.3423  0.3445
   33MOL   H12928993   6.450   5.354   1.143 -0.4019  1.3314  0.4641
   33MOL   H13028994   6.557   5.393   1.352  0.7253  0.1772  0.5023
   33MOL   H13128995   6.944   5.343   1.154 -0.7943 -1.0661 -3.1800
   33MOL   H13228996   6.835   5.330   0.949 -1.1189 -1.2828 -0.9745
   33MOL   H13328997   6.997   5.492   1.335 -1.2657  0.5600  0.3197
   33MOL   H13428998   7.130   5.472   1.547  0.6681 -0.8180 -0.3856
   33MOL   H13528999   6.803   5.233   1.713 -4.0478  0.1786 -0.6678
   33MOL   H13629000   6.686   5.249   1.508 -0.6547  2.5427 -0.5994
   33MOL   C13729001   7.092   5.442   1.837 -0.7604  0.4147  0.8561
   33MOL   C13829002   7.004   5.529   1.910 -0.5901  1.3907 -0.0959
   33MOL   C13929003   7.051   5.645   1.976 -0.3287  0.5892  0.4101
   33MOL   C14029004   7.191   5.677   1.969 -0.0433 -0.7091 -0.8727
   33MOL   C14129005   7.280   5.592   1.901  0.8153  0.3813  0.5331
   33MOL   C14229006   7.234   5.479   1.832  0.1867 -0.4260 -0.6735
   33MOL   S14329007   7.243   5.815   2.059 -0.1176  0.1125 -0.1826
   33MOL   O14429008   7.209   5.934   1.981  0.6874 -0.0244  0.3875
   33MOL   O14529009   7.381   5.787   2.106 -0.1788 -0.6925  0.5121
   33MOL   C14629010   7.140   5.820   2.203 -0.1234  0.2378 -0.0158
   33MOL   C14729011   7.081   5.941   2.231  0.2300 -0.0575  0.4728
   33MOL   C14829012   7.014   5.957   2.354  0.4189 -0.2465  0.0447
   33MOL   C14929013   7.003   5.850   2.443 -0.4644  0.2796  0.6225
   33MOL   C15029014   7.052   5.723   2.407 -0.6063  0.4343 -0.2573
   33MOL   C15129015   7.125   5.709   2.287 -0.2160 -0.1342  0.0508
   33MOL   O15229016   6.932   5.859   2.558 -0.6428 -0.0391  0.4841
   33MOL   C15329017   6.796   5.850   2.555 -0.1432 -0.1710 -0.2120
   33MOL   C15429018   6.727   5.737   2.506 -0.1749 -0.0811  0.4664
   33MOL   C15529019   6.585   5.737   2.488  0.0921  0.0498 -0.2233
   33MOL   C15629020   6.504   5.837   2.551  0.3237 -0.2923  0.1490
   33MOL   C15729021   6.577   5.943   2.604  0.1026 -0.1634 -1.0831
   33MOL   C15829022   6.714   5.948   2.611  0.1670  0.2512 -0.0102
   33MOL   C15929023   6.356   5.836   2.553 -0.7206 -0.4815  0.2399
   33MOL   C16029024   6.288   5.889   2.669  0.4940 -0.0221 -0.1821
   33MOL   C16129025   6.148   5.885   2.682  0.4123 -0.4331  1.1050
   33MOL   C16229026   6.074   5.831   2.578  0.8849 -0.2535 -0.2555
   33MOL   C16329027   6.143   5.776   2.466  0.1877 -0.7420  0.0072
   33MOL   C16429028   6.280   5.782   2.449  0.2601  1.0639  0.5272
   33MOL   O16529029   5.938   5.811   2.601  0.0242 -0.5663  0.0595
   33MOL   H16629030   6.897   5.517   1.922 -0.8487  1.2989 -2.2289
   33MOL   H16729031   6.983   5.717   2.019 -2.2266 -1.2378  0.5259
   33MOL   H16829032   7.387   5.606   1.900  0.7731  0.7049 -0.8765
   33MOL   H16929033   7.300   5.408   1.784  1.6469  0.5201 -0.1179
   33MOL   H17029034   7.113   6.026   2.172  0.7621  0.3884  1.3814
   33MOL   H17129035   6.982   6.053   2.391  0.6546  0.4476 -1.5358
   33MOL   H17229036   7.047   5.643   2.479 -0.2218 -1.1347 -1.9539
   33MOL   H17329037   7.189   5.623   2.272  0.5888  0.6036 -0.7529
   33MOL   H17429038   6.782   5.659   2.456  0.7700  2.3014 -2.3538
   33MOL   H17529039   6.543   5.648   2.444 -1.5595  0.1957  0.9928
   33MOL   H17629040   6.523   6.027   2.645 -1.6267 -1.3154 -0.9201
   33MOL   H17729041   6.757   6.035   2.658  0.8273  0.2579 -0.6238
   33MOL   H17829042   6.340   5.925   2.757  0.1053  0.9754 -0.3552
   33MOL   H17929043   6.104   5.925   2.771  0.5743 -0.0903  1.0324
   33MOL   H18029044   6.092   5.721   2.389  0.1878  0.8925 -1.1766
   33MOL   H18129045   6.326   5.743   2.360  1.4485  2.8801  0.3363
   33MOL   C18229046   5.858   5.915   2.560  0.0754  0.2135 -0.1845
   33MOL   C18329047   5.836   6.024   2.645 -0.1819  0.6870  0.1205
   33MOL   C18429048   5.748   6.130   2.613  0.1168 -0.7062  0.3088
   33MOL   C18529049   5.695   6.124   2.480  0.3378  0.1368  0.7436
   33MOL   C18629050   5.714   6.007   2.395 -0.4749  0.8362  0.2358
   33MOL   C18729051   5.782   5.894   2.443  0.0488  0.1879  0.7323
   33MOL   S18829052   5.584   6.259   2.421 -0.0146  0.3006 -0.0575
   33MOL   O18929053   5.444   6.213   2.424  0.1534  0.6603 -0.0284
   33MOL   O19029054   5.637   6.312   2.293 -0.2472 -0.3085  0.0338
   33MOL   C19129055   5.591   6.384   2.543  0.0061 -0.3958  0.2928
   33MOL   C19229056   5.690   6.485   2.541 -0.8530 -0.0720 -0.5840
   33MOL   C19329057   5.710   6.567   2.654  0.8594 -0.5562  0.6761
   33MOL   C19429058   5.631   6.542   2.772  0.0308 -0.2081 -0.9561
   33MOL   C19529059   5.526   6.453   2.767 -0.1012  0.5640  0.6755
   33MOL   C19629060   5.502   6.376   2.652 -0.7414  0.0438  0.2659
   33MOL   O19729061   5.648   6.604   2.898  0.3462  0.0096 -0.1888
   33MOL   C19829062   5.761   6.678   2.912 -0.0738 -0.3961  0.3251
   33MOL   C19929063   5.779   6.808   2.849  0.1382 -0.1637 -0.3122
   33MOL   C20029064   5.904   6.876   2.859  0.2759 -0.2904 -0.3431
   33MOL   C20129065   6.009   6.816   2.936  0.4142  0.4536 -0.3335
   33MOL   C20229066   5.988   6.686   2.995  0.0892  0.0085  0.0984
   33MOL   C20329067   5.871   6.616   2.973  0.2055 -0.1487 -0.5351
   33MOL   C20429068   6.142   6.867   2.939  0.3421  0.1395 -0.2138
   33MOL   C20529069   6.175   6.977   3.018  0.7745 -0.0892 -0.0778
   33MOL   C20629070   6.306   7.030   3.013 -1.3487 -0.0248 -0.3564
   33MOL   C20729071   6.412   6.965   2.945 -0.3909 -0.1742  0.1351
   33MOL   C20829072   6.384   6.848   2.873  0.3484  0.0087  0.0383
   33MOL   C20929073   6.246   6.802   2.873  1.2011 -0.1982  0.1582
   33MOL   O21029074   6.537   7.018   2.936  0.0433 -0.0553  0.9050
   33MOL   H21129075   5.889   6.025   2.739  0.0669 -0.6508 -0.0000
   33MOL   H21229076   5.740   6.212   2.683  1.7008  1.1543 -1.6153
   33MOL   H21329077   5.676   6.011   2.294 -1.7780 -0.0256  0.6838
   33MOL   H21429078   5.804   5.814   2.373 -1.6471  1.1306 -0.9242
   33MOL   H21529079   5.767   6.485   2.465  1.5361 -1.5016  1.7538
   33MOL   H21629080   5.797   6.631   2.658 -0.4101  1.1550  1.5877
   33MOL   H21729081   5.471   6.444   2.860 -2.0775  2.3906 -0.2810
   33MOL   H21829082   5.426   6.301   2.661  1.6967 -2.5735 -0.1699
   33MOL   H21929083   5.697   6.854   2.795 -1.8048 -1.9670  1.0456
   33MOL   H22029084   5.919   6.973   2.815 -1.4543  0.2810  0.2914
   33MOL   H22129085   6.062   6.644   3.061  1.8834  1.0601 -1.1939
   33MOL   H22229086   5.861   6.516   3.013 -0.0106  0.1497  0.1669
   33MOL   H22329087   6.103   7.024   3.083  0.7077 -1.8552  1.1777
   33MOL   H22429088   6.329   7.113   3.077 -1.2187 -0.5293  0.2576
   33MOL   H22529089   6.443   6.783   2.810 -2.1854 -0.2486 -2.1332
   33MOL   H22629090   6.215   6.715   2.817  1.4813 -0.0160 -0.2865
   33MOL   C22729091   6.629   6.998   3.037 -0.1585 -0.0451  0.6394
   33MOL   C22829092   6.706   7.110   3.075  0.2261  0.6003 -0.0140
   33MOL   C22929093   6.803   7.096   3.179  0.1088  0.4276  0.5663
   33MOL   C23029094   6.822   6.970   3.236 -0.3272  0.1153  0.3230
   33MOL   C23129095   6.750   6.857   3.191  0.2296 -0.2534 -0.5380
   33MOL   C23229096   6.649   6.872   3.098 -0.9071  0.5886 -0.2686
   33MOL   S23329097   6.959   6.957   3.350  0.1553  0.0214  0.0183
   33MOL   O23429098   6.898   6.902   3.471  0.2226  0.3466  0.1400
   33MOL   O23529099   7.037   7.084   3.361 -0.3992 -0.3303  0.3111
   33MOL   C23629100   7.072   6.840   3.287 -0.9837  0.5269 -0.6688
   33MOL   C23729101   7.176   6.874   3.197 -0.1394  0.2255 -0.8412
   33MOL   C23829102   7.255   6.770   3.143  0.0954  0.0756 -0.0605
   33MOL   C23929103   7.228   6.637   3.180 -0.6891  0.8466  0.1270
   33MOL   C24029104   7.128   6.606   3.274  0.1914 -0.4164  0.1413
   33MOL   C24129105   7.051   6.704   3.326 -0.3044 -0.2690  0.1406
   33MOL   O24229106   7.304   6.536   3.119 -0.3948  0.2576  0.8536
   33MOL   C24329107   7.358   6.432   3.198 -0.2699  0.2371  0.4716
   33MOL   C24429108   7.407   6.446   3.329 -0.0469  0.8268 -0.7459
   33MOL   C24529109   7.449   6.333   3.406  0.2582 -0.3748  0.3206
   33MOL   C24629110   7.449   6.208   3.342  0.1390 -0.0587 -0.2283
   33MOL   C24729111   7.405   6.196   3.212  0.5522  0.4215 -0.7302
   33MOL   C24829112   7.363   6.304   3.138 -0.2649 -0.8804  0.5438
   33MOL   C24929113   7.491   6.095   3.423  0.4167 -1.2239 -0.3227
   33MOL   C25029114   7.546   5.986   3.355  0.0696  0.2254 -0.3159
   33MOL   C25129115   7.576   5.868   3.416 -0.4918  0.0632  0.2430
   33MOL   C25229116   7.559   5.849   3.557  0.5369  0.1252  0.8360
   33MOL   C25329117   7.510   5.961   3.627 -0.5307  0.1879  0.2436
   33MOL   C25429118   7.471   6.080   3.566 -0.7248  0.4911 -0.3979
   33MOL   O25529119   7.585   5.722   3.607 -0.6892  0.3195 -0.0905
   33MOL   H25629120   6.681   7.204   3.028  0.5122 -0.3283 -2.0874
   33MOL   H25729121   6.850   7.186   3.215  1.7163 -0.3143  0.3447
   33MOL   H25829122   6.773   6.758   3.228  2.1471  0.9306  1.5922
   33MOL   H25929123   6.589   6.792   3.057 -0.7700  1.5334 -2.4192
   33MOL   H26029124   7.196   6.977   3.171 -0.8516  0.7360  0.5697
   33MOL   H26129125   7.329   6.797   3.069 -0.7555 -0.5192 -1.1271
   33MOL   H26229126   7.097   6.508   3.307 -0.2989 -0.1500  0.4787
   33MOL   H26329127   6.981   6.681   3.405 -1.3939 -0.8700 -0.9790
   33MOL   H26429128   7.400   6.541   3.381  0.6577  0.4749 -0.0140
   33MOL   H26529129   7.493   6.348   3.504  2.2142 -1.9694 -0.2881
   33MOL   H26629130   7.413   6.104   3.157  0.8575 -0.8358  1.3544
   33MOL   H26729131   7.345   6.299   3.031  0.6767 -0.0617  0.3456
   33MOL   H26829132   7.569   6.000   3.250 -1.0725 -1.0965 -0.7634
   33MOL   H26929133   7.595   5.783   3.352 -0.4451  1.4112 -1.5428
   33MOL   H27029134   7.496   5.952   3.734  0.6896 -0.9020  0.3232
   33MOL   H27129135   7.424   6.163   3.616  0.8079  2.0265 -1.4355
   33MOL   C27229136   7.714   5.690   3.610  0.1969 -0.1803 -0.3694
   33MOL   C27329137   7.737   5.550   3.616  0.4134  0.3503  0.2512
   33MOL   C27429138   7.869   5.500   3.635 -0.2101 -0.5995 -0.0881
   33MOL   C27529139   7.978   5.593   3.640 -0.0181  0.5932  0.9982
   33MOL   C27629140   7.959   5.733   3.629  0.0018 -0.4810  0.3495
   33MOL   C27729141   7.826   5.780   3.622  0.0496  0.7210 -0.1706
   33MOL   S27829142   8.147   5.528   3.653  0.1635 -0.0357  0.3326
   33MOL   O27929143   8.152   5.450   3.778  0.0631 -0.5069  0.2778
   33MOL   O28029144   8.238   5.641   3.640  0.3487  0.9210  0.4841
   33MOL   C28129145   8.181   5.416   3.523 -0.4661 -0.0864 -0.2183
   33MOL   C28229146   8.295   5.337   3.538 -0.0839 -0.6282 -0.0154
   33MOL   C28329147   8.327   5.247   3.439 -0.4330 -0.9035 -0.5143
   33MOL   C28429148   8.253   5.244   3.316 -0.4219  0.1708 -0.3376
   33MOL   C28529149   8.142   5.326   3.302 -0.5616  1.2030  0.3176
   33MOL   C28629150   8.107   5.411   3.404 -0.4857 -0.0876  0.3928
   33MOL   O28729151   8.300   5.178   3.204 -0.1933  0.1471  0.2206
   33MOL   C28829152   8.309   5.251   3.088 -0.4396 -0.1869 -0.8688
   33MOL   C28929153   0.030   5.358   3.077  0.9821  0.1360  0.2969
   33MOL   C29029154   0.038   5.427   2.956 -0.0728 -1.1632  0.5613
   33MOL   C29129155   8.331   5.384   2.842 -0.5937 -0.2509 -0.8111
   33MOL   C29229156   8.239   5.282   2.857  0.2836 -0.5065 -0.7685
   33MOL   C29329157   8.233   5.213   2.974  0.2268  0.2210  0.0272
   33MOL   C29429158   8.358   5.449   2.716  0.1159  0.0096 -0.4347
   33MOL   C29529159   0.086   5.399   2.622  0.0658  0.1645 -0.2310
   33MOL   C29629160   0.110   5.465   2.500 -0.3956 -0.3654 -0.2890
   33MOL   C29729161   0.049   5.588   2.467 -0.7478  0.1954 -0.1639
   33MOL   C29829162   8.322   5.635   2.562  0.6678  0.2932 -0.4516
   33MOL   C29929163   8.293   5.568   2.684  0.5478  0.4881  0.2099
   33MOL   O30029164   0.089   5.656   2.356 -0.1919  0.0780 -0.0049
   33MOL   H30129165   7.655   5.480   3.627  0.6998 -0.6337 -3.2648
   33MOL   H30229166   7.884   5.393   3.641 -1.6477 -0.8854 -1.5333
   33MOL   H30329167   8.048   5.792   3.647  0.1396 -0.3903 -0.6412
   33MOL   H30429168   7.822   5.887   3.631 -0.3705  0.5342  2.0616
   33MOL   H30529169   8.355   5.350   3.627 -1.0667 -0.1017  0.5724
   33MOL   H30629170   0.054   5.193   3.452  1.3273  1.3281 -3.1043
   33MOL   H30729171   8.090   5.321   3.207 -0.3950  0.5975  0.2522
   33MOL   H30829172   8.016   5.468   3.394  0.4669  1.0953 -1.9728
   33MOL   H30929173   0.088   5.394   3.160 -1.2272  1.8655  1.1365
   33MOL   H31029174   0.119   5.499   2.946 -1.4858  0.2757 -0.8279
   33MOL   H31129175   8.178   5.255   2.772 -2.5081 -0.5386  1.1569
   33MOL   H31229176   8.164   5.130   2.984  1.2212 -0.7737 -1.2965
   33MOL   H31329177   0.153   5.316   2.639  0.2572  0.3532 -0.0575
   33MOL   H31429178   0.190   5.436   2.433  0.3360  2.6832 -0.8382
   33MOL   H31529179   8.271   5.729   2.544 -1.1801 -0.1674  2.1124
   33MOL   H31629180   8.209   5.605   2.741 -1.6145 -0.3146 -2.3885
   33MOL   C31729181   0.027   5.618   2.233  0.5786  0.0407  0.8241
   33MOL   C31829182   8.276   5.541   2.225  0.3548  0.1085  1.3968
   33MOL   C31929183   8.209   5.520   2.098  0.6712  0.5949  0.4674
   33MOL   C32029184   8.248   5.597   1.989 -0.5533  0.4968 -0.3688
   33MOL   C32129185   8.363   5.677   1.996  0.2782  0.2172 -0.9354
   33MOL   C32229186   0.068   5.687   2.117  0.0814  0.9881  0.7630
   33MOL   S32329187   8.146   5.584   1.839 -0.2605 -0.3899  0.0983
   33MOL   O32429188   8.077   5.711   1.824 -0.2672  0.4080 -0.0886
   33MOL   O32529189   8.069   5.458   1.858  0.2146  0.6859  0.4019
   33MOL   C32629190   8.250   5.568   1.692  0.1762 -0.1148 -0.2804
   33MOL   C32729191   0.015   5.517   1.702 -0.0321 -0.5094  0.7690
   33MOL   C32829192   0.091   5.504   1.585 -0.2617 -0.7214  1.2107
   33MOL   C32929193   0.029   5.540   1.458  0.2585 -0.2915  0.4019
   33MOL   C33029194   8.260   5.577   1.455  0.2156 -0.3474  0.5421
   33MOL   C33129195   8.186   5.585   1.572  0.5837  0.2945  0.8098
   33MOL   O33229196   0.101   5.527   1.344  0.1896 -0.1840 -0.2853
   33MOL   C33329197   0.061   5.443   1.247 -0.0079  0.8459 -0.2589
   33MOL   C33429198   0.050   5.492   1.116 -0.2452  0.0210  1.1047
   33MOL   C33529199   0.001   5.408   1.014 -0.3988  0.7785 -0.2696
   33MOL   C33629200   8.334   5.271   1.043  0.2720 -0.1536 -0.7493
   33MOL   C33729201   8.346   5.222   1.172 -0.2498 -0.0546  0.0044
   33MOL   C33829202   0.027   5.309   1.276  0.3701  0.1258  0.0362
   33MOL   C33929203   8.268   5.190   0.932 -0.3345 -0.0686 -0.2761
   33MOL   C34029204   8.190   5.257   0.834  0.6706 -0.0420  0.0826
   33MOL   C34129205   8.124   5.187   0.728 -0.2051 -0.2671 -0.1167
   33MOL   C34229206   8.131   5.042   0.721  0.3797  0.3473  0.3355
   33MOL   C34329207   8.213   4.976   0.822 -0.3170 -0.0742 -0.1708
   33MOL   C34429208   8.279   5.048   0.919  0.2664  0.6475 -0.0312
   33MOL   O34529209   8.072   4.972   0.617 -0.0721  0.2714 -0.2709
   33MOL   H34629210   8.221   5.507   2.312 -3.6282 -0.3795 -1.2252
   33MOL   H34729211   8.115   5.468   2.092 -0.4943  2.6468  0.2891
   33MOL   H34829212   0.034   5.720   1.904 -0.7051  1.4409 -0.7739
   33MOL   H34929213   0.165   5.735   2.117  0.6033 -0.0080 -1.1258
   33MOL   H35029214   0.064   5.499   1.797  1.0939 -2.0824 -0.0895
   33MOL   H35129215   0.196   5.482   1.583  0.1160  1.1338 -1.6023
   33MOL   H35229216   8.211   5.603   1.363 -0.9516 -1.1842  0.9179
   33MOL   H35329217   8.082   5.615   1.564  0.4100 -0.2912  0.7779
   33MOL   H35429218   0.076   5.592   1.086 -0.5455  0.2454  1.5949
   33MOL   H35529219   8.356   5.455   0.918  1.3158  2.6746  0.4378
   33MOL   H35629220   8.315   5.120   1.191 -0.7535  0.1680  0.4063
   33MOL   H35729221   0.036   5.266   1.375  0.9515  0.3059  0.0643
   33MOL   H35829222   8.172   5.362   0.849  1.8186  0.4247 -1.6749
   33MOL   H35929223   8.068   5.243   0.654  0.3021  0.5664  0.1223
   33MOL   H36029224   8.228   4.869   0.821 -0.6880 -0.1221 -1.3110
   33MOL   H36129225   8.344   4.998   0.990 -1.8095  0.8397  2.0326
   33MOL   C36229226   7.989   5.033   0.526 -0.2181  0.3278  0.4007
   33MOL   C36329227   7.862   5.085   0.566 -0.1472  0.4089 -0.2639
   33MOL   C36429228   7.776   5.148   0.469 -0.0343 -0.2156  0.5464
   33MOL   C36529229   7.828   5.171   0.340  0.0229 -0.0639 -0.3689
   33MOL   C36629230   7.947   5.117   0.308 -0.6846 -0.2519  0.4063
   33MOL   C36729231   8.036   5.049   0.397 -0.1846 -0.2025 -0.3655
   33MOL   S36829232   7.731   5.251   0.206  0.2280 -0.2444 -0.5143
   33MOL   O36929233   7.587   5.250   0.252 -0.3597 -0.0824  0.7468
   33MOL   O37029234   7.765   5.194   0.078  0.4073 -0.5596  0.3868
   33MOL   C37129235   7.775   5.427   0.196 -0.7494 -0.5671 -0.5326
   33MOL   C37229236   7.883   5.485   0.265  0.0752  0.4690  0.2950
   33MOL   C37329237   7.911   5.617   0.237  0.2933 -0.4248 -0.4491
   33MOL   C37429238   7.827   5.693   0.158 -0.1435  0.0371  0.4924
   33MOL   C37529239   7.709   5.633   0.102  0.2126 -0.4321 -0.5075
   33MOL   C37629240   7.685   5.500   0.118  0.8358 -0.1979 -0.5181
   33MOL   O37729241   7.848   5.824   0.118  0.5239 -0.1068 -0.2703
   33MOL   C37829242   7.880   5.916   0.212 -0.8048  0.6500  0.5024
   33MOL   C37929243   7.790   5.960   0.310  0.9532 -0.2205 -0.6090
   33MOL   C38029244   7.832   6.057   0.405 -0.3775  0.3209 -0.4059
   33MOL   C38129245   7.965   6.109   0.400  0.0328  0.3420 -0.2754
   33MOL   C38229246   8.050   6.077   0.292 -0.0975  0.2003  0.1706
   33MOL   C38329247   8.006   5.979   0.204  0.6111 -0.3312  0.1129
   33MOL   C38429248   8.023   6.194   0.506 -0.1176  0.0460 -0.6255
   33MOL   C38529249   7.958   6.320   0.531  0.7747  0.4046 -0.8580
   33MOL   C38629250   7.999   6.411   0.631 -0.5785 -0.4025  1.0422
   33MOL   C38729251   8.114   6.375   0.699  0.1237 -0.1929 -0.7010
   33MOL   C38829252   8.180   6.260   0.674  0.4563  0.8226 -0.5184
   33MOL   C38929253   8.136   6.169   0.578 -0.1305 -0.3674 -0.8946
   33MOL   O39029254   8.172   6.458   0.791  0.4909  0.2997 -0.3878
   33MOL   H39129255   7.816   5.077   0.663 -2.3690  1.9293 -1.1333
   33MOL   H39229256   7.677   5.185   0.492 -0.6553 -1.3618 -0.2663
   33MOL   H39329257   7.982   5.118   0.206  1.1394 -2.3353  0.9670
   33MOL   H39429258   8.134   5.013   0.369 -0.4179 -0.6331 -0.6479
   33MOL   H39529259   7.952   5.422   0.320  1.5462  2.3029  0.6056
   33MOL   H39629260   7.986   5.667   0.295 -1.4379 -1.5399  2.8531
   33MOL   H39729261   7.648   5.702   0.047  0.0017  1.5795  2.1537
   33MOL   H39829262   7.601   5.450   0.070 -0.7643  1.2727  0.6710
   33MOL   H39929263   7.692   5.917   0.322  0.7049 -0.2238 -2.4738
   33MOL   H40029264   7.771   6.099   0.485  0.6497  2.7470 -0.8500
   33MOL   H40129265   8.146   6.125   0.288  0.6469 -1.1215  1.6536
   33MOL   H40229266   8.068   5.956   0.119 -1.9911 -0.1620 -1.9264
   33MOL   H40329267   7.862   6.339   0.486 -1.3536 -0.5476  3.0419
   33MOL   H40429268   7.941   6.497   0.660 -1.3839 -0.8178  0.6710
   33MOL   H40529269   8.271   6.231   0.726  0.7762 -0.6871 -1.8627
   33MOL   H40629270   8.193   6.077   0.569 -0.0703 -0.6907  2.2357
   33MOL   C40729271   8.097   6.515   0.890  0.1224 -0.1257  0.0199
   33MOL   C40829272   8.034   6.435   0.992  0.4283  0.3262 -0.0670
   33MOL   C40929273   7.964   6.500   1.097 -0.1247 -0.1884  0.6547
   33MOL   C41029274   7.965   6.641   1.103 -0.0231  0.4741  0.6611
   33MOL   C41129275   8.016   6.717   0.995  0.9472 -0.0062 -0.4847
   33MOL   C41229276   8.087   6.652   0.892  0.7843 -0.7153 -0.5684
   33MOL   S41329277   7.882   6.728   1.246  0.2488  0.2993  0.3027
   33MOL   O41429278   7.741   6.678   1.258  0.4133 -0.2409  0.1491
   33MOL   O41529279   7.912   6.873   1.226 -0.3152  0.6599  0.4506
   33MOL   C41629280   7.973   6.676   1.390 -0.4143  0.1566 -0.3804
   33MOL   C41729281   7.904   6.624   1.500 -0.4059 -0.4031  0.0866
   33MOL   C41829282   7.975   6.608   1.614  0.5145 -0.0768  0.3226
   33MOL   C41929283   8.116   6.611   1.620  0.3640 -0.3847 -0.0141
   33MOL   C42029284   8.185   6.644   1.503 -0.1493 -0.5643 -0.1010
   33MOL   C42129285   8.112   6.687   1.386 -0.0004  0.9136 -0.8375
   33MOL   O42229286   8.183   6.583   1.741 -0.1321 -0.2556 -0.5156
   33MOL   C42329287   8.305   6.525   1.737  0.7588 -0.1418  0.4217
   33MOL   C42429288   0.055   6.598   1.742  0.3804  0.2223  0.2908
   33MOL   C42529289   0.177   6.542   1.712 -0.2685  0.6210 -0.5654
   33MOL   C42629290   0.188   6.406   1.681  0.9075  0.4156 -0.4709
   33MOL   C42729291   0.070   6.326   1.691 -0.0653 -0.1305  1.0180
   33MOL   C42829292   8.309   6.385   1.713  0.2556 -0.1087  0.4258
   33MOL   C42929293   0.320   6.347   1.645  0.0412 -0.2514  0.4151
   33MOL   C43029294   0.373   6.231   1.702  0.2690 -0.2998 -0.1054
   33MOL   C43129295   0.484   6.172   1.637  0.3012  0.1064 -0.1840
   33MOL   C43229296   0.546   6.223   1.518  0.6008  0.3773  0.0997
   33MOL   C43329297   0.497   6.348   1.471 -0.4245 -0.5317 -0.3822
   33MOL   C43429298   0.382   6.411   1.534  0.0272  0.0482  0.6428
   33MOL   O43529299   0.647   6.153   1.450  0.5454 -0.9948  0.2366
   33MOL   H43629300   8.048   6.328   1.000 -0.2586  0.2037 -0.4434
   33MOL   H43729301   7.917   6.440   1.174 -0.2609 -3.3436 -1.7632
   33MOL   H43829302   8.007   6.825   0.985  0.4987  0.0391  0.3884
   33MOL   H43929303   8.123   6.711   0.809  1.8698 -0.8896 -0.2331
   33MOL   H44029304   7.796   6.615   1.505 -0.3654  0.3364  3.2778
   33MOL   H44129305   7.917   6.583   1.701  0.6285 -0.7376  0.2119
   33MOL   H44229306   8.291   6.624   1.502  0.0021  0.2276  0.0916
   33MOL   H44329307   8.167   6.701   1.294  0.7723 -1.8579 -0.8200
   33MOL   H44429308   0.053   6.706   1.747 -1.4738  0.2898 -1.3845
   33MOL   H44529309   0.263   6.608   1.709 -0.0799  0.4854  1.2356
   33MOL   H44629310   0.079   6.219   1.683 -1.6294 -0.2796  1.1933
   33MOL   H44729311   8.217   6.329   1.710 -0.8388  1.6845  0.3136
   33MOL   H44829312   0.311   6.188   1.780  0.8139 -0.4872  0.2356
   33MOL   H44929313   0.510   6.073   1.673 -0.1942  0.6407  1.6964
   33MOL   H45029314   0.547   6.386   1.383  1.8724  0.0148  1.1201
   33MOL   H45129315   0.342   6.499   1.485 -1.1585 -1.4816 -1.2348
   33MOL   C45229316   0.720   6.054   1.514 -0.0169  0.0975 -0.2991
   33MOL   C45329317   0.783   6.088   1.635  0.1968 -0.0976  0.6405
   33MOL   C45429318   0.849   5.988   1.712 -0.4933  0.9090 -0.1381
   33MOL   C45529319   0.850   5.852   1.669 -0.4813  0.1810 -0.2583
   33MOL   C45629320   0.790   5.826   1.545  0.6258 -0.1209  0.3285
   33MOL   C45729321   0.724   5.923   1.468  0.3844  0.1067  0.2260
   33MOL   S45829322   0.928   5.723   1.767  0.1036  0.0144  0.3031
   33MOL   O45929323   1.060   5.696   1.709 -0.4575 -0.2279 -0.2817
   33MOL   O46029324   0.828   5.618   1.766  1.2191  0.3958 -0.1058
   33MOL   C46129325   0.947   5.787   1.934 -0.0470 -0.5976 -0.1387
   33MOL   C46229326   0.836   5.775   2.022 -0.4385  0.5778  0.4587
   33MOL   C46329327   0.852   5.820   2.156 -0.2878 -0.0654  0.3968
   33MOL   C46429328   0.977   5.869   2.202 -0.1643  0.5096 -0.4036
   33MOL   C46529329   1.083   5.882   2.113  0.6221 -0.2884  0.1928
   33MOL   C46629330   1.074   5.840   1.976 -0.0802 -0.6466 -0.4055
   33MOL   O46729331   0.980   5.901   2.332  0.2406 -0.1159 -0.0064
   33MOL   C46829332   0.996   5.792   2.416 -0.4023 -0.2728  0.8186
   33MOL   C46929333   0.913   5.774   2.530  0.0154  0.9391  0.0913
   33MOL   C47029334   0.935   5.668   2.617 -0.0704 -0.3793 -0.0643
   33MOL   C47129335   1.042   5.577   2.595 -0.2142  0.0790  0.4884
   33MOL   C47229336   1.126   5.595   2.483  0.1119 -0.7913 -0.7395
   33MOL   C47329337   1.101   5.701   2.392  0.6498  0.5565 -0.5853
   33MOL   C47429338   1.061   5.471   2.693  0.5696 -0.1017 -0.6537
   33MOL   C47529339   1.115   5.346   2.658  0.5697  0.1369 -0.0166
   33MOL   C47629340   1.149   5.250   2.758  0.7062 -0.4392  0.5107
   33MOL   C47729341   1.118   5.277   2.893  0.4406 -0.3071  0.1536
   33MOL   C47829342   1.064   5.403   2.929 -0.0084  0.2715 -0.5914
   33MOL   C47929343   1.040   5.500   2.829 -0.1045  1.1535  0.0726
   33MOL   O48029344   1.152   5.192   2.994  0.0522 -0.1228  0.3473
   33MOL   H48129345   0.768   6.190   1.666 -0.0247 -0.7172  2.6369
   33MOL   H48229346   0.882   6.006   1.813 -3.3215 -0.8239  1.1840
   33MOL   H48329347   0.787   5.722   1.515 -1.2553  0.7002 -2.4743
   33MOL   H48429348   0.679   5.897   1.374 -1.3876  1.7576  0.5922
   33MOL   H48529349   0.741   5.737   1.988 -1.3242  1.4072  1.9545
   33MOL   H48629350   0.759   5.818   2.211  0.2800  0.8805  1.4035
   33MOL   H48729351   1.181   5.916   2.141  0.6395  1.0640 -1.4538
   33MOL   H48829352   1.158   5.853   1.909  0.5861 -0.9690  0.3537
   33MOL   H48929353   0.837   5.847   2.550  0.7274  1.4470  0.9507
   33MOL   H49029354   0.875   5.660   2.706  2.3662 -1.0799  1.5597
   33MOL   H49129355   1.214   5.533   2.477  0.8197  0.2294 -0.9540
   33MOL   H49229356   1.169   5.717   2.310  0.7261  0.1397 -0.6037
   33MOL   H49329357   1.145   5.326   2.556 -0.3959 -0.2730 -0.2253
   33MOL   H49429358   1.163   5.149   2.723 -1.5593 -0.4602 -0.4615
   33MOL   H49529359   1.038   5.426   3.032  0.2926  0.2284 -0.5062
   33MOL   H49629360   1.006   5.598   2.860 -2.1188  0.0559  1.4751
   33MOL   C49729361   1.287   5.186   3.031 -0.1801 -0.6303 -0.7286
   33MOL   C49829362   1.370   5.297   3.012  0.8680 -0.3939 -0.7161
   33MOL   C49929363   1.506   5.299   3.053 -0.2612  0.1535 -0.2489
   33MOL   C50029364   1.566   5.187   3.111 -0.4212  0.1290  0.1429
   33MOL   C50129365   1.484   5.075   3.130 -0.5915 -0.0357 -0.2000
   33MOL   C50229366   1.346   5.072   3.098 -0.3676 -0.0786 -0.5390
   33MOL   S50329367   1.741   5.188   3.160 -0.0022 -0.0230 -0.1514
   33MOL   O50429368   1.813   5.169   3.032 -0.4792 -0.3333 -0.0714
   33MOL   O50529369   1.744   5.091   3.269  0.0118 -0.2233  0.5609
   33MOL   C50629370   1.773   5.350   3.219  0.5422 -0.0446  1.1915
   33MOL   C50729371   1.759   5.388   3.352  1.2885  0.2516  0.2308
   33MOL   C50829372   1.795   5.517   3.396  0.3792 -0.1574 -0.1779
   33MOL   C50929373   1.834   5.614   3.299  0.5198  0.6688  0.1730
   33MOL   C51029374   1.860   5.571   3.168  0.7170 -0.4356 -0.2471
   33MOL   C51129375   1.828   5.443   3.132  0.2184  0.6094 -0.1601
   33MOL   O51229376   1.869   5.733   3.347 -0.4525 -0.7869  0.1536
   33MOL   C51329377   1.775   5.831   3.366  0.5037 -0.4904  0.1416
   33MOL   C51429378   1.671   5.838   3.272 -0.5140  0.2937 -0.1985
   33MOL   C51529379   1.562   5.926   3.289  0.6072 -0.3040  0.6847
   33MOL   C51629380   1.556   6.003   3.404 -0.7629  1.0780  0.1597
   33MOL   C51729381   1.663   6.003   3.502  0.3277  0.2227  0.2635
   33MOL   C51829382   1.771   5.912   3.484 -1.0459  0.7705 -0.4235
   33MOL   C51929383   1.447   6.096   3.418  0.0772  0.3800  0.2596
   33MOL   C52029384   1.321   6.073   3.474  0.5755 -1.0178 -0.0943
   33MOL   C52129385   1.222   6.174   3.481  0.3541  0.1663  0.1415
   33MOL   C52229386   1.251   6.299   3.433  0.0869 -0.2486  0.0077
   33MOL   C52329387   1.379   6.326   3.376  1.1238 -1.0367  0.2093
   33MOL   C52429388   1.472   6.223   3.359  0.1249  0.5030 -0.7092
   33MOL   O52529389   1.156   6.398   3.449  0.0760  0.1349 -0.0370
   33MOL   H52629390   1.327   5.389   2.975  0.2380 -0.6128 -0.5295
   33MOL   H52729391   1.570   5.385   3.042 -1.1000  0.4457 -3.3499
   33MOL   H52829392   1.515   4.981   3.172  0.2619 -0.6824 -2.1970
   33MOL   H52929393   1.297   4.978   3.118  2.0171 -1.0408  0.9395
   33MOL   H53029394   1.711   5.318   3.419  1.4894 -1.4517 -1.3586
   33MOL   H53129395   1.789   5.539   3.502  1.4289  1.6939 -0.4890
   33MOL   H53229396   1.905   5.637   3.096  0.2989  0.6066  0.4311
   33MOL   H53329397   1.854   5.419   3.030  1.8900  0.5297  0.2600
   33MOL   H53429398   1.675   5.785   3.178 -0.7566  0.1597 -0.1358
   33MOL   H53529399   1.487   5.934   3.212  0.0464  0.6809  1.3169
   33MOL   H53629400   1.654   6.054   3.597  3.0324 -0.3732  0.8724
   33MOL   H53729401   1.846   5.904   3.561 -0.2901  3.1289 -0.8617
   33MOL   H53829402   1.293   5.972   3.500  0.9686 -0.6829  1.7285
   33MOL   H53929403   1.122   6.149   3.513 -0.2741 -1.5736 -3.0040
   33MOL   H54029404   1.404   6.425   3.342  0.5343 -0.8742  0.2509
   33MOL   H54129405   1.566   6.241   3.311 -0.4791  3.3278 -0.9454
   33MOL   C54229406   1.090   6.445   3.339  0.2190  0.9118 -0.7015
   33MOL   C54329407   1.066   6.583   3.326 -0.1742 -0.3111  0.2466
   33MOL   C54429408   1.014   6.629   3.210 -0.5764 -0.0313 -0.7996
   33MOL   C54529409   0.983   6.545   3.102  0.8539  0.3427  0.4580
   33MOL   C54629410   0.996   6.406   3.112  0.1806 -0.5805 -0.1582
   33MOL   C54729411   1.051   6.357   3.231 -0.2148 -0.7766 -0.4649
   33MOL   S54829412   0.915   6.603   2.951 -0.5659 -0.1300 -0.2835
   33MOL   O54929413   0.912   6.494   2.854 -0.2912 -0.1675  0.6676
   33MOL   O55029414   0.995   6.728   2.918 -0.1167  0.5410  0.2109
   33MOL   C55129415   0.747   6.647   2.986 -0.0517 -0.1777 -1.0027
   33MOL   C55229416   0.717   6.783   3.035 -1.0308 -0.4986  0.1950
   33MOL   C55329417   0.584   6.827   3.053  1.0589  0.1626 -0.1566
   33MOL   C55429418   0.480   6.734   3.021 -0.2480 -0.0781  0.3630
   33MOL   C55529419   0.511   6.607   2.970  1.0869  0.6624 -0.9279
   33MOL   C55629420   0.644   6.563   2.955 -0.7375  0.2279  0.0251
   33MOL   O55729421   0.351   6.765   3.052 -0.2327 -0.1926  0.0864
   33MOL   C55829422   0.279   6.682   3.126 -0.0631  0.3822  0.3960
   33MOL   C55929423   0.299   6.686   3.263  0.3614  0.0516 -0.4479
   33MOL   C56029424   0.221   6.599   3.344 -0.5729  0.1147  0.1355
   33MOL   C56129425   0.139   6.498   3.285 -0.1275  0.6468 -0.6046
   33MOL   C56229426   0.126   6.492   3.145  0.4525  0.3493 -0.2120
   33MOL   C56329427   0.188   6.593   3.065  0.2895 -0.0741  0.5447
   33MOL   C56429428   0.056   6.425   3.374  0.1095 -0.3878  0.3450
   33MOL   C56529429   8.288   6.406   3.337  0.2305 -0.3667 -0.7248
   33MOL   C56629430   8.196   6.344   3.422  0.2541 -0.4242  0.7505
   33MOL   C56729431   8.244   6.277   3.534 -0.8365  0.5329 -0.8196
   33MOL   C56829432   0.016   6.275   3.565 -0.6559 -0.1056 -0.0306
   33MOL   C56929433   0.103   6.360   3.485 -0.1412 -0.3300 -0.1963
   33MOL   O57029434   8.152   6.192   3.591  0.0570  0.5284  0.1047
   33MOL   H57129435   1.084   6.654   3.405  0.2485 -0.1571  0.0162
   33MOL   H57229436   0.995   6.735   3.208 -0.5635 -0.0276 -0.6416
   33MOL   H57329437   0.978   6.334   3.034  1.7444  0.3000 -1.3504
   33MOL   H57429438   1.066   6.250   3.238 -0.9394 -0.9975 -2.1268
   33MOL   H57529439   0.792   6.850   3.075 -3.0935  1.2231  1.2883
   33MOL   H57629440   0.550   6.919   3.098  1.2283  0.3193 -0.3496
   33MOL   H57729441   0.438   6.531   2.944 -0.4501  1.5226  0.7530
   33MOL   H57829442   0.669   6.466   2.915  3.7359  1.0899  0.4273
   33MOL   H57929443   0.364   6.758   3.311  1.2418 -1.3285  0.4726
   33MOL   H58029444   0.243   6.599   3.450 -1.0059 -0.9761  0.2284
   33MOL   H58129445   0.064   6.424   3.088 -0.5091  1.0051  0.0526
   33MOL   H58229446   0.173   6.616   2.961  0.1131 -0.9081  0.3778
   33MOL   H58329447   8.249   6.461   3.253  1.2087 -2.6571 -2.7191
   33MOL   H58429448   8.092   6.332   3.395  0.4421 -0.5022  0.0428
   33MOL   H58529449   0.048   6.218   3.651 -0.0035 -0.0428 -0.2263
   33MOL   H58629450   0.206   6.368   3.518  0.6219 -3.0739 -1.8093
   33MOL   C58729451   8.119   6.082   3.515  0.5787  0.1340 -0.3113
   33MOL   C58829452   8.216   5.984   3.491 -0.0629  0.2611 -0.2592
   33MOL   C58929453   8.184   5.880   3.401 -0.7079 -0.0979 -0.6088
   33MOL   C59029454   8.058   5.875   3.342  0.2078 -0.4691  0.5675
   33MOL   C59129455   7.964   5.976   3.367 -0.5867  0.2705  0.3990
   33MOL   C59229456   7.996   6.083   3.451  0.4871 -0.5118 -0.5113
   33MOL   S59329457   8.012   5.755   3.209 -0.0566 -0.1105 -0.0220
   33MOL   O59429458   7.895   5.679   3.260  0.0804  0.1388 -0.4625
   33MOL   O59529459   8.136   5.685   3.172 -0.4165 -0.1957  0.2317
   33MOL   C59629460   7.943   5.867   3.082  0.3014  0.4166  0.4835
   33MOL   C59729461   7.801   5.881   3.074  0.3366 -0.5937 -0.2419
   33MOL   C59829462   7.738   5.960   2.981 -0.3280 -0.3453  0.0630
   33MOL   C59929463   7.820   6.031   2.889  0.2292  0.4684 -0.6123
   33MOL   C60029464   7.962   6.021   2.884 -0.5958  0.0830  0.2272
   33MOL   C60129465   8.020   5.934   2.981 -0.4306 -0.3618  0.2398
   33MOL   O60229466   7.760   6.119   2.798  0.2428  0.2905  0.0635
   33MOL   C60329467   7.748   6.251   2.838  0.0729  0.4081  0.0015
   33MOL   C60429468   7.711   6.292   2.964 -0.0803 -0.4230 -0.6499
   33MOL   C60529469   7.685   6.422   3.001 -0.0206  0.3038  0.0836
   33MOL   C60629470   7.698   6.523   2.909  0.2179 -0.8236  0.0905
   33MOL   C60729471   7.733   6.487   2.775 -0.0405  0.1414  0.5794
   33MOL   C60829472   7.755   6.351   2.745 -0.2596  0.4403  0.2221
   33MOL   C60929473   7.690   6.667   2.948 -0.2431  0.0275  0.3407
   33MOL   C61029474   7.749   6.777   2.878  0.7001  0.3644 -0.2156
   33MOL   C61129475   7.756   6.906   2.929  0.0297  0.9628  0.3269
   33MOL   C61229476   7.686   6.934   3.049 -0.0098 -0.7335 -0.4827
   33MOL   C61329477   7.607   6.832   3.111 -0.5843  0.1587 -0.7064
   33MOL   C61429478   7.614   6.701   3.058 -0.3069  1.1787 -0.6201
   33MOL   O61529479   7.694   7.054   3.114  0.3868 -0.2643 -0.2074
   33MOL   H61629480   8.318   5.991   3.524  0.0277 -1.4124 -0.1383
   33MOL   H61729481   8.263   5.810   3.380 -0.3015 -0.5307  2.1522
   33MOL   H61829482   7.868   5.973   3.318 -0.1270 -0.9844 -0.4921
   33MOL   H61929483   7.920   6.159   3.466 -0.1527 -1.1122 -0.6584
   33MOL   H62029484   7.737   5.826   3.143  1.5317 -0.0545  1.3345
   33MOL   H62129485   7.631   5.976   2.978 -0.1952  0.8376  1.5483
   33MOL   H62229486   8.027   6.075   2.817 -3.2992  1.6029 -1.2734
   33MOL   H62329487   8.127   5.927   2.987 -0.1974 -0.5834 -3.1083
   33MOL   H62429488   7.693   6.226   3.048 -1.9600  1.4455  0.4767
   33MOL   H62529489   7.650   6.441   3.101 -2.0631  1.4617 -0.8154
   33MOL   H62629490   7.740   6.554   2.691  0.9589 -0.8996 -0.1934
   33MOL   H62729491   7.781   6.329   2.642  1.0845  1.3382  0.3599
   33MOL   H62829492   7.801   6.757   2.785 -1.1811  0.6299 -1.3460
   33MOL   H62929493   7.808   6.983   2.875 -1.6215  0.5311 -1.9465
   33MOL   H63029494   7.550   6.858   3.199 -2.3211  0.8055 -2.0045
   33MOL   H63129495   7.560   6.623   3.110  0.9855  0.8572  0.2462
   33MOL   C63229496   7.756   7.062   3.231 -0.4978 -0.2364 -0.8137
   33MOL   C63329497   7.891   7.016   3.254 -0.2650 -0.0490 -0.2662
   33MOL   C63429498   7.946   7.010   3.385 -0.5034  0.3590  1.0161
   33MOL   C63529499   7.865   7.061   3.492  0.0533  0.0866  0.3994
   33MOL   C63629500   7.734   7.102   3.474 -0.2547  0.7331 -0.4481
   33MOL   C63729501   7.682   7.106   3.347 -0.1966 -0.9152 -0.0844
   33MOL   S63829502   7.922   7.048   3.662 -0.2955  0.2245  0.0670
   33MOL   O63929503   8.041   7.131   3.674 -0.2975 -0.0376  0.3110
   33MOL   O64029504   7.911   6.904   3.700  0.0602 -0.0685  0.7774
   33MOL   C64129505   7.802   7.125   3.770 -0.2251 -0.1564  0.9371
   33MOL   C64229506   7.810   7.266   3.786  0.8206  0.1478  0.0373
   33MOL   C64329507   7.722   7.336   3.865 -0.2434 -0.2868  0.0470
   33MOL   C64429508   7.616   7.266   3.930 -0.3814 -0.0324  0.3215
   33MOL   C64529509   7.615   7.125   3.919  0.3221 -0.1602  0.0950
   33MOL   C64629510   7.699   7.055   3.830  0.0474  0.2067  0.1045
   33MOL   O64729511   7.524   7.323   4.022  0.1290  0.1168  0.1895
   33MOL   C64829512   7.470   7.449   3.999 -0.6348  0.0548  0.2604
   33MOL   C64929513   7.533   7.568   4.030 -0.8839 -0.3842  0.2507
   33MOL   C65029514   7.460   7.690   4.018  0.3034 -0.4679 -0.5681
   33MOL   C65129515   7.331   7.696   3.957 -0.6030  0.0170 -0.7733
   33MOL   C65229516   7.272   7.575   3.933 -0.5372  0.2685  0.3065
   33MOL   C65329517   7.338   7.453   3.958 -0.1059  0.6104  0.1715
   33MOL   C65429518   7.261   7.822   3.933 -0.1323  0.8592  0.7451
   33MOL   C65529519   7.324   7.929   3.862  1.1103 -0.1464 -0.2021
   33MOL   C65629520   7.252   8.049   3.838 -0.4007  0.1626  0.2314
   33MOL   C65729521   7.127   8.066   3.899  0.3008 -0.7704  0.6154
   33MOL   C65829522   7.065   7.964   3.973  0.7491 -0.2134  0.5870
   33MOL   C65929523   7.131   7.836   3.983  0.0001 -0.9454 -0.5145
   33MOL   O66029524   7.059   8.183   3.881  0.4569  0.0873 -0.1771
   33MOL   H66129525   7.954   6.981   3.174 -1.4217  0.0245 -1.2282
   33MOL   H66229526   8.041   6.963   3.408 -1.3695 -1.0895  1.7036
   33MOL   H66329527   7.669   7.110   3.560  0.0650 -1.5939  0.0513
   33MOL   H66429528   7.575   7.122   3.339 -0.6877 -2.5720  2.5286
   33MOL   H66529529   7.890   7.324   3.741 -0.6112  1.2479 -1.1632
   33MOL   H66629530   7.733   7.443   3.875  2.6055 -0.4217 -1.2652
   33MOL   H66729531   7.533   7.077   3.970  1.1841 -0.4559  1.2105
   33MOL   H66829532   7.677   6.951   3.811  0.3070  0.1888 -0.0938
   33MOL   H66929533   7.630   7.566   4.077 -0.6669 -1.7590 -0.2165
   33MOL   H67029534   7.512   7.780   4.048 -0.7357  0.4570 -1.5537
   33MOL   H67129535   7.169   7.580   3.904 -0.5203  2.1273  0.5013
   33MOL   H67229536   7.285   7.359   3.947 -0.7192  1.0776 -0.9865
   33MOL   H67329537   7.425   7.922   3.824  1.0199 -1.0330 -0.3039
   33MOL   H67429538   7.300   8.132   3.788 -0.4530 -0.4253 -0.8275
   33MOL   H67529539   6.968   7.984   4.015  0.4671  1.7784 -0.9650
   33MOL   H67629540   7.091   7.754   4.041 -0.2420  0.4105  1.3067
   33MOL   C67729541   7.061   8.276   3.981  0.1929  0.0003  0.3064
   33MOL   C67829542   7.177   8.362   4.005  0.1034 -0.6826  0.3990
   33MOL   C67929543   7.184   0.082   4.118 -0.4219 -0.5611 -0.3970
   33MOL   C68029544   7.080   0.084   4.214  0.4401  0.5084 -0.3678
   33MOL   C68129545   6.967   0.005   4.188 -1.0697 -1.0894  0.7577
   33MOL   C68229546   6.957   8.283   4.078 -0.4120 -0.3417  0.4958
   33MOL   S68329547   7.098   0.165   4.371  0.2368 -0.1984  0.3652
   33MOL   O68429548   7.230   0.133   4.427  0.2218  0.0824  0.0428
   33MOL   O68529549   6.979   0.133   4.453  0.0666 -0.0823  0.5071
   33MOL   C68629550   7.085   0.333   4.338  0.2843  0.0335  0.0643
   33MOL   C68729551   7.186   0.420   4.380 -0.5097 -0.6651 -0.9760
   33MOL   C68829552   7.184   0.552   4.340  0.2537 -0.6920  0.4378
   33MOL   C68929553   7.073   0.600   4.262 -0.5927 -0.1744 -0.9135
   33MOL   C69029554   6.962   0.514   4.241  0.0516 -0.0608 -0.1752
   33MOL   C69129555   6.975   0.378   4.271  0.6074  0.1880  0.1575
   33MOL   O69229556   7.074   0.724   4.207 -0.6047  0.8429 -0.1816
   33MOL   C69329557   6.970   0.808   4.228  0.1193  0.3009 -0.4836
   33MOL   C69429558   6.958   0.917   4.145  0.3598 -0.8822 -0.8056
   33MOL   C69529559   6.865   1.018   4.167 -0.1775 -0.0721 -0.2152
   33MOL   C69629560   6.780   1.016   4.280 -0.6806 -0.3228 -0.3661
   33MOL   C69729561   6.791   0.910   4.367  0.4720 -0.2678 -0.7141
   33MOL   C69829562   6.896   0.812   4.347 -0.0589 -0.1889 -0.4584
   33MOL   C69929563   6.678   1.123   4.303 -0.1055  0.0319 -0.0167
   33MOL   C70029564   6.665   1.179   4.433 -0.2344 -1.0212  0.5091
   33MOL   C70129565   6.598   1.303   4.459  0.5345  0.1376  0.7746
   33MOL   C70229566   6.525   1.363   4.361  0.2636  0.3345 -0.1641
   33MOL   C70329567   6.510   1.298   4.233  0.2670 -0.3129 -0.1386
   33MOL   C70429568   6.597   1.192   4.203 -0.2054  0.8199  0.4888
   33MOL   O70529569   6.469   1.487   4.370  0.2173 -0.0410 -0.4580
   33MOL   H70629570   7.258   0.007   3.935  0.4061 -1.4304  0.6330
   33MOL   H70729571   7.276   0.132   4.146 -1.4360  0.7822  0.5495
   33MOL   H70829572   6.879   0.008   4.250 -3.0260  1.1609 -2.0009
   33MOL   H70929573   6.875   8.214   4.073  1.7124 -2.9208 -0.0829
   33MOL   H71029574   7.266   0.386   4.444 -1.6584 -2.5014 -0.4689
   33MOL   H71129575   7.261   0.626   4.358 -0.8175  0.1026  1.8941
   33MOL   H71229576   6.869   0.553   4.202 -1.3143 -1.4539  1.6142
   33MOL   H71329577   6.890   0.313   4.261 -0.7610  1.6839  1.7295
   33MOL   H71429578   7.026   0.907   4.061  0.4329  0.7740 -0.9573
   33MOL   H71529579   6.866   1.106   4.104  0.5627  0.3293  0.3548
   33MOL   H71629580   6.731   0.909   4.457  0.9347 -0.7997 -0.3982
   33MOL   H71729581   6.907   0.742   4.427 -1.0568 -1.8894 -1.7650
   33MOL   H71829582   6.708   1.132   4.521  0.5265  1.8024  1.7305
   33MOL   H71929583   6.595   1.344   4.558  1.1532  0.9256  0.4681
   33MOL   H72029584   6.443   1.338   4.158 -1.1401 -1.3748  0.5379
   33MOL   H72129585   6.587   1.154   4.102  0.3977  0.9942  0.3599
   33MOL   C72229586   6.373   1.513   4.467 -0.0368 -0.1706 -0.1293
   33MOL   C72329587   6.302   1.412   4.541 -0.1344  0.8699 -0.5637
   33MOL   C72429588   6.199   1.455   4.625  0.6077  0.8578 -0.1172
   33MOL   C72529589   6.165   1.589   4.635  0.1619 -0.4575 -0.9882
   33MOL   C72629590   6.238   1.684   4.562  0.2082  0.4263 -0.3374
   33MOL   C72729591   6.332   1.645   4.471 -0.5277 -1.3078 -0.5524
   33MOL   S72829592   6.023   1.642   4.727  0.1972 -0.0748  0.0943
   33MOL   O72929593   5.950   1.523   4.770 -0.4313  0.3844 -0.0746
   33MOL   O73029594   5.948   1.741   4.644 -0.0593 -0.3361 -0.0801
   33MOL   C73129595   6.077   1.733   4.866 -0.7715 -0.2337 -0.8617
   33MOL   C73229596   6.133   1.863   4.845 -1.0862 -0.0394 -0.4417
   33MOL   C73329597   6.162   1.951   4.954  0.0436 -0.0203  0.6547
   33MOL   C73429598   6.129   1.903   5.083  0.0069  0.2358  0.4125
   33MOL   C73529599   6.087   1.772   5.100 -0.3230 -0.1542 -0.7274
   33MOL   C73629600   6.059   1.684   4.998 -0.1662  0.0753 -0.2676
   33MOL   O73729601   6.144   1.984   5.197  0.5251  0.5914  0.2022
   33MOL   C73829602   6.071   2.100   5.204 -0.0684  0.1632  0.2105
   33MOL   C73929603   5.943   2.100   5.153  0.2439  0.0622 -0.1206
   33MOL   C74029604   5.874   2.220   5.150 -0.5627 -0.6270  0.1422
   33MOL   C74129605   5.923   2.340   5.206  0.2445  0.0860 -0.4066
   33MOL   C74229606   6.058   2.336   5.256 -0.8516  0.0437 -0.0815
   33MOL   C74329607   6.127   2.216   5.254 -0.1926 -0.2658 -0.4966
   33MOL   C74429608   5.853   2.467   5.207  0.4418 -0.1967  0.1496
   33MOL   C74529609   5.847   2.542   5.328  0.0238  0.2927  0.2265
   33MOL   C74629610   5.774   2.660   5.323 -0.1629 -0.2187 -0.7017
   33MOL   C74729611   5.713   2.706   5.207  0.7506  0.9224 -0.7187
   33MOL   C74829612   5.725   2.631   5.087  0.0627 -0.3494 -0.5461
   33MOL   C74929613   5.791   2.508   5.093 -0.0831 -0.4986  0.0778
   33MOL   O75029614   5.635   2.820   5.214  0.0013  0.6925 -0.2877
   33MOL   H75129615   6.333   1.310   4.522 -0.1590  0.8431 -0.4599
   33MOL   H75229616   6.144   1.383   4.685  0.6000  0.3556 -0.7233
   33MOL   H75329617   6.205   1.787   4.571 -1.6608 -0.1438 -0.3925
   33MOL   H75429618   6.387   1.720   4.417  1.1654  1.7504  4.9705
   33MOL   H75529619   6.136   1.906   4.747  0.2428 -0.1591 -0.4667
   33MOL   H75629620   6.193   2.053   4.938 -0.5129  0.0408 -0.0453
   33MOL   H75729621   6.070   1.740   5.202  1.3053  1.7518  0.1806
   33MOL   H75829622   6.021   1.584   5.009 -1.0557  0.6059  1.5900
   33MOL   H75929623   5.885   2.017   5.118 -0.0461 -0.4943  1.6351
   33MOL   H76029624   5.774   2.212   5.109 -0.9762  1.3590  0.6751
   33MOL   H76129625   6.099   2.426   5.299  1.3922 -2.3804  3.0755
   33MOL   H76229626   6.224   2.221   5.301 -0.4793 -1.9445  0.3028
   33MOL   H76329627   5.891   2.506   5.420  3.2198  1.4139 -0.8011
   33MOL   H76429628   5.765   2.721   5.412  1.5751  0.7752 -1.1676
   33MOL   H76529629   5.675   2.652   4.994 -0.9714  1.9850  0.5217
   33MOL   H76629630   5.786   2.454   5.000 -3.4996  1.3264 -0.8592
   33MOL   C76729631   5.502   2.793   5.217  0.4533 -0.4319 -0.1446
   33MOL   C76829632   5.413   2.801   5.105  0.3755 -0.7270  0.2689
   33MOL   C76929633   5.279   2.756   5.127 -0.0349 -0.4564 -0.2536
   33MOL   C77029634   5.237   2.705   5.256  0.1562  0.1097 -0.6184
   33MOL   C77129635   5.327   2.701   5.361  0.4608  0.4086 -0.7155
   33MOL   C77229636   5.456   2.747   5.344 -0.1939  0.0672  0.1856
   33MOL   S77329637   5.074   2.638   5.280 -0.2908  0.3178  0.0021
   33MOL   O77429638   5.093   2.492   5.305 -0.6456 -0.3645 -0.6279
   33MOL   O77529639   4.981   2.682   5.175  1.0399  0.5559  0.5832
   33MOL   C77629640   5.024   2.708   5.444  0.2032  0.1100  0.5894
   33MOL   C77729641   5.025   2.847   5.466  0.9057 -0.5026 -0.6441
   33MOL   C77829642   4.974   2.902   5.589  0.5239 -0.1977  0.3100
   33MOL   C77929643   4.909   2.814   5.684  0.0570  0.5997  0.7995
   33MOL   C78029644   4.920   2.675   5.667 -0.8068 -0.7035  0.1099
   33MOL   C78129645   4.983   2.622   5.553  0.0628  0.1155  0.5282
   33MOL   O78229646   4.866   2.872   5.804 -0.4334 -0.1491  0.4310
   33MOL   C78329647   4.790   2.795   5.887  0.5994  0.4956 -0.0783
   33MOL   C78429648   4.646   2.781   5.871 -0.2658 -0.2651 -0.1981
   33MOL   C78529649   4.580   2.691   5.960  0.1754  0.4747 -0.3481
   33MOL   C78629650   4.642   2.608   6.055 -0.3463 -0.2114  0.8135
   33MOL   C78729651   4.775   2.631   6.067  0.2798  0.3641  0.2328
   33MOL   C78829652   4.849   2.715   5.983 -0.2784  0.3817  0.0569
   33MOL   C78929653   4.564   2.517   6.144 -0.0718  0.3082  0.0628
   33MOL   C79029654   4.605   2.382   6.158  0.5336 -0.2428  0.4030
   33MOL   C79129655   4.534   2.288   6.235 -0.3577  0.5065 -0.2562
   33MOL   C79229656   4.428   2.340   6.311  0.0030  0.2724 -0.7759
   33MOL   C79329657   4.386   2.475   6.301 -0.5531 -0.2608  0.3161
   33MOL   C79429658   4.450   2.561   6.213  0.3916  1.5649  0.0446
   33MOL   O79529659   4.357   2.261   6.400  0.6992 -0.1718 -0.7687
   33MOL   H79629660   5.456   2.835   5.012  1.8719 -0.4968  1.0312
   33MOL   H79729661   5.201   2.747   5.052 -0.1550 -2.3190  0.0713
   33MOL   H79829662   5.296   2.669   5.459  1.9385 -0.8328 -0.6257
   33MOL   H79929663   5.516   2.727   5.432 -0.6154  1.0641  0.7079
   33MOL   H80029664   5.070   2.915   5.395  1.4823 -0.6346 -0.4064
   33MOL   H80129665   4.984   3.009   5.603 -0.9801  0.2096 -1.4513
   33MOL   H80229666   4.877   2.616   5.746 -0.6068  2.0176  2.3404
   33MOL   H80329667   4.985   2.515   5.538  0.6181  0.4581 -2.0125
   33MOL   H80429668   4.593   2.841   5.798 -1.2022 -1.1374 -0.2539
   33MOL   H80529669   4.474   2.687   5.941  0.3119 -1.8607 -0.6755
   33MOL   H80629670   4.824   2.578   6.148  2.0729  1.3619 -0.1658
   33MOL   H80729671   4.951   2.747   5.999  0.5140 -1.8688 -0.3521
   33MOL   H80829672   4.695   2.352   6.105 -0.4306 -3.7547  0.5897
   33MOL   H80929673   4.577   2.190   6.247 -0.9708  0.1793 -0.7248
   33MOL   H81029674   4.304   2.521   6.355 -2.1969 -2.3792 -0.3145
   33MOL   H81129675   4.410   2.661   6.203  1.1761  1.8862  0.0593
   33MOL   C81229676   4.342   2.127   6.388  0.7365  0.4253  0.8931
   33MOL   C81329677   4.356   2.044   6.499 -0.2824 -0.3021  0.1205
   33MOL   C81429678   4.330   1.903   6.496 -0.2378  0.6740 -0.1855
   33MOL   C81529679   4.260   1.857   6.383  0.4232 -0.4434 -0.1585
   33MOL   C81629680   4.230   1.942   6.274  0.4292 -0.0674 -0.0966
   33MOL   C81729681   4.274   2.074   6.279 -0.0890 -0.2785 -0.1574
   33MOL   S81829682   4.210   1.688   6.368  0.3571 -0.2924 -0.0867
   33MOL   O81929683   4.302   1.606   6.447  0.1971 -0.3526  0.5339
   33MOL   O82029684   4.192   1.658   6.225  0.4243 -0.1774  0.1582
   33MOL   C82129685   4.055   1.695   6.452  0.4701 -0.0677  0.0729
   33MOL   C82229686   3.953   1.788   6.417 -0.5283  0.3516 -0.3825
   33MOL   C82329687   3.828   1.798   6.485  0.3869 -0.7653 -0.8496
   33MOL   C82429688   3.800   1.711   6.590  0.3872 -1.0212 -0.9440
   33MOL   C82529689   3.899   1.618   6.629 -0.2937 -2.0957 -0.1943
   33MOL   C82629690   4.025   1.609   6.560  0.5027  0.0119  0.1736
   33MOL   O82729691   3.683   1.731   6.664 -0.6831 -0.2432 -0.0215
   33MOL   C82829692   3.563   1.684   6.611  0.4594  0.6230 -0.5586
   33MOL   C82929693   3.447   1.768   6.610 -0.1337  0.3761 -0.2172
   33MOL   C83029694   3.325   1.716   6.564  0.1617 -0.4781 -0.2294
   33MOL   C83129695   3.321   1.589   6.507 -0.0292  0.0079  0.3029
   33MOL   C83229696   3.436   1.504   6.520 -1.3722  0.4296  0.0358
   33MOL   C83329697   3.553   1.550   6.572  0.0621 -0.2739 -0.6033
   33MOL   C83429698   3.190   1.539   6.448 -1.1492 -0.3445 -0.5715
   33MOL   C83529699   3.101   1.626   6.392 -0.4353 -0.1301  0.2731
   33MOL   C83629700   2.978   1.582   6.341 -0.1816  0.0181  0.4860
   33MOL   C83729701   2.939   1.445   6.341 -0.2087 -0.9125 -0.7200
   33MOL   C83829702   3.022   1.361   6.411  0.5467  0.2194 -0.5472
   33MOL   C83929703   3.148   1.406   6.463 -0.1918  0.2677  0.5935
   33MOL   O84029704   2.819   1.400   6.294  0.1567  0.5924  0.3665
   33MOL   H84129705   4.410   2.078   6.586 -0.7230  0.1402  0.2216
   33MOL   H84229706   4.353   1.836   6.577 -2.3454 -0.9954 -0.9038
   33MOL   H84329707   4.175   1.904   6.189 -0.4151 -2.8878  1.6707
   33MOL   H84429708   4.232   2.135   6.201 -1.3282 -0.1295  0.6237
   33MOL   H84529709   3.984   1.857   6.340 -1.9936 -1.0365 -2.2509
   33MOL   H84629710   3.754   1.871   6.457  1.3381  0.5577  0.0604
   33MOL   H84729711   3.886   1.563   6.721  0.3291 -0.4283  0.9254
   33MOL   H84829712   4.099   1.538   6.595 -0.4615 -1.4496 -0.6548
   33MOL   H84929713   3.444   1.865   6.657 -1.5979 -0.2022  0.9237
   33MOL   H85029714   3.241   1.784   6.561 -0.1013 -0.8032 -0.2534
   33MOL   H85129715   3.423   1.401   6.492 -1.4517 -0.3154  2.7036
   33MOL   H85229716   3.643   1.492   6.559  0.4260 -0.0326  0.8092
   33MOL   H85329717   3.131   1.730   6.389 -2.2183  0.4147  0.8365
   33MOL   H85429718   2.915   1.656   6.296  0.9108  1.8074  1.8044
   33MOL   H85529719   2.989   1.259   6.427  0.5524  0.3106  0.0898
   33MOL   H85629720   3.209   1.335   6.517  4.5187  0.3914 -4.1518
   33MOL   C85729721   2.698   1.460   6.317 -0.0969  0.2045 -0.1087
   33MOL   C85829722   2.685   1.530   6.438  0.0342 -0.0676  0.2924
   33MOL   C85929723   2.558   1.572   6.478  0.3752 -0.2898 -0.1928
   33MOL   C86029724   2.450   1.560   6.395  0.0856 -0.4464 -0.0871
   33MOL   C86129725   2.463   1.482   6.281 -0.3887  0.0074  0.0273
   33MOL   C86229726   2.584   1.438   6.234 -0.4889  0.0237  0.1003
   33MOL   S86329727   2.286   1.631   6.450  0.2194  0.1916  0.2126
   33MOL   O86429728   2.246   1.548   6.568  0.0701 -0.8011 -0.5193
   33MOL   O86529729   2.202   1.647   6.331 -0.2671 -0.0644 -0.2359
   33MOL   C86629730   2.342   1.791   6.514  0.2435 -0.1868 -0.3343
   33MOL   C86729731   2.321   1.820   6.653  0.0141 -0.5456  0.0784
   33MOL   C86829732   2.377   1.937   6.709 -0.5263 -0.4961 -0.5657
   33MOL   C86929733   2.460   2.022   6.631 -0.4419 -0.3311 -0.7316
   33MOL   C87029734   2.479   1.990   6.497  0.2151  0.1568  0.6723
   33MOL   C87129735   2.419   1.878   6.437 -0.0270  0.2797  0.0620
   33MOL   O87229736   2.535   2.125   6.685 -0.6494  0.1051 -0.2299
   33MOL   C87329737   2.474   2.220   6.763  0.2410 -0.3840  0.6274
   33MOL   C87429738   2.551   2.289   6.854  0.2663 -0.2432 -0.1310
   33MOL   C87529739   2.498   2.397   6.927 -0.2212 -0.4492 -0.4190
   33MOL   C87629740   2.363   2.427   6.916 -0.7208  0.0225 -0.2360
   33MOL   C87729741   2.284   2.361   6.816 -0.0772 -0.4153 -0.5824
   33MOL   C87829742   2.343   2.257   6.740  0.1884  0.0788  0.1336
   33MOL   C87929743   2.295   2.529   7.000  0.4541 -0.1322 -0.4231
   33MOL   C88029744   2.196   2.494   7.095 -0.4355  0.1117  0.2321
   33MOL   C88129745   2.120   2.594   7.161 -0.1399 -0.3813  0.2856
   33MOL   C88229746   2.147   2.736   7.135 -0.3118  0.4620 -0.0073
   33MOL   C88329747   2.248   2.771   7.040  0.3090  0.4225 -0.3401
   33MOL   C88429748   2.324   2.668   6.979 -0.2778 -0.0427  0.2773
   33MOL   O88529749   2.087   2.841   7.205  0.5637  0.1039  0.3928
   33MOL   H88629750   2.767   1.549   6.506  0.5671  2.1997 -0.9414
   33MOL   H88729751   2.541   1.614   6.576  1.8627  1.1525 -0.5445
   33MOL   H88829752   2.373   1.467   6.223 -0.4052 -1.7071  0.4877
   33MOL   H88929753   2.597   1.373   6.149 -1.0873 -0.5518  0.4449
   33MOL   H89029754   2.287   1.749   6.727 -0.1578  1.2258  1.7515
   33MOL   H89129755   2.372   1.955   6.815  4.7662 -0.8613 -0.0949
   33MOL   H89229756   2.547   2.050   6.439  1.2707 -0.7965  0.9061
   33MOL   H89329757   2.455   1.847   6.340  0.8016 -0.5311  0.6345
   33MOL   H89429758   2.656   2.265   6.869  0.5574 -0.1269 -1.8406
   33MOL   H89529759   2.561   2.458   6.991 -0.5678 -1.2701  0.7341
   33MOL   H89629760   2.180   2.387   6.802 -0.6654 -2.8957 -1.0037
   33MOL   H89729761   2.288   2.196   6.670 -0.5054  0.2880  0.4960
   33MOL   H89829762   2.169   2.391   7.110 -1.2059  0.4398  1.1341
   33MOL   H89929763   2.041   2.568   7.230 -2.1866  3.2978 -0.5798
   33MOL   H90029764   2.269   2.875   7.020 -1.2317  1.0644  1.2526
   33MOL   H90129765   2.400   2.689   6.905  2.2619 -2.9506  1.9781
   33MOL   H90229766   2.119   2.926   7.180  0.2912 -0.7789 -3.2452
   34MOL     C129767   0.040   6.526   1.171  0.4885 -0.7740 -0.3319
   34MOL     C229768   0.081   6.456   1.287 -0.2076  0.5398 -0.1807
   34MOL     C329769   0.162   6.335   1.266  0.1676  0.0460  0.6955
   34MOL     C429770   0.190   6.294   1.132  0.2937  0.0154  0.0719
   34MOL     C529771   0.126   6.357   1.019 -0.6288 -0.1771 -0.1011
   34MOL     C629772   0.052   6.476   1.041  0.4192  0.3104 -0.4546
   34MOL     S729773   0.286   6.148   1.107 -0.2682  0.0562 -0.0846
   34MOL     O829774   0.424   6.200   1.117  0.2506  0.0344 -0.0851
   34MOL     O929775   0.246   6.098   0.976  1.0613 -0.2165 -0.2913
   34MOL    C1029776   0.248   6.039   1.249 -0.3850 -0.4379  0.0499
   34MOL    C1129777   0.123   5.983   1.255  0.2219  0.2181 -0.1298
   34MOL    C1229778   0.094   5.889   1.355 -0.3304  0.0599 -0.1562
   34MOL    C1329779   0.194   5.867   1.456  0.5311  0.0542 -0.1599
   34MOL    C1429780   0.321   5.921   1.445  0.1210  0.0707  0.0802
   34MOL    C1529781   0.355   5.999   1.334 -0.3832 -0.6025  0.3893
   34MOL    O1629782   0.161   5.809   1.573  0.2389  0.3499 -0.0906
   34MOL    C1729783   0.095   5.884   1.667  0.4177 -0.1752  0.3015
   34MOL    C1829784   0.169   5.917   1.785 -0.1933 -0.2035  0.7765
   34MOL    C1929785   0.105   5.980   1.891  0.7645 -0.4799 -0.2063
   34MOL    C2029786   8.337   6.023   1.876  0.3646  0.6604 -0.6283
   34MOL    C2129787   8.270   6.007   1.755  0.2299 -0.9282  0.1910
   34MOL    C2229788   8.332   5.931   1.650  0.7892 -0.1984 -0.6463
   34MOL    C2329789   8.268   6.089   1.991  0.4018  0.0332 -0.2900
   34MOL    C2429790   8.144   6.044   2.029  0.2512 -0.8911  1.2757
   34MOL    C2529791   8.062   6.123   2.113  0.5054 -0.3588  0.4895
   34MOL    C2629792   8.105   6.244   2.169 -0.1582  0.3037  0.0759
   34MOL    C2729793   8.242   6.277   2.149 -0.4999 -0.1081 -0.1500
   34MOL    C2829794   8.320   6.200   2.062 -0.7791  0.7928  0.1872
   34MOL    O2929795   8.022   6.324   2.241  0.1216 -0.2096 -0.9748
   34MOL    H3029796   0.059   6.487   1.388 -2.9824  0.9178 -0.8582
   34MOL    H3129797   0.192   6.282   1.355 -0.0028  0.0131  0.7339
   34MOL    H3229798   0.131   6.332   0.914 -0.8630  1.3401 -0.4931
   34MOL    H3329799   0.005   6.516   0.952  0.3237  0.4023 -0.3634
   34MOL    H3429800   0.041   6.014   1.191  0.3361  2.1548  0.6365
   34MOL    H3529801   8.360   5.850   1.371  0.1510 -0.3801  1.8189
   34MOL    H3629802   0.392   5.882   1.516  0.1694  0.7577  0.4137
   34MOL    H3729803   0.451   6.049   1.327 -2.1224  2.6512 -1.1468
   34MOL    H3829804   0.265   5.872   1.806 -0.1758 -0.6994 -0.3579
   34MOL    H3929805   0.147   5.982   1.990 -1.2577  0.6581  0.6532
   34MOL    H4029806   8.166   6.035   1.751  0.6212  0.5091 -0.1069
   34MOL    H4129807   8.287   5.904   1.556 -0.2668 -1.2429  0.1465
   34MOL    H4229808   8.097   5.957   1.985 -2.8571  0.2694  2.1798
   34MOL    H4329809   7.963   6.084   2.132 -0.3850  1.4933 -0.2796
   34MOL    H4429810   8.292   6.363   2.190  1.8746 -0.9801 -1.1629
   34MOL    H4529811   0.058   6.223   2.043 -0.4437 -1.6669 -1.3485
   34MOL    H4629812   8.349   6.616   1.187 -0.3869 -1.4428  0.3513
   34MOL    C4729813   8.024   6.453   2.212  0.2062  0.1260 -0.0527
   34MOL    C4829814   8.051   6.563   2.304  0.4425 -0.4779 -0.1065
   34MOL    C4929815   8.046   6.693   2.260 -0.6627  0.4532 -0.2321
   34MOL    C5029816   8.022   6.719   2.124 -0.7240 -0.9959 -0.8624
   34MOL    C5129817   8.000   6.618   2.029 -0.2795 -0.2248 -0.2734
   34MOL    C5229818   8.008   6.482   2.073  0.0635  0.1618  0.1203
   34MOL    S5329819   8.028   6.890   2.076 -0.6367 -0.4160 -0.1006
   34MOL    O5429820   7.963   6.972   2.179 -0.0459  0.3000 -0.1044
   34MOL    O5529821   7.987   6.910   1.935  0.3288 -0.1778 -0.6391
   34MOL    C5629822   8.197   6.935   2.078  0.0428  0.4258 -0.0103
   34MOL    C5729823   8.228   7.068   2.112 -0.1537 -0.2190  0.1049
   34MOL    C5829824   8.365   7.108   2.118 -0.1638 -0.7066 -0.3996
   34MOL    C5929825   0.103   7.017   2.091 -0.0376  0.2477  0.0519
   34MOL    C6029826   0.068   6.887   2.043  0.0341  0.4862  0.3568
   34MOL    C6129827   8.300   6.841   2.042 -0.2807  0.0618  0.2988
   34MOL    O6229828   0.229   7.065   2.104  0.3683 -0.2542 -0.3656
   34MOL    C6329829   0.293   7.121   1.996  0.1828 -0.0740  0.2499
   34MOL    C6429830   0.344   7.046   1.892 -0.1027 -0.2363  0.0747
   34MOL    C6529831   0.412   7.108   1.781 -0.0515  0.1071  0.2690
   34MOL    C6629832   0.408   7.249   1.769  0.0198  0.0863  0.3190
   34MOL    C6729833   0.367   7.326   1.880  0.8896  0.1193 -0.4818
   34MOL    C6829834   0.312   7.261   1.990 -0.5116 -0.3131 -0.2895
   34MOL    C6929835   0.456   7.309   1.651 -0.2764  0.2258  0.9229
   34MOL    C7029836   0.373   7.384   1.563 -0.1871  1.2814  0.8435
   34MOL    C7129837   0.430   7.430   1.443 -0.2936 -0.1113 -0.2379
   34MOL    C7229838   0.566   7.395   1.406  0.5168  0.4169  0.4513
   34MOL    C7329839   0.646   7.331   1.495  0.0388 -0.3957  0.7214
   34MOL    C7429840   0.597   7.284   1.616 -0.1111 -0.2152 -0.2162
   34MOL    O7529841   0.615   7.426   1.282  0.2694 -0.1553  0.4533
   34MOL    H7629842   8.090   6.544   2.403  0.7818  0.2071 -0.1039
   34MOL    H7729843   8.058   6.783   2.319  4.7856  0.5803 -1.2217
   34MOL    H7829844   7.988   6.641   1.924  1.1049 -1.1503 -0.6559
   34MOL    H7929845   8.007   6.403   1.999  0.8189 -0.7667  1.0856
   34MOL    H8029846   8.158   7.148   2.131  0.2035 -0.0801  0.8713
   34MOL    H8129847   0.018   7.210   2.148 -0.2419 -0.9218  0.3878
   34MOL    H8229848   0.142   6.816   2.008  0.3614  1.9067 -1.9397
   34MOL    H8329849   8.288   6.741   2.001  0.2975  0.3984 -0.7240
   34MOL    H8429850   0.351   6.938   1.899  0.0093 -0.2562 -0.3379
   34MOL    H8529851   0.474   7.042   1.722  0.6742  0.3441  0.7547
   34MOL    H8629852   0.374   7.434   1.882 -0.4264  0.1885  0.8911
   34MOL    H8729853   0.264   7.316   2.070  1.1600 -1.8884  1.8414
   34MOL    H8829854   0.268   7.402   1.584 -1.6378 -1.9508 -2.8012
   34MOL    H8929855   0.362   7.480   1.375  1.5748  2.1937 -0.4691
   34MOL    H9029856   0.749   7.308   1.473  0.0027  2.5623 -3.1576
   34MOL    H9129857   0.666   7.232   1.679  1.5354  1.8205 -0.2801
   34MOL    C9229858   0.538   7.400   1.174  0.5716  0.3841  0.2056
   34MOL    C9329859   0.516   7.267   1.138  0.1911  0.7972  0.3790
   34MOL    C9429860   0.431   7.239   1.026  0.5428  0.2665 -0.6796
   34MOL    C9529861   0.379   7.345   0.952  0.7918 -0.1472 -0.3186
   34MOL    C9629862   0.402   7.482   0.987 -0.0961  0.2791  0.3433
   34MOL    C9729863   0.483   7.505   1.100  0.4303 -0.3367  0.4941
   34MOL    S9829864   0.287   7.291   0.809 -0.0500  0.0735 -0.4221
   34MOL    O9929865   0.231   7.155   0.836 -0.0706 -0.2075 -0.6827
   34MOL   O10029866   0.364   7.310   0.683  0.0514 -0.0106 -0.9574
   34MOL   C10129867   0.148   7.402   0.804 -0.0849 -0.1965  0.5498
   34MOL   C10229868   0.025   7.362   0.864 -0.3216 -0.7449  0.0199
   34MOL   C10329869   8.282   7.450   0.855  0.0478 -0.3829 -0.1247
   34MOL   C10429870   8.304   7.583   0.808  0.6827  0.7601  0.0910
   34MOL   C10529871   0.062   7.620   0.745  0.9194 -0.3789  0.3647
   34MOL   C10629872   0.166   7.528   0.746  0.3156  0.1448 -0.2558
   34MOL   O10729873   8.198   7.668   0.809 -0.1406  0.1127 -0.0186
   34MOL   C10829874   8.122   7.700   0.921 -0.5563  0.3532 -0.5434
   34MOL   C10929875   7.989   7.747   0.907 -0.3518 -0.0380  0.9790
   34MOL   C11029876   7.918   7.794   1.024 -0.1889  0.0720 -0.4120
   34MOL   C11129877   7.976   7.777   1.155 -0.2526  0.3757  0.0405
   34MOL   C11229878   8.115   7.739   1.167  0.4266  0.2722  0.2489
   34MOL   C11329879   8.181   7.698   1.051 -0.4709 -0.5655 -0.4777
   34MOL   C11429880   7.896   7.816   1.274 -0.3358  0.3781  0.1492
   34MOL   C11529881   7.944   7.901   1.378  0.1090 -0.0143 -0.2117
   34MOL   C11629882   7.848   7.947   1.475 -0.1132 -1.2802  0.3246
   34MOL   C11729883   7.721   7.899   1.482  0.3791 -0.1556 -0.4066
   34MOL   C11829884   7.674   7.815   1.386 -0.2381  0.2103 -0.1359
   34MOL   C11929885   7.756   7.770   1.280  0.1692 -0.2666 -0.1234
   34MOL   O12029886   7.634   7.939   1.582 -0.8547 -0.0196 -0.0392
   34MOL   H12129887   0.563   7.190   1.198 -0.6257 -0.7504 -0.9151
   34MOL   H12229888   0.417   7.136   0.999 -2.0316  0.0022  1.4573
   34MOL   H12329889   0.361   7.564   0.932 -0.3914 -0.2020 -0.1550
   34MOL   H12429890   0.515   7.606   1.122  2.3257 -1.0436  1.0617
   34MOL   H12529891   0.018   7.260   0.897 -2.9237  0.3730  3.1837
   34MOL   H12629892   8.190   7.417   0.901  0.5052 -2.2193 -0.4815
   34MOL   H12729893   0.071   7.720   0.705  1.6970 -0.3923  0.5035
   34MOL   H12829894   0.262   7.552   0.704  0.9451 -1.5266  0.1958
   34MOL   H12929895   7.924   7.747   0.821  0.1262  1.6590  0.5838
   34MOL   H13029896   7.815   7.826   1.028 -0.3380 -0.5291  1.0368
   34MOL   H13129897   8.158   7.736   1.267 -0.0339 -3.2268  0.4028
   34MOL   H13229898   8.286   7.674   1.059 -0.9591 -2.9517 -1.0143
   34MOL   H13329899   8.041   7.946   1.364  0.0706 -0.5407 -2.2875
   34MOL   H13429900   7.889   8.020   1.544  1.5074 -0.5597 -1.3518
   34MOL   H13529901   7.577   7.769   1.399  0.8003 -2.4802 -1.5016
   34MOL   H13629902   7.715   7.713   1.198 -0.8907  0.5098 -0.1481
   34MOL   C13729903   7.688   7.934   1.707 -0.0162  0.1013 -0.3443
   34MOL   C13829904   7.724   7.810   1.764  0.5559 -0.5668 -0.0564
   34MOL   C13929905   7.772   7.810   1.899 -0.0953  0.3017 -0.3341
   34MOL   C14029906   7.771   7.925   1.979 -0.1533 -0.4230 -0.2270
   34MOL   C14129907   7.717   8.044   1.925 -0.0166  0.2234  0.9303
   34MOL   C14229908   7.685   8.053   1.785  0.4666 -0.4178 -0.5752
   34MOL   S14329909   7.795   7.903   2.160  0.0033  0.1266  0.0416
   34MOL   O14429910   7.760   7.764   2.191  0.1196 -0.1856  0.1704
   34MOL   O14529911   7.737   8.016   2.234 -0.6191  0.3018  0.3137
   34MOL   C14629912   7.966   7.904   2.193 -0.6029 -0.1899  0.5699
   34MOL   C14729913   8.001   7.932   2.324 -0.2327 -0.3169 -0.0128
   34MOL   C14829914   8.136   7.965   2.360  0.7394 -0.3101 -0.6929
   34MOL   C14929915   8.237   7.957   2.262 -1.0371  0.5501  0.5629
   34MOL   C15029916   8.208   7.919   2.133 -0.1972  0.6613  0.4095
   34MOL   C15129917   8.071   7.903   2.101  0.4255  0.3278 -0.4832
   34MOL   O15229918   0.005   7.989   2.285  0.4585 -0.2163  0.2733
   34MOL   C15329919   0.075   7.923   2.382  1.1649  0.0374  0.7680
   34MOL   C15429920   0.144   8.009   2.470 -0.7479  0.4049 -0.4279
   34MOL   C15529921   0.227   7.948   2.565  0.0674  0.4439  0.2319
   34MOL   C15629922   0.252   7.812   2.576 -0.1033  0.0657 -0.0506
   34MOL   C15729923   0.183   7.727   2.479  0.6604  0.4978  0.2924
   34MOL   C15829924   0.106   7.782   2.379 -0.7880 -0.3654  0.3136
   34MOL   C15929925   0.341   7.761   2.674 -0.3388 -0.8548  0.5363
   34MOL   C16029926   0.305   7.669   2.776  0.5246 -0.0256  0.2478
   34MOL   C16129927   0.398   7.639   2.873 -0.1251  0.2354 -0.3709
   34MOL   C16229928   0.531   7.673   2.862 -0.2778  0.1332  0.2113
   34MOL   C16329929   0.576   7.746   2.754  0.0265 -0.0385 -0.4492
   34MOL   C16429930   0.475   7.795   2.669  0.2936 -0.3793 -0.3267
   34MOL   O16529931   0.623   7.625   2.951 -0.4640 -0.6008 -0.2246
   34MOL   H16629932   7.721   7.718   1.707 -0.4903 -1.0472  0.7510
   34MOL   H16729933   7.810   7.715   1.934 -0.0557 -0.2974 -1.9452
   34MOL   H16829934   7.695   8.133   1.982 -2.5777 -0.5047  1.1599
   34MOL   H16929935   7.645   8.146   1.748  2.4283 -0.2069 -2.2276
   34MOL   H17029936   7.929   7.926   2.403 -0.3151 -0.0659 -0.0672
   34MOL   H17129937   8.163   7.985   2.463  0.1804 -0.3833 -0.5305
   34MOL   H17229938   8.285   7.903   2.060  0.3432 -0.3784  1.1987
   34MOL   H17329939   8.046   7.857   2.006 -2.0542  0.7824 -0.0789
   34MOL   H17429940   0.114   8.113   2.469  1.2622  1.0340  0.2911
   34MOL   H17529941   0.281   8.020   2.625 -0.2068  1.5304 -0.8043
   34MOL   H17629942   0.203   7.621   2.492  0.7486  0.6108  1.1133
   34MOL   H17729943   0.069   7.713   2.304 -1.7839 -0.7906  1.1707
   34MOL   H17829944   0.205   7.628   2.776  0.4950  0.0435  1.2076
   34MOL   H17929945   0.372   7.574   2.956 -0.6765  1.4843  0.4413
   34MOL   H18029946   0.680   7.769   2.737 -0.2601 -0.2007 -2.4780
   34MOL   H18129947   0.519   7.864   2.598  0.6174 -0.4857 -0.2276
   34MOL   C18229948   0.615   7.665   3.082  0.3489  0.1897 -0.6673
   34MOL   C18329949   0.594   7.804   3.111 -0.2437  0.1661 -0.2156
   34MOL   C18429950   0.599   7.846   3.249 -0.2886  0.1206  0.1057
   34MOL   C18529951   0.613   7.747   3.354  0.4598  0.1464  1.2213
   34MOL   C18629952   0.624   7.608   3.317  0.3384  0.3153  0.1749
   34MOL   C18729953   0.619   7.569   3.180  0.1259 -0.6334  0.4864
   34MOL   S18829954   0.606   7.792   3.525  0.1333  0.1735 -0.1558
   34MOL   O18929955   0.529   7.919   3.536 -0.5080  0.2377  0.2469
   34MOL   O19029956   0.739   7.799   3.571 -0.1183  0.4548 -0.1160
   34MOL   C19129957   0.524   7.666   3.617  0.4479  0.3498 -0.2094
   34MOL   C19229958   0.543   7.647   3.760 -0.0761  0.1195 -0.3238
   34MOL   C19329959   0.493   7.534   3.832  0.1135 -0.0789  0.2483
   34MOL   C19429960   0.420   7.441   3.768 -0.9048  0.4966  0.3121
   34MOL   C19529961   0.401   7.450   3.628 -0.2968 -0.0603  0.5400
   34MOL   C19629962   0.443   7.566   3.554 -0.0164  0.5240 -0.2016
   34MOL   O19729963   0.354   7.342   3.847 -0.1607 -0.9732  0.4573
   34MOL   C19829964   0.271   7.246   3.800  0.5870  0.2109 -0.7620
   34MOL   C19929965   0.135   7.271   3.779 -0.6505 -0.1467 -0.3243
   34MOL   C20029966   0.050   7.162   3.743  0.7046 -0.1072  0.1379
   34MOL   C20129967   0.099   7.031   3.729  0.8457  0.0294  0.5473
   34MOL   C20229968   0.233   7.007   3.749  0.2538  0.0385  0.2980
   34MOL   C20329969   0.315   7.115   3.788 -0.5626 -0.2467  0.4778
   34MOL   C20429970   0.003   6.916   3.714  0.1704 -0.1562  0.5789
   34MOL   C20529971   0.040   6.800   3.648  0.7589 -0.5417  0.5560
   34MOL   C20629972   8.330   6.680   3.663  0.6248  0.1880 -0.1431
   34MOL   C20729973   8.214   6.680   3.742 -0.2533 -0.3707  0.3518
   34MOL   C20829974   8.178   6.798   3.802 -0.0641 -0.2913 -0.2582
   34MOL   C20929975   8.253   6.914   3.788  0.3011  0.5668  0.8136
   34MOL   O21029976   8.131   6.573   3.766  0.0951  0.3426  0.5236
   34MOL   H21129977   0.578   7.879   3.036 -1.3286 -0.9147 -1.0926
   34MOL   H21229978   0.584   7.951   3.270 -1.9047  0.1416 -1.0397
   34MOL   H21329979   0.647   7.528   3.385 -1.3976 -2.1751 -2.0497
   34MOL   H21429980   0.643   7.467   3.150  0.8902 -0.2679 -0.1605
   34MOL   H21529981   0.615   7.712   3.807  0.0161 -0.8218  0.8597
   34MOL   H21629982   0.509   7.515   3.937 -2.3058 -0.7489  0.5144
   34MOL   H21729983   0.345   7.371   3.579  1.2163 -0.6571 -0.2725
   34MOL   H21829984   0.424   7.574   3.448 -1.8931  0.1251  0.0975
   34MOL   H21929985   0.089   7.368   3.792  2.4014  1.4899 -1.3076
   34MOL   H22029986   8.311   7.183   3.731  0.8211 -0.1330 -0.9954
   34MOL   H22129987   0.275   6.908   3.738  1.2752  0.5316 -0.3395
   34MOL   H22229988   0.419   7.088   3.789 -0.7957 -1.1195  1.1590
   34MOL   H22329989   0.133   6.790   3.595  0.6982 -1.7506  0.6631
   34MOL   H22429990   0.002   6.586   3.625 -0.5485  0.5417 -2.2564
   34MOL   H22529991   8.080   6.797   3.849 -0.3834 -2.2996 -0.9215
   34MOL   H22629992   8.227   6.999   3.849 -0.4731  1.2707 -0.4866
   34MOL   C22729993   8.139   6.503   3.884 -0.3676  0.1928  0.2956
   34MOL   C22829994   8.237   6.402   3.890  0.1616 -0.3819  0.0199
   34MOL   C22929995   8.253   6.324   4.011 -0.0653  0.0857  0.1384
   34MOL   C23029996   8.171   6.352   4.118  0.0057  0.5073 -0.3151
   34MOL   C23129997   8.075   6.457   4.117 -0.0163  0.3888  0.1013
   34MOL   C23229998   8.060   6.537   3.995  0.6340  0.3161  0.0648
   34MOL   S23329999   8.187   6.239   4.260 -0.1867 -0.1381 -0.2193
   34MOL   O23430000   8.111   6.120   4.239  0.5782 -0.3518  0.6723
   34MOL   O23530001   8.169   6.307   4.392  0.0572 -0.0995  0.4456
   34MOL   C23630002   8.361   6.194   4.256 -0.8176 -0.4617 -0.3902
   34MOL   C23730003   0.027   6.059   4.278  0.5382 -0.1112 -0.0738
   34MOL   C23830004   0.160   6.019   4.282  0.1587  0.3547  0.8358
   34MOL   C23930005   0.265   6.112   4.265  0.3047  0.7356 -0.6536
   34MOL   C24030006   0.231   6.250   4.245 -0.2273 -0.0066  0.3824
   34MOL   C24130007   0.094   6.288   4.240 -0.3231  0.8359  0.1935
   34MOL   O24230008   0.395   6.073   4.280 -0.1803  0.2710  0.1949
   34MOL   C24330009   0.442   5.977   4.197  0.2498 -0.2720  0.3239
   34MOL   C24430010   0.537   5.882   4.244 -0.4830 -0.3548 -0.1497
   34MOL   C24530011   0.579   5.775   4.160 -0.1110  0.4448 -0.1466
   34MOL   C24630012   0.534   5.767   4.025  0.4302  0.4293 -0.6876
   34MOL   C24730013   0.448   5.861   3.975  0.3580 -0.1942  0.0194
   34MOL   C24830014   0.397   5.962   4.061 -0.4504  0.4649 -0.3455
   34MOL   C24930015   0.581   5.657   3.945 -0.2612 -0.3384  0.2076
   34MOL   C25030016   0.592   5.672   3.805 -0.1035 -0.0589 -0.5922
   34MOL   C25130017   0.644   5.568   3.725  0.7642 -0.3318 -0.4485
   34MOL   C25230018   0.685   5.450   3.781  0.5615 -0.5153  0.0987
   34MOL   C25330019   0.677   5.434   3.917  0.3793  0.1092  0.0492
   34MOL   C25430020   0.614   5.529   3.997 -0.3585  0.4333  0.5634
   34MOL   O25530021   0.732   5.343   3.710  0.0527 -0.1777 -0.5150
   34MOL   H25630022   8.299   6.386   3.803 -1.0540  1.3252 -1.1872
   34MOL   H25730023   8.330   6.248   4.008 -0.5539 -0.4353  0.5604
   34MOL   H25830024   8.017   6.478   4.206  2.5437  2.7912  1.2724
   34MOL   H25930025   7.988   6.618   3.996 -0.4717 -0.6501 -0.2110
   34MOL   H26030026   8.321   5.980   4.296  1.5215 -1.0594 -0.2794
   34MOL   H26130027   0.181   5.917   4.313  0.0929  0.4700  1.2526
   34MOL   H26230028   0.305   6.328   4.241 -1.3614  1.0228 -0.9987
   34MOL   H26330029   0.064   6.388   4.212 -0.5266  0.6006 -0.4237
   34MOL   H26430030   0.577   5.896   4.344 -1.9074  0.4365  0.3169
   34MOL   H26530031   0.650   5.706   4.204  0.9213  1.5839 -0.0106
   34MOL   H26630032   0.417   5.872   3.872  0.8213  1.8343  0.0739
   34MOL   H26730033   0.334   6.037   4.016  1.6782  2.7551  0.3101
   34MOL   H26830034   0.559   5.766   3.763 -1.1285  0.6081  1.6372
   34MOL   H26930035   0.645   5.594   3.620  1.9975  2.4671  0.2151
   34MOL   H27030036   0.709   5.342   3.965  2.2057  0.1431 -1.0479
   34MOL   H27130037   0.609   5.515   4.104 -0.9308 -2.5453  0.2000
   34MOL   C27230038   0.653   5.245   3.670 -0.0452 -0.2333  0.8782
   34MOL   C27330039   0.545   5.264   3.578  0.3515  0.0353 -0.1061
   34MOL   C27430040   0.454   5.157   3.548 -0.4057 -0.3966  0.0922
   34MOL   C27530041   0.469   5.031   3.612 -0.5213 -0.6404 -0.4920
   34MOL   C27630042   0.581   5.009   3.695  0.5251  0.4735 -0.3329
   34MOL   C27730043   0.676   5.116   3.716  0.6960  0.0233  0.6018
   34MOL   S27830044   0.348   4.905   3.570  0.1730 -0.0213 -0.0260
   34MOL   O27930045   0.228   4.976   3.529  0.5227  0.0937  0.2548
   34MOL   O28030046   0.349   4.810   3.682  0.1981  0.0180 -0.3807
   34MOL   C28130047   0.413   4.810   3.428  0.0982 -0.0251 -0.1381
   34MOL   C28230048   0.364   4.849   3.302 -0.5963  0.7651  0.0368
   34MOL   C28330049   0.398   4.776   3.187  0.2610  0.3296  0.0729
   34MOL   C28430050   0.468   4.655   3.188 -0.2227 -0.0746 -0.5621
   34MOL   C28530051   0.505   4.608   3.321  0.2814 -0.3185 -0.1786
   34MOL   C28630052   0.477   4.686   3.435 -0.0637 -0.6249  0.0702
   34MOL   O28730053   0.506   4.596   3.077 -0.4737  0.3972 -0.0894
   34MOL   C28830054   0.562   4.669   2.971  0.6368  1.0064 -0.0257
   34MOL   C28930055   0.484   4.671   2.852  0.4691  0.0470  0.4114
   34MOL   C29030056   0.538   4.736   2.739  0.0913 -1.0067 -0.7204
   34MOL   C29130057   0.658   4.806   2.739 -0.1242 -0.3350  0.0347
   34MOL   C29230058   0.732   4.800   2.859  0.7287  0.1296 -0.0754
   34MOL   C29330059   0.683   4.732   2.970  0.0859  0.4676  0.3943
   34MOL   C29430060   0.704   4.888   2.629 -0.1303 -0.0290  0.5034
   34MOL   C29530061   0.762   5.014   2.648  0.1765  0.4583  0.2609
   34MOL   C29630062   0.811   5.094   2.533 -0.6625  0.0514  0.0231
   34MOL   C29730063   0.816   5.035   2.405 -0.0553  0.0847  0.2567
   34MOL   C29830064   0.767   4.904   2.394  0.2139  0.1484  1.0024
   34MOL   C29930065   0.706   4.832   2.499  0.6061 -0.6051 -0.7529
   34MOL   O30030066   0.873   5.100   2.296 -0.0505 -0.0033  0.3288
   34MOL   H30130067   0.530   5.365   3.545  1.2077 -0.1237 -1.0230
   34MOL   H30230068   0.369   5.181   3.485 -0.6985 -0.9650  0.2692
   34MOL   H30330069   0.608   4.910   3.729 -1.0086 -0.3198 -1.3564
   34MOL   H30430070   0.760   5.098   3.782  2.7713  0.4187 -1.8681
   34MOL   H30530071   0.302   4.937   3.296 -0.4411  0.9070  0.4851
   34MOL   H30630072   0.370   4.819   3.092  0.2817 -0.1410 -0.1478
   34MOL   H30730073   0.563   4.518   3.331  0.3600 -0.0092  2.4128
   34MOL   H30830074   0.509   4.644   3.529 -0.5522 -0.5192  0.2869
   34MOL   H30930075   0.391   4.615   2.857  1.1310 -1.0551  0.3503
   34MOL   H31030076   0.472   4.732   2.654 -0.9522 -1.7372  0.1037
   34MOL   H31130077   0.827   4.851   2.862 -0.6553  2.7164  1.9509
   34MOL   H31230078   0.740   4.727   3.062  0.6356 -3.1302 -0.0887
   34MOL   H31330079   0.760   5.054   2.749 -0.3746  0.1308  0.3817
   34MOL   H31430080   0.853   5.193   2.537  0.7154 -0.5202 -0.2119
   34MOL   H31530081   0.781   4.849   2.302 -0.0271 -0.0700  1.0961
   34MOL   H31630082   0.685   4.727   2.486  0.5044 -0.4785 -1.6657
   34MOL   C31730083   0.991   5.053   2.246 -0.1081 -0.2752  0.5193
   34MOL   C31830084   1.095   5.060   2.340  0.1005 -0.4720 -0.3728
   34MOL   C31930085   1.226   5.018   2.308 -0.7216 -0.4796  0.1766
   34MOL   C32030086   1.248   4.967   2.179  0.1894 -0.7580  0.8578
   34MOL   C32130087   1.140   4.959   2.089 -0.6395  0.0702  0.5042
   34MOL   C32230088   1.007   5.005   2.117 -0.0234  0.6124  0.2950
   34MOL   S32330089   1.413   4.902   2.137 -0.4134 -0.2589 -0.0907
   34MOL   O32430090   1.401   4.815   2.018  0.1036  0.2841  0.5805
   34MOL   O32530091   1.475   4.848   2.253  0.0238  0.3528  0.4490
   34MOL   C32630092   1.510   5.049   2.092  0.7977  0.3551  0.2545
   34MOL   C32730093   1.553   5.138   2.199 -0.7420  0.1589  0.0326
   34MOL   C32830094   1.631   5.247   2.159  0.0306 -0.0036  0.7462
   34MOL   C32930095   1.653   5.277   2.026 -0.4319 -0.2038  0.4953
   34MOL   C33030096   1.616   5.187   1.929  0.4985 -0.4332 -0.7376
   34MOL   C33130097   1.535   5.078   1.957  0.3533  0.4943 -0.6499
   34MOL   O33230098   1.725   5.391   1.998  0.7671  0.0180  0.4219
   34MOL   C33330099   1.863   5.384   1.973 -0.7246  0.3273  0.3405
   34MOL   C33430100   1.953   5.432   2.071 -0.4535 -0.8575  0.3131
   34MOL   C33530101   2.092   5.420   2.056 -0.3649  0.5268  0.8992
   34MOL   C33630102   2.135   5.354   1.942 -0.1228  0.5537  0.2915
   34MOL   C33730103   2.044   5.294   1.848 -0.0511 -0.5292  0.1304
   34MOL   C33830104   1.907   5.316   1.859 -0.6358 -0.1200  0.0928
   34MOL   C33930105   2.277   5.352   1.923 -0.2701  0.1368 -0.4024
   34MOL   C34030106   2.327   5.357   1.788  0.0060  0.1215 -0.0486
   34MOL   C34130107   2.464   5.347   1.764  0.6502  0.1177  0.3401
   34MOL   C34230108   2.556   5.330   1.871 -0.1531 -0.7799 -0.0283
   34MOL   C34330109   2.502   5.328   2.006 -0.1099 -0.4008 -0.2857
   34MOL   C34430110   2.366   5.335   2.030 -1.3554  0.8617  0.2677
   34MOL   O34530111   2.692   5.308   1.844  0.3540  0.4284  0.4759
   34MOL   H34630112   1.066   5.099   2.436 -1.1057  0.7345 -1.2169
   34MOL   H34730113   1.302   5.017   2.384 -0.7376 -0.0987  0.2007
   34MOL   H34830114   1.172   4.913   1.996 -0.8512  0.8039  0.0619
   34MOL   H34930115   0.927   4.983   2.048  0.9383  2.6626 -1.5228
   34MOL   H35030116   1.540   5.120   2.305  3.2766 -0.7893  0.4420
   34MOL   H35130117   1.672   5.313   2.234  0.3176  0.0568  0.5408
   34MOL   H35230118   1.649   5.205   1.828  1.8815  0.4273 -0.1428
   34MOL   H35330119   1.499   5.009   1.881  0.7634 -2.1239  1.4595
   34MOL   H35430120   1.913   5.482   2.158  0.4155  1.9321 -0.8295
   34MOL   H35530121   2.163   5.472   2.119 -0.4692  1.2672  0.4060
   34MOL   H35630122   2.081   5.232   1.768 -1.1933 -0.6211 -0.3341
   34MOL   H35730123   1.844   5.271   1.783  3.2670 -1.3808 -2.5896
   34MOL   H35830124   2.261   5.379   1.706  0.4438  0.0963 -0.4108
   34MOL   H35930125   2.502   5.359   1.664  0.6114  3.7856  0.7040
   34MOL   H36030126   2.570   5.329   2.090 -1.2092  1.7574  0.6090
   34MOL   H36130127   2.332   5.329   2.132  0.3413  1.2704  0.8695
   34MOL   C36230128   2.754   5.422   1.811  0.5882  0.0830  0.3126
   34MOL   C36330129   2.818   5.510   1.904 -0.1637  0.3250 -0.0638
   34MOL   C36430130   2.880   5.624   1.858 -0.1013  0.0307  0.6942
   34MOL   C36530131   2.887   5.653   1.723  0.3159 -0.1407  0.0322
   34MOL   C36630132   2.811   5.577   1.634  0.3766  0.1849 -0.2815
   34MOL   C36730133   2.745   5.454   1.676 -0.8107 -0.2509 -0.4159
   34MOL   S36830134   2.979   5.792   1.666  0.3658  0.1351  0.2771
   34MOL   O36930135   3.007   5.759   1.526 -0.0227  0.4318  0.0677
   34MOL   O37030136   3.080   5.809   1.770  0.0301 -0.1243 -0.1767
   34MOL   C37130137   2.873   5.936   1.674  0.2122  0.2267 -0.2241
   34MOL   C37230138   2.787   5.957   1.782  1.0064  0.2612  0.0875
   34MOL   C37330139   2.702   6.070   1.783  0.2124 -0.6258  0.0713
   34MOL   C37430140   2.722   6.170   1.685 -0.8930  0.5789  0.2851
   34MOL   C37530141   2.815   6.154   1.579  1.0768 -0.6249  0.5494
   34MOL   C37630142   2.892   6.034   1.576 -0.6792 -0.2194 -0.4798
   34MOL   O37730143   2.662   6.291   1.693  0.4111 -0.0237  0.1164
   34MOL   C37830144   2.527   6.294   1.725  0.2785 -0.1736  0.3088
   34MOL   C37930145   2.480   6.392   1.819 -0.1085 -0.0458  0.0053
   34MOL   C38030146   2.336   6.406   1.830  0.3394 -0.4783  0.7984
   34MOL   C38130147   2.243   6.321   1.767  0.3898 -0.7517 -0.3112
   34MOL   C38230148   2.297   6.223   1.670  0.3785 -0.6875 -0.2028
   34MOL   C38330149   2.435   6.215   1.652  1.0499 -0.4261 -0.4522
   34MOL   C38430150   2.099   6.324   1.793 -0.4671 -0.1772 -0.1736
   34MOL   C38530151   2.034   6.202   1.827 -0.6502 -0.4013 -0.9013
   34MOL   C38630152   1.900   6.203   1.871 -0.0544  0.1057 -0.3924
   34MOL   C38730153   1.833   6.323   1.901 -1.0650  0.2774  0.1393
   34MOL   C38830154   1.895   6.444   1.860 -0.2373 -0.9441 -0.2992
   34MOL   C38930155   2.025   6.446   1.805 -0.2325 -0.8916  0.0422
   34MOL   O39030156   1.713   6.322   1.964  0.0160 -0.9426  0.1324
   34MOL   H39130157   2.815   5.492   2.011 -0.8723 -1.6055 -0.3950
   34MOL   H39230158   2.929   5.693   1.926 -0.3905 -0.1515  1.0900
   34MOL   H39330159   2.809   5.596   1.528  1.3910  0.5919 -0.2306
   34MOL   H39430160   2.702   5.386   1.604 -0.4087 -0.3065 -0.6034
   34MOL   H39530161   2.779   5.881   1.858  0.2086  0.6713  0.4138
   34MOL   H39630162   2.627   6.089   1.859 -0.4493  1.7103 -1.1234
   34MOL   H39730163   2.827   6.229   1.503 -1.5547 -1.7974 -1.1043
   34MOL   H39830164   2.961   6.024   1.493 -0.2622  2.2094 -0.4476
   34MOL   H39930165   2.539   6.462   1.878 -3.2321  1.9846  0.8316
   34MOL   H40030166   2.306   6.481   1.902  1.4810  1.8695 -1.0966
   34MOL   H40130167   2.221   6.162   1.623 -0.0514 -1.0869  0.9879
   34MOL   H40230168   2.467   6.157   1.567  1.3844 -2.3025  0.9157
   34MOL   H40330169   2.095   6.114   1.839 -0.8222 -0.1379  2.3706
   34MOL   H40430170   1.850   6.112   1.902 -0.9158  0.5302 -0.5454
   34MOL   H40530171   1.847   6.540   1.873  1.3559  0.0827 -1.7266
   34MOL   H40630172   2.072   6.540   1.777 -0.6695 -0.1823  1.6168
   34MOL   C40730173   1.608   6.299   1.884 -0.8159  0.3635  0.2725
   34MOL   C40830174   1.541   6.410   1.822 -0.7392  0.5076 -0.1949
   34MOL   C40930175   1.415   6.388   1.766 -0.4290  0.1159  0.7868
   34MOL   C41030176   1.359   6.256   1.764 -0.1734 -0.1915 -0.4729
   34MOL   C41130177   1.441   6.149   1.806 -0.9597  0.0807 -0.3165
   34MOL   C41230178   1.561   6.170   1.879 -0.0280  0.1129  0.4353
   34MOL   S41330179   1.189   6.227   1.696 -0.4927 -0.1391 -0.1575
   34MOL   O41430180   1.127   6.344   1.635  0.2734  0.2396  0.1935
   34MOL   O41530181   1.113   6.140   1.786  0.9616  0.3376 -0.6807
   34MOL   C41630182   1.235   6.118   1.564 -0.6687  0.3321  0.2207
   34MOL   C41730183   1.330   6.161   1.469 -0.1430  0.1457 -0.6016
   34MOL   C41830184   1.376   6.067   1.375  1.0474 -0.4727  0.2941
   34MOL   C41930185   1.340   5.934   1.383 -0.1474 -0.0751 -0.2236
   34MOL   C42030186   1.240   5.892   1.477  0.8629  0.2411  0.6351
   34MOL   C42130187   1.183   5.988   1.560  0.0356  0.6813  0.1941
   34MOL   O42230188   1.394   5.835   1.304 -0.4058 -0.1436  0.1268
   34MOL   C42330189   1.504   5.762   1.332  0.0011 -0.6433  0.4170
   34MOL   C42430190   1.534   5.731   1.465 -0.2311 -0.1624  0.4631
   34MOL   C42530191   1.648   5.661   1.494 -0.5371  0.2310  0.0450
   34MOL   C42630192   1.738   5.620   1.389 -0.5628 -0.1206  0.2137
   34MOL   C42730193   1.699   5.644   1.250 -0.6801  0.3130 -0.9224
   34MOL   C42830194   1.579   5.717   1.223 -0.3668 -0.3079 -0.2343
   34MOL   C42930195   1.857   5.539   1.418 -0.0362 -0.3421  0.4033
   34MOL   C43030196   1.890   5.428   1.331  0.1765 -0.0097  0.1516
   34MOL   C43130197   2.005   5.353   1.344 -0.2007 -0.3127  0.8209
   34MOL   C43230198   2.098   5.389   1.440  0.0019  0.0537  0.0675
   34MOL   C43330199   2.068   5.486   1.536  0.1706 -0.5620  0.0181
   34MOL   C43430200   1.946   5.563   1.530  0.6773  0.3260  0.8124
   34MOL   O43530201   2.200   5.303   1.464 -0.1049 -0.6419  0.1999
   34MOL   H43630202   1.579   6.511   1.828  1.3478 -0.1420 -1.7544
   34MOL   H43730203   1.363   6.473   1.723 -0.8739 -1.1038 -1.1564
   34MOL   H43830204   1.397   6.051   1.800 -1.2959  0.2883 -1.3463
   34MOL   H43930205   1.612   6.080   1.912 -0.5655 -0.4249 -0.1719
   34MOL   H44030206   1.368   6.261   1.457  2.4043 -0.5573  1.2600
   34MOL   H44130207   1.434   6.099   1.289  0.4145  1.9985  0.7586
   34MOL   H44230208   1.203   5.790   1.481  0.6662  0.2742 -0.2195
   34MOL   H44330209   1.093   5.965   1.616 -0.7769 -1.2057 -1.8241
   34MOL   H44430210   1.477   5.767   1.550 -3.2958  2.0769 -2.4378
   34MOL   H44530211   1.657   5.649   1.601  0.3606  3.5918  0.3991
   34MOL   H44630212   1.771   5.627   1.172  1.2397  0.8523  0.7038
   34MOL   H44730213   1.552   5.729   1.119  0.9336  2.9137 -0.2503
   34MOL   H44830214   1.820   5.392   1.256 -0.0179 -0.1311  0.3875
   34MOL   H44930215   2.018   5.272   1.273 -2.0543 -1.4031  1.6926
   34MOL   H45030216   2.144   5.507   1.609 -0.2155  1.3724 -0.0996
   34MOL   H45130217   1.922   5.633   1.609 -0.6369  0.5846  0.2016
   34MOL   C45230218   2.323   5.331   1.409  0.1338 -1.4416  0.1404
   34MOL   C45330219   2.383   5.239   1.316  0.2331 -0.5497  0.5469
   34MOL   C45430220   2.517   5.273   1.268 -0.7646 -0.9725  0.2293
   34MOL   C45530221   2.580   5.394   1.296 -0.0364  0.1387 -0.0381
   34MOL   C45630222   2.515   5.479   1.387 -0.6364 -0.8666 -0.0730
   34MOL   C45730223   2.391   5.451   1.440  0.3756  0.0080 -0.5920
   34MOL   S45830224   2.732   5.444   1.219 -0.1873  0.4541  0.1035
   34MOL   O45930225   2.742   5.387   1.082 -0.3031 -0.4311 -0.3386
   34MOL   O46030226   2.846   5.424   1.310 -0.5048  0.4244 -0.8616
   34MOL   C46130227   2.708   5.626   1.197 -0.2008 -0.1279  0.5537
   34MOL   C46230228   2.604   5.674   1.122  0.2230 -0.6449  0.2123
   34MOL   C46330229   2.580   5.809   1.098 -0.3072 -0.3780 -0.0971
   34MOL   C46430230   2.662   5.904   1.162  0.6174 -0.6221  0.4892
   34MOL   C46530231   2.769   5.857   1.235 -0.7532 -0.0065 -0.1926
   34MOL   C46630232   2.798   5.719   1.263 -0.4714 -0.5786 -1.1820
   34MOL   O46730233   2.653   6.039   1.130 -0.1336  0.2599 -0.4510
   34MOL   C46830234   2.533   6.100   1.130 -0.3655  0.7744 -0.0955
   34MOL   C46930235   2.502   6.187   1.024 -0.2534  0.2604 -0.1452
   34MOL   C47030236   2.390   6.269   1.033 -0.1154  0.7505 -0.5677
   34MOL   C47130237   2.311   6.261   1.145 -0.2406 -0.1178 -0.7821
   34MOL   C47230238   2.345   6.185   1.258  0.3482  0.9783 -0.5487
   34MOL   C47330239   2.455   6.098   1.247 -0.0471  0.2008 -0.3732
   34MOL   C47430240   2.193   6.341   1.158  0.6738 -0.3895 -0.5474
   34MOL   C47530241   2.170   6.433   1.264 -0.4745 -0.0697  0.3407
   34MOL   C47630242   2.066   6.523   1.256  0.0870 -0.2176 -0.0185
   34MOL   C47730243   1.962   6.508   1.155  0.2886 -0.0892  0.1140
   34MOL   C47830244   1.985   6.415   1.047  0.2385 -0.1547  0.6516
   34MOL   C47930245   2.096   6.331   1.055  0.3124  0.6131  0.7816
   34MOL   O48030246   1.852   6.590   1.148  0.0274 -0.4747 -0.2708
   34MOL   H48130247   2.335   5.154   1.270 -0.7936 -0.6611  1.7908
   34MOL   H48230248   2.565   5.200   1.205  0.3991  0.0391 -0.0753
   34MOL   H48330249   2.559   5.573   1.415 -2.1147 -0.1664 -0.0514
   34MOL   H48430250   2.343   5.530   1.496 -2.0095 -1.2362 -0.8404
   34MOL   H48530251   2.538   5.607   1.069 -0.3674  0.3745 -0.3389
   34MOL   H48630252   2.500   5.841   1.034  0.7733  1.5952 -0.4909
   34MOL   H48730253   2.824   5.933   1.287 -4.3491  2.1076  0.7003
   34MOL   H48830254   2.883   5.683   1.318 -1.1854 -1.9000 -0.9257
   34MOL   H48930255   2.553   6.188   0.929 -2.3687  0.6572 -1.3165
   34MOL   H49030256   2.368   6.325   0.943 -1.0595 -1.0710 -1.5036
   34MOL   H49130257   2.278   6.193   1.342 -1.9544  1.9349 -2.4316
   34MOL   H49230258   2.480   6.037   1.332 -0.6776  0.7966  0.2437
   34MOL   H49330259   2.238   6.452   1.346 -0.3175  1.8000 -0.2053
   34MOL   H49430260   2.045   6.582   1.344 -2.0665 -0.4415 -0.3478
   34MOL   H49530261   1.913   6.393   0.969  0.8186  1.2130 -0.2825
   34MOL   H49630262   2.104   6.256   0.978 -0.6394  1.9771 -0.6734
   34MOL   C49730263   1.864   6.702   1.070  0.7009  0.3636 -0.3506
   34MOL   C49830264   1.776   6.719   0.965 -0.7056 -0.1649 -0.3348
   34MOL   C49930265   1.772   6.844   0.901 -0.2776 -0.1681  0.2939
   34MOL   C50030266   1.851   6.954   0.950  0.2636 -0.1371 -0.1241
   34MOL   C50130267   1.940   6.933   1.054 -0.2725  0.8032 -0.5723
   34MOL   C50230268   1.950   6.807   1.114 -0.2464 -0.3681 -0.1801
   34MOL   S50330269   1.807   7.118   0.882  0.0951 -0.3428  0.0338
   34MOL   O50430270   1.660   7.116   0.901  0.6639  0.4899  0.5846
   34MOL   O50530271   1.862   7.130   0.746  0.6383 -0.6408 -0.3901
   34MOL   C50630272   1.877   7.242   0.984  0.6400  0.1668  0.6833
   34MOL   C50730273   1.991   7.311   0.936  0.2016  0.6934  0.3210
   34MOL   C50830274   2.059   7.389   1.021 -0.1318  0.2028  0.0288
   34MOL   C50930275   2.013   7.416   1.152  0.5849 -1.0584 -0.3141
   34MOL   C51030276   1.894   7.358   1.197 -0.3916  0.2127  0.9786
   34MOL   C51130277   1.826   7.272   1.112 -0.0644 -0.6481 -0.1247
   34MOL   O51230278   2.079   7.502   1.234 -0.6147  0.8460  0.5042
   34MOL   C51330279   2.083   7.632   1.203  0.1004 -0.0073  0.0828
   34MOL   C51430280   1.967   7.710   1.191  0.3277  0.7075  0.2897
   34MOL   C51530281   1.975   7.845   1.149  0.4773  0.0524  0.2949
   34MOL   C51630282   2.102   7.908   1.133  0.3520 -0.1323  0.3267
   34MOL   C51730283   2.212   7.829   1.158  0.1603 -0.0913 -0.0613
   34MOL   C51830284   2.210   7.690   1.187  0.1561 -0.4745  0.1524
   34MOL   C51930285   2.120   8.047   1.103 -0.2463 -0.4326 -0.5782
   34MOL   C52030286   2.220   8.122   1.168 -0.8458 -0.6853 -0.1202
   34MOL   C52130287   2.243   8.255   1.136 -0.2953  0.6043  0.1650
   34MOL   C52230288   2.160   8.317   1.042 -0.1462  0.0174  0.6932
   34MOL   C52330289   2.066   8.241   0.973 -0.0834  0.1637 -0.1022
   34MOL   C52430290   2.044   8.106   1.009  0.5642  0.1436 -0.3737
   34MOL   O52530291   2.159   0.085   1.012 -0.1649 -0.3152  0.3601
   34MOL   H52630292   1.710   6.639   0.937  0.6019 -2.0498  1.7153
   34MOL   H52730293   1.712   6.857   0.812 -1.3434 -1.3808  0.8222
   34MOL   H52830294   1.995   7.014   1.098 -0.9901  1.1920 -0.3718
   34MOL   H52930295   2.022   6.794   1.193  0.3564  1.1783 -0.4600
   34MOL   H53030296   2.029   7.298   0.836 -0.7208  1.4093 -0.1261
   34MOL   H53130297   2.149   7.428   0.976 -1.8205  2.6470 -1.3475
   34MOL   H53230298   1.855   7.375   1.296 -0.2343  0.9576  0.9138
   34MOL   H53330299   1.733   7.230   1.148  0.1664  0.2448  1.5554
   34MOL   H53430300   1.870   7.662   1.197  0.4372  0.4807  0.2333
   34MOL   H53530301   1.882   7.894   1.125 -0.1658 -1.4051 -0.2827
   34MOL   H53630302   2.311   7.874   1.149  0.6340 -1.2304 -0.6655
   34MOL   H53730303   2.298   7.627   1.198 -1.2321 -2.9270 -2.1384
   34MOL   H53830304   2.286   8.080   1.242 -0.8027 -1.0897 -0.3870
   34MOL   H53930305   2.335   8.297   1.174  0.1965 -1.0363  0.8055
   34MOL   H54030306   2.001   8.282   0.897 -1.5355  0.1199  1.1014
   34MOL   H54130307   1.967   8.047   0.962 -0.8627  0.5466  1.4157
   34MOL   C54230308   2.275   0.152   1.031  0.5521 -0.6546  0.0671
   34MOL   C54330309   2.398   0.119   0.967 -0.0886 -0.1580 -0.6247
   34MOL   C54430310   2.516   0.188   0.993  0.4776  0.3821 -0.2555
   34MOL   C54530311   2.510   0.291   1.095 -0.1515  0.2448 -0.1803
   34MOL   C54630312   2.387   0.330   1.155 -0.6892 -0.0455  0.5061
   34MOL   C54730313   2.273   0.254   1.130 -0.2638 -0.0401  0.1579
   34MOL   S54830314   2.654   0.386   1.126 -0.1435 -0.1384 -0.5832
   34MOL   O54930315   2.616   0.510   1.196  0.2268  0.0943 -0.2416
   34MOL   O55030316   2.725   0.402   0.997  0.0840 -0.7816 -0.6299
   34MOL   C55130317   2.774   0.297   1.226  0.4060 -0.7147 -0.2339
   34MOL   C55230318   2.807   0.161   1.212  0.5357 -0.0526 -0.1995
   34MOL   C55330319   2.903   0.107   1.300 -0.3925 -0.1498 -0.0664
   34MOL   C55430320   2.963   0.190   1.403  0.3768  0.4029 -1.1359
   34MOL   C55530321   2.922   0.327   1.418 -0.3577 -0.0959 -0.2973
   34MOL   C55630322   2.835   0.373   1.324 -0.2388 -0.0441 -0.0571
   34MOL   O55730323   3.051   0.140   1.495  0.3502 -0.2521 -0.0378
   34MOL   C55830324   3.121   0.029   1.474 -0.0937  0.2224  0.2314
   34MOL   C55930325   3.243   0.038   1.399  0.2616 -0.0617  0.0421
   34MOL   C56030326   3.326   8.297   1.384  0.5681 -0.2944 -0.1423
   34MOL   C56130327   3.281   8.171   1.427 -0.6210 -0.5072  0.5564
   34MOL   C56230328   3.156   8.153   1.483 -0.5732 -0.8117 -0.3348
   34MOL   C56330329   3.076   8.269   1.519  0.5339 -0.3852 -0.7583
   34MOL   C56430330   3.372   8.058   1.396  0.1935  0.4877  0.3081
   34MOL   C56530331   3.394   8.026   1.257  0.1046 -0.4590  0.1555
   34MOL   C56630332   3.485   7.931   1.212 -0.5126 -0.0343 -0.3804
   34MOL   C56730333   3.546   7.858   1.319  0.2455  0.1721  0.2024
   34MOL   C56830334   3.515   7.883   1.454  0.5416  0.1750 -0.0056
   34MOL   C56930335   3.434   7.981   1.494  0.1694 -0.3262 -0.7033
   34MOL   O57030336   3.637   7.761   1.285 -0.3256 -0.0275  0.3050
   34MOL   H57130337   2.387   0.040   0.895 -3.5256 -1.9197  1.7200
   34MOL   H57230338   2.605   0.163   0.936 -0.1590 -0.0645 -1.0592
   34MOL   H57330339   2.397   0.407   1.230  3.8631 -0.8506  0.8444
   34MOL   H57430340   2.178   0.264   1.179 -0.2110 -1.3380  0.5542
   34MOL   H57530341   2.768   0.106   1.127 -1.1526 -1.6991  1.5973
   34MOL   H57630342   2.921   0.000   1.296  0.5870 -0.0768  2.0231
   34MOL   H57730343   2.954   0.390   1.499  0.5612  0.2513 -0.9243
   34MOL   H57830344   2.808   0.476   1.345  0.6101  0.1148  0.2738
   34MOL   H57930345   3.270   0.139   1.371 -1.1686  0.5433  0.7851
   34MOL   H58030346   3.416   8.320   1.328  0.4794  0.1962 -0.0895
   34MOL   H58130347   3.128   8.049   1.492  0.3395 -0.9583  0.9758
   34MOL   H58230348   2.976   8.271   1.559  0.5012  4.4143 -0.8201
   34MOL   H58330349   3.345   8.083   1.178  1.5055  1.4410  0.6224
   34MOL   H58430350   3.520   7.917   1.110 -1.9225 -2.7807 -0.5451
   34MOL   H58530351   3.571   7.829   1.529  0.2382 -1.2451 -0.7771
   34MOL   H58630352   3.424   7.993   1.600  0.6455 -1.5581 -0.5063
   34MOL   C58730353   3.677   7.662   1.377  0.1233 -0.1417  0.5292
   34MOL   C58830354   3.787   7.682   1.457 -0.0031 -0.2828  0.0130
   34MOL   C58930355   3.831   7.580   1.545 -0.1185  0.2354  0.0200
   34MOL   C59030356   3.759   7.462   1.561  0.4309 -0.2370 -0.5440
   34MOL   C59130357   3.636   7.450   1.490  0.3502 -0.1491  0.2216
   34MOL   C59230358   3.591   7.556   1.403  0.2531  0.4872 -0.2285
   34MOL   S59330359   3.826   7.325   1.650 -0.3256 -0.2563 -0.4647
   34MOL   O59430360   3.744   7.212   1.618 -0.1403  0.2193 -0.1884
   34MOL   O59530361   3.852   7.369   1.785  0.1014 -0.4823  0.1693
   34MOL   C59630362   3.984   7.295   1.574  0.3245  0.5342 -0.8706
   34MOL   C59730363   4.003   7.274   1.438  0.3206  1.5579 -0.1198
   34MOL   C59830364   4.126   7.239   1.391 -0.0841  0.0675  0.0832
   34MOL   C59930365   4.243   7.221   1.473 -0.1127 -0.9774  0.0925
   34MOL   C60030366   4.224   7.245   1.612 -0.0560  0.1119 -0.3822
   34MOL   C60130367   4.094   7.271   1.659 -0.2401  0.0222 -0.1891
   34MOL   O60230368   4.371   7.203   1.433  0.1274 -0.0798  0.4302
   34MOL   C60330369   4.418   7.082   1.383  0.0441 -0.5110 -0.0636
   34MOL   C60430370   4.556   7.060   1.364 -0.2995  0.1484 -0.6884
   34MOL   C60530371   4.601   6.932   1.325 -0.6082  0.3213  0.5809
   34MOL   C60630372   4.511   6.830   1.289 -0.0007  0.0077  0.1470
   34MOL   C60730373   4.376   6.860   1.306  0.3470  1.0481 -0.3954
   34MOL   C60830374   4.329   6.984   1.343  0.3037  0.5140  0.2975
   34MOL   C60930375   4.556   6.694   1.253  0.8535  0.3163 -0.1104
   34MOL   C61030376   4.643   6.620   1.339 -0.4931 -0.4564 -0.5762
   34MOL   C61130377   4.695   6.492   1.305 -0.1144  1.1938 -0.1482
   34MOL   C61230378   4.646   6.430   1.194  0.3168  0.9312 -0.2522
   34MOL   C61330379   4.564   6.498   1.104  0.4950  0.4320 -0.4137
   34MOL   C61430380   4.515   6.623   1.137 -0.3150 -0.2257  0.1738
   34MOL   O61530381   4.699   6.309   1.160 -0.3404  0.0888 -0.4977
   34MOL   H61630382   3.849   7.769   1.445 -0.2038 -0.2985 -1.1999
   34MOL   H61730383   3.930   7.589   1.586 -0.4731 -0.4057  1.0446
   34MOL   H61830384   3.571   7.365   1.499  1.4833 -0.9398  0.9776
   34MOL   H61930385   3.508   7.541   1.335 -1.6650  0.9673  1.9305
   34MOL   H62030386   3.921   7.273   1.367  1.5289 -0.3000 -1.5397
   34MOL   H62130387   4.130   7.225   1.284 -2.0557  0.7123 -0.0878
   34MOL   H62230388   4.307   7.224   1.679 -0.1546 -0.9793 -0.5936
   34MOL   H62330389   4.078   7.269   1.766 -2.2240  0.5565 -0.4675
   34MOL   H62430390   4.625   7.129   1.410 -0.7185 -1.4218  2.4934
   34MOL   H62530391   4.707   6.910   1.324 -0.7910 -0.5813  0.2650
   34MOL   H62630392   4.301   6.788   1.279  0.7674  1.2162 -2.1373
   34MOL   H62730393   4.223   7.005   1.349  0.3838  0.9135  0.3567
   34MOL   H62830394   4.683   6.671   1.425  0.5186 -0.4380 -1.0518
   34MOL   H62930395   4.761   6.439   1.372  1.0156  0.8952 -1.4911
   34MOL   H63030396   4.531   6.454   1.011  0.6539 -0.5147 -0.0359
   34MOL   H63130397   4.454   6.678   1.067  3.2441  2.7939 -0.7105
   34MOL   C63230398   4.634   6.225   1.067  0.1896 -0.4636  0.3361
   34MOL   C63330399   4.669   6.228   0.930  0.3200  0.0222  0.0792
   34MOL   C63430400   4.599   6.148   0.837  0.6204 -0.3528  0.1122
   34MOL   C63530401   4.504   6.054   0.886  0.8146 -0.3077  0.2417
   34MOL   C63630402   4.471   6.046   1.020 -0.3352 -0.0729 -0.1308
   34MOL   C63730403   4.535   6.132   1.110  0.2539  0.3389  0.4090
   34MOL   S63830404   4.422   5.955   0.760  0.0494  0.3673  0.2389
   34MOL   O63930405   4.380   5.836   0.835 -0.0277 -0.0295 -0.0414
   34MOL   O64030406   4.517   5.947   0.648  0.1280 -0.3406 -0.1089
   34MOL   C64130407   4.276   6.049   0.717 -0.4899 -0.0222 -0.3232
   34MOL   C64230408   4.203   6.122   0.811  0.0050 -0.6434 -0.0814
   34MOL   C64330409   4.103   6.210   0.768 -1.2064  0.0610 -0.4552
   34MOL   C64430410   4.064   6.219   0.637  0.0837  0.6426 -0.4970
   34MOL   C64530411   4.131   6.135   0.543 -0.3082 -0.0517  0.2237
   34MOL   C64630412   4.230   6.045   0.585  0.9460 -0.2029  0.0080
   34MOL   O64730413   3.973   6.310   0.595  0.4926 -0.4094  0.3653
   34MOL   C64830414   3.991   6.446   0.631  0.8082  0.1204  0.2202
   34MOL   C64930415   3.882   6.511   0.701 -0.5406 -0.0289 -0.1492
   34MOL   C65030416   3.892   6.636   0.757 -0.1248 -0.4558  0.7372
   34MOL   C65130417   4.015   6.708   0.747  0.6182 -0.5089 -0.5267
   34MOL   C65230418   4.122   6.646   0.664 -0.3622  0.2729 -0.3677
   34MOL   C65330419   4.109   6.516   0.606  0.0324 -0.2198  0.0464
   34MOL   C65430420   4.029   6.845   0.804  0.8713  0.1897  0.1732
   34MOL   C65530421   3.991   6.961   0.725  0.5604 -0.2297 -0.6410
   34MOL   C65630422   3.998   7.088   0.781  0.2580  0.5160  0.1091
   34MOL   C65730423   4.052   7.109   0.913  0.3202 -1.2494 -0.4525
   34MOL   C65830424   4.085   6.998   0.988  0.0391  0.1884 -0.4765
   34MOL   C65930425   4.071   6.869   0.939 -0.2632  0.3804  0.0131
   34MOL   O66030426   4.038   7.225   0.977 -0.0114 -0.2418  0.1308
   34MOL   H66130427   4.754   6.286   0.897  2.2075 -1.3689  2.2636
   34MOL   H66230428   4.625   6.153   0.733  0.6722 -0.2191  0.1309
   34MOL   H66330429   4.410   5.967   1.061 -2.3605  1.0049 -1.0264
   34MOL   H66430430   4.515   6.129   1.216 -0.1052 -0.8712  0.3101
   34MOL   H66530431   4.230   6.122   0.916  3.6059  2.0036 -0.9313
   34MOL   H66630432   4.059   6.272   0.845 -0.8984  0.5053 -0.6381
   34MOL   H66730433   4.113   6.151   0.437 -1.0778  0.7803  0.4729
   34MOL   H66830434   4.280   5.994   0.503  0.7539  1.9396 -1.5076
   34MOL   H66930435   3.789   6.457   0.707 -0.3940 -0.2493  0.1200
   34MOL   H67030436   3.800   6.678   0.794 -0.5763  1.1978 -2.1323
   34MOL   H67130437   4.215   6.699   0.649 -0.2346 -0.7455 -3.4910
   34MOL   H67230438   4.188   6.470   0.549  0.6108 -2.5438  2.5887
   34MOL   H67330439   3.973   6.942   0.620  1.1038 -1.3289 -0.5472
   34MOL   H67430440   3.965   7.175   0.725 -0.5225 -0.6618 -1.2947
   34MOL   H67530441   4.119   7.001   1.091 -0.6712 -2.3291 -0.1381
   34MOL   H67630442   4.099   6.781   0.994 -1.3632  0.5708  0.9092
   34MOL   C67730443   4.115   7.326   0.929 -0.2880 -0.0259 -0.1764
   34MOL   C67830444   4.058   7.452   0.909  0.0702 -0.6419  0.1768
   34MOL   C67930445   4.131   7.549   0.837 -0.2950 -0.0105  0.0052
   34MOL   C68030446   4.259   7.524   0.798  0.3416  0.2378  0.2149
   34MOL   C68130447   4.324   7.397   0.831  0.1042 -1.1240  0.3950
   34MOL   C68230448   4.251   7.302   0.896  0.4193 -0.3901  0.1247
   34MOL   S68330449   4.354   7.646   0.704 -0.1828  0.4275 -0.4208
   34MOL   O68430450   4.261   7.720   0.617  0.4034 -0.4066 -0.2719
   34MOL   O68530451   4.459   7.569   0.634  0.1887  0.0356  0.0602
   34MOL   C68630452   4.435   7.764   0.821 -0.3888  0.6840 -0.2375
   34MOL   C68730453   4.386   7.786   0.953  0.3120 -0.6003 -0.3235
   34MOL   C68830454   4.456   7.870   1.045 -0.2525 -0.0412  0.1296
   34MOL   C68930455   4.582   7.924   1.009 -0.3218  0.1528  0.2524
   34MOL   C69030456   4.630   7.907   0.879 -0.0875  0.1957  0.8276
   34MOL   C69130457   4.560   7.827   0.784  0.2657  0.6871 -0.5960
   34MOL   O69230458   4.643   8.024   1.084  0.1536 -0.8535  0.1448
   34MOL   C69330459   4.650   8.007   1.219  0.8613  0.8773 -0.4054
   34MOL   C69430460   4.737   7.914   1.288  0.7252 -0.2427  0.7066
   34MOL   C69530461   4.726   7.902   1.429  1.2673 -0.1443  0.4882
   34MOL   C69630462   4.640   7.991   1.494 -0.1865  0.4465  0.1634
   34MOL   C69730463   4.553   8.078   1.426  0.0504  0.8853 -0.5906
   34MOL   C69830464   4.563   8.089   1.290 -0.2692  0.1366  0.1336
   34MOL   C69930465   4.619   7.974   1.631  0.0928  0.8196  0.2715
   34MOL   C70030466   4.496   7.931   1.680  0.0458  0.3930  0.4519
   34MOL   C70130467   4.479   7.910   1.817  0.3789  0.0644 -0.2264
   34MOL   C70230468   4.584   7.940   1.909  0.0225 -0.4820 -1.2179
   34MOL   C70330469   4.710   7.980   1.860 -0.6701 -0.9937 -0.4497
   34MOL   C70430470   4.726   7.990   1.725 -0.4993  0.4254 -0.5770
   34MOL   O70530471   4.563   7.928   2.045  0.1542 -0.1001 -0.0595
   34MOL   H70630472   3.961   7.480   0.945  0.2978  0.4305 -0.0264
   34MOL   H70730473   4.086   7.645   0.818 -1.1953 -0.2637  0.7650
   34MOL   H70830474   4.425   7.375   0.801 -0.2527 -3.4954  0.8460
   34MOL   H70930475   4.301   7.210   0.925  0.6580 -0.7865 -1.4937
   34MOL   H71030476   4.296   7.734   0.982  0.2933  0.1944  1.1227
   34MOL   H71130477   4.417   7.892   1.143  0.6422  0.3616  0.3998
   34MOL   H71230478   4.725   7.948   0.851  0.2025 -0.5333  0.7431
   34MOL   H71330479   4.592   7.828   0.681 -1.6629  0.9847 -1.2126
   34MOL   H71430480   4.812   7.849   1.246 -0.6078 -1.6512  0.4573
   34MOL   H71530481   4.783   7.828   1.482 -1.8367 -2.7925  0.2770
   34MOL   H71630482   4.480   8.145   1.471  2.0663  1.3448  2.1681
   34MOL   H71730483   4.501   8.157   1.234 -0.3125  0.2580  0.3312
   34MOL   H71830484   4.417   7.917   1.608  0.4688  0.7820 -0.0855
   34MOL   H71930485   4.385   7.881   1.862  0.5566 -0.7545 -0.3616
   34MOL   H72030486   4.794   8.013   1.920 -0.3020 -2.9953  0.1903
   34MOL   H72130487   4.823   8.019   1.689  0.2206  0.6902  1.5209
   34MOL   C72230488   4.503   8.025   2.120  0.0874 -0.3122 -0.7929
   34MOL   C72330489   4.556   8.154   2.140 -0.0037  0.9690 -0.1552
   34MOL   C72430490   4.486   8.256   2.210  0.5480  0.5253  0.5485
   34MOL   C72530491   4.358   8.228   2.262  0.6710  0.3542  0.2766
   34MOL   C72630492   4.307   8.095   2.245 -0.3001 -0.5692  0.2359
   34MOL   C72730493   4.376   7.998   2.175 -0.6644  0.0818  0.1508
   34MOL   S72830494   4.271   0.000   2.341  0.1335 -0.5120 -0.4101
   34MOL   O72930495   4.366   0.113   2.357 -0.4660  0.0840  0.5733
   34MOL   O73030496   4.202   8.307   2.458 -1.1478 -0.4654 -0.0157
   34MOL   C73130497   4.149   0.054   2.226  0.3405  0.4182  0.6724
   34MOL   C73230498   4.194   0.095   2.100 -0.4036 -0.5171 -0.3120
   34MOL   C73330499   4.105   0.147   2.004 -0.3812  0.5643  0.0239
   34MOL   C73430500   3.967   0.155   2.041  0.1085  0.3242 -0.1640
   34MOL   C73530501   3.928   0.113   2.170 -0.2863 -0.0103 -0.7140
   34MOL   C73630502   4.013   0.066   2.267  0.2740 -0.2831  0.1566
   34MOL   O73730503   3.872   0.211   1.956  0.1945  0.2743 -0.5172
   34MOL   C73830504   3.764   0.132   1.923 -0.2087 -0.8722  0.0492
   34MOL   C73930505   3.637   0.171   1.976  0.4993  0.1998  0.1320
   34MOL   C74030506   3.525   0.093   1.957  0.2857  0.0479 -0.5284
   34MOL   C74130507   3.537   8.339   1.885  0.2733 -0.4919 -0.4162
   34MOL   C74230508   3.658   8.307   1.822 -0.1414  0.0004 -0.4637
   34MOL   C74330509   3.774   0.023   1.837  0.0052 -0.4560 -0.3222
   34MOL   C74430510   3.417   8.248   1.889  0.0610 -0.6326 -0.2207
   34MOL   C74530511   3.285   8.295   1.878 -0.4709 -0.6753  0.1866
   34MOL   C74630512   3.173   8.211   1.898 -0.6171  0.2496 -0.5765
   34MOL   C74730513   3.191   8.072   1.931 -0.2832  0.2377  0.1382
   34MOL   C74830514   3.320   8.025   1.943  0.0943 -0.4749 -0.2923
   34MOL   C74930515   3.429   8.110   1.917 -0.6074 -0.0770 -0.5287
   34MOL   O75030516   3.086   7.992   1.960  0.2974 -0.1818 -0.1546
   34MOL   H75130517   4.657   8.167   2.104  0.1802  0.2251  0.0785
   34MOL   H75230518   4.537   8.350   2.227 -1.2610  1.3197  1.7339
   34MOL   H75330519   4.210   8.080   2.289  0.6347 -0.4696  2.3696
   34MOL   H75430520   4.327   7.903   2.158  0.3357 -0.5556  0.7466
   34MOL   H75530521   4.298   0.089   2.070 -0.0987 -0.0898  0.6111
   34MOL   H75630522   4.143   0.183   1.910  3.2499 -0.4361  1.0265
   34MOL   H75730523   3.825   0.122   2.201  0.1913 -1.2191  1.3453
   34MOL   H75830524   3.979   0.037   2.365 -0.4011 -0.3433 -0.0973
   34MOL   H75930525   3.623   0.265   2.028 -0.5697 -0.3173  0.8178
   34MOL   H76030526   3.437   0.126   2.009  0.1035 -0.3837 -0.5650
   34MOL   H76130527   3.667   8.221   1.758  2.0517  0.8852 -1.3666
   34MOL   H76230528   3.871   8.355   1.804  0.2347 -0.8193  0.6909
   34MOL   H76330529   3.274   0.035   1.856 -1.1693 -0.4360  1.6279
   34MOL   H76430530   3.074   8.249   1.880 -0.6157  1.0633  1.0731
   34MOL   H76530531   3.344   7.921   1.955 -0.5005 -0.6662 -0.7279
   34MOL   H76630532   3.518   8.052   1.932 -0.8426 -0.4762 -0.6861
   34MOL   C76730533   2.994   7.978   1.862  0.1083  0.1431 -0.2369
   34MOL   C76830534   2.870   8.049   1.874  0.3611  0.9524 -0.2630
   34MOL   C76930535   2.773   8.038   1.774 -0.9787  0.3488  0.3317
   34MOL   C77030536   2.806   7.970   1.654 -0.0466  0.0018  0.1616
   34MOL   C77130537   2.924   7.899   1.639 -0.6005  0.0432 -0.6331
   34MOL   C77230538   3.014   7.901   1.747 -0.2961 -0.3464  0.3566
   34MOL   S77330539   2.678   7.966   1.526  0.5970 -0.0698 -0.1725
   34MOL   O77430540   2.745   7.965   1.394  0.7066 -0.0471  0.1120
   34MOL   O77530541   2.578   8.068   1.566  0.2539 -0.6245  0.1023
   34MOL   C77630542   2.590   7.804   1.540  0.2436 -0.3458  0.3602
   34MOL   C77730543   2.452   7.795   1.498 -0.0743 -0.4513 -0.0807
   34MOL   C77830544   2.391   7.669   1.495 -0.2330 -0.5850 -0.0954
   34MOL   C77930545   2.455   7.559   1.561  0.4691  0.9458  0.2088
   34MOL   C78030546   2.588   7.574   1.610  0.4730  0.8114 -0.1615
   34MOL   C78130547   2.652   7.696   1.610  0.0359 -0.4982 -0.0848
   34MOL   O78230548   2.402   7.430   1.556  0.5069 -0.2386 -0.4212
   34MOL   C78330549   2.384   7.363   1.432 -0.3244 -0.2832  0.7067
   34MOL   C78430550   2.489   7.369   1.335 -0.1989 -0.2026 -0.0143
   34MOL   C78530551   2.470   7.280   1.223  0.5022 -0.1945  0.2924
   34MOL   C78630552   2.354   7.200   1.207  0.3676  0.1133  0.1318
   34MOL   C78730553   2.250   7.210   1.304  0.0607 -0.1535 -0.2069
   34MOL   C78830554   2.263   7.289   1.419  0.3891  0.0155 -0.1191
   34MOL   C78930555   2.346   7.102   1.094  0.3026 -0.5124  0.4125
   34MOL   C79030556   2.283   6.974   1.106 -1.4144 -0.4457  0.1272
   34MOL   C79130557   2.275   6.892   0.992  0.9861 -0.0640  0.3533
   34MOL   C79230558   2.313   6.933   0.867  0.3554 -0.9497  0.6053
   34MOL   C79330559   2.369   7.062   0.854  0.3738 -0.0028  0.0154
   34MOL   C79430560   2.383   7.149   0.966  0.4948 -0.6188  0.8592
   34MOL   O79530561   2.292   6.850   0.757  0.0795  0.3367 -0.4073
   34MOL   H79630562   2.852   8.104   1.965  0.2096  0.4507  0.0162
   34MOL   H79730563   2.674   8.078   1.791 -1.0955  0.3591 -0.3626
   34MOL   H79830564   2.940   7.843   1.548 -1.9152  2.2244 -2.2879
   34MOL   H79930565   3.108   7.848   1.745 -0.8659 -1.3375 -0.7098
   34MOL   H80030566   2.401   7.876   1.448  0.3756 -1.0050 -1.4435
   34MOL   H80130567   2.301   7.646   1.440  1.1502 -0.0934 -2.6167
   34MOL   H80230568   2.628   7.482   1.652 -0.2772 -0.5442 -2.2892
   34MOL   H80330569   2.756   7.694   1.639 -0.3069 -0.8609  1.1203
   34MOL   H80430570   2.578   7.424   1.360 -1.0265  0.9285  0.4657
   34MOL   H80530571   2.552   7.261   1.156  0.1420  1.0772 -0.5211
   34MOL   H80630572   2.154   7.165   1.287 -0.6627  0.0265  2.9939
   34MOL   H80730573   2.194   7.287   1.502 -0.1334 -2.6513 -0.5652
   34MOL   H80830574   2.248   6.936   1.201 -0.5824  1.2268  1.1284
   34MOL   H80930575   2.239   6.790   0.999 -1.1815  0.6839  0.3627
   34MOL   H81030576   2.403   7.089   0.755 -0.6960 -1.5408 -0.7943
   34MOL   H81130577   2.418   7.249   0.947 -1.0231 -0.3435 -0.6272
   34MOL   C81230578   2.174   6.873   0.695 -0.0714  0.2829  0.6538
   34MOL   C81330579   2.161   6.989   0.618 -0.6517 -0.2803  0.4306
   34MOL   C81430580   2.054   7.001   0.531 -0.0623 -0.9897  0.9954
   34MOL   C81530581   1.950   6.906   0.537  0.4397  1.2302  0.6099
   34MOL   C81630582   1.969   6.783   0.608  0.2942  0.6817 -0.5412
   34MOL   C81730583   2.089   6.767   0.678  0.6950  0.5010 -0.0384
   34MOL   S81830584   1.802   6.912   0.431  0.5086 -0.1634 -0.0313
   34MOL   O81930585   1.722   6.788   0.455  0.6820 -0.6161 -0.2790
   34MOL   O82030586   1.842   6.943   0.292 -0.1714  0.2953  0.2190
   34MOL   C82130587   1.698   7.047   0.491  0.8888  0.5040 -0.6305
   34MOL   C82230588   1.589   7.023   0.574  0.3756  0.0222 -0.0259
   34MOL   C82330589   1.492   7.118   0.604  0.6136  0.4448  0.0090
   34MOL   C82430590   1.513   7.247   0.562 -0.2665 -0.0157 -0.0634
   34MOL   C82530591   1.632   7.291   0.496  0.1440 -0.2074  0.6933
   34MOL   C82630592   1.723   7.186   0.463  0.3661 -0.1054  0.3121
   34MOL   O82730593   1.426   7.339   0.608 -0.5617 -0.0026 -0.3883
   34MOL   C82830594   1.439   7.368   0.744  0.1229  0.0057  0.1283
   34MOL   C82930595   1.542   7.448   0.797  0.5604  0.8219 -0.2244
   34MOL   C83030596   1.556   7.462   0.932 -0.1540 -0.0938 -0.0446
   34MOL   C83130597   1.477   7.386   1.027  0.7528 -0.2453  0.2868
   34MOL   C83230598   1.372   7.299   0.972 -0.2997  0.4117  0.1822
   34MOL   C83330599   1.353   7.299   0.833 -0.0988 -0.9106  0.3868
   34MOL   C83430600   1.489   7.409   1.172 -0.1986  0.3157 -0.5301
   34MOL   C83530601   1.497   7.295   1.254 -0.0855 -0.3425 -0.2541
   34MOL   C83630602   1.504   7.301   1.393  0.5129  0.4768  0.2288
   34MOL   C83730603   1.493   7.425   1.453 -0.7828  0.1133  0.1546
   34MOL   C83830604   1.490   7.547   1.378  0.1486  0.0172 -0.0933
   34MOL   C83930605   1.498   7.535   1.238  0.0820 -0.4168  0.0934
   34MOL   O84030606   1.482   7.422   1.589 -0.1324  0.3774 -0.4283
   34MOL   H84130607   2.231   7.070   0.633  2.2486 -2.8556  1.2633
   34MOL   H84230608   2.043   7.090   0.470  1.0623 -0.7454  1.1258
   34MOL   H84330609   1.900   6.701   0.592 -0.8377  1.1117  1.8272
   34MOL   H84430610   2.118   6.673   0.724  3.0078  0.5852 -1.2507
   34MOL   H84530611   1.564   6.920   0.593  0.2114 -0.2746 -1.7291
   34MOL   H84630612   1.405   7.099   0.664 -0.6384  1.5508 -1.4117
   34MOL   H84730613   1.648   7.396   0.474 -1.5204 -0.1445 -0.3248
   34MOL   H84830614   1.814   7.214   0.412  1.2416 -1.1620  1.2826
   34MOL   H84930615   1.613   7.486   0.724  0.9138 -0.6941 -0.6848
   34MOL   H85030616   1.631   7.533   0.964 -1.6769  0.7270  1.7703
   34MOL   H85130617   1.318   7.237   1.041  1.3724 -0.5245  0.6972
   34MOL   H85230618   1.276   7.233   0.793 -0.0800  0.3526 -1.8224
   34MOL   H85330619   1.500   7.199   1.206  0.6479 -0.3239 -0.2494
   34MOL   H85430620   1.504   7.208   1.448 -1.9163  1.3656  1.7912
   34MOL   H85530621   1.480   7.645   1.420  1.4251  0.7639 -1.4809
   34MOL   H85630622   1.499   7.626   1.180  0.9121 -1.9751 -2.4124
   34MOL   C85730623   1.361   7.451   1.645  0.9582  0.1484 -0.7513
   34MOL   C85830624   1.332   7.585   1.681  0.0553  0.2497  0.3824
   34MOL   C85930625   1.204   7.623   1.722  0.1932 -0.0850  0.7405
   34MOL   C86030626   1.099   7.526   1.722  0.0012 -0.2612  0.0168
   34MOL   C86130627   1.124   7.391   1.681  0.0640  0.0640 -0.2644
   34MOL   C86230628   1.256   7.356   1.652  0.0782  0.4197 -0.5431
   34MOL   S86330629   0.945   7.574   1.792  0.0833 -0.1058  0.3043
   34MOL   O86430630   0.839   7.491   1.724 -0.3234  0.0616 -0.5103
   34MOL   O86530631   0.932   7.717   1.802 -0.6013  0.0599 -0.9233
   34MOL   C86630632   0.979   7.518   1.961 -0.1894  0.5629 -0.3216
   34MOL   C86730633   0.952   7.382   1.988  0.4786 -0.0016  0.0719
   34MOL   C86830634   0.994   7.321   2.109 -0.1142 -0.0803  0.5448
   34MOL   C86930635   1.060   7.401   2.209  0.1165  0.7556  0.2114
   34MOL   C87030636   1.091   7.537   2.179  0.0138  0.7288  0.5788
   34MOL   C87130637   1.053   7.595   2.053 -0.5637 -0.3624 -0.2080
   34MOL   O87230638   1.093   7.346   2.331  0.0728 -0.1064  0.5328
   34MOL   C87330639   0.997   7.280   2.402 -0.0287  0.3376  1.0191
   34MOL   C87430640   0.916   7.357   2.490 -0.0818  0.4442 -0.2991
   34MOL   C87530641   0.819   7.294   2.568 -0.1640 -0.3564  0.1218
   34MOL   C87630642   0.787   7.157   2.550 -0.0598  0.4956 -0.0100
   34MOL   C87730643   0.870   7.080   2.464 -0.1855 -0.2972 -0.3688
   34MOL   C87830644   0.976   7.141   2.392 -0.0318  0.0278 -0.4071
   34MOL   C87930645   0.664   7.099   2.611 -0.4315  0.4840  0.3156
   34MOL   C88030646   0.566   7.046   2.525  0.0896  0.0031  0.3231
   34MOL   C88130647   0.451   6.980   2.582  0.2297 -0.3857 -0.1294
   34MOL   C88230648   0.436   6.978   2.723  0.2160 -0.1088  0.9157
   34MOL   C88330649   0.528   7.042   2.807  0.1865 -0.4304 -0.9704
   34MOL   C88430650   0.642   7.110   2.749  0.3318 -0.5752  0.1570
   34MOL   O88530651   0.331   6.919   2.783 -0.2709 -0.0803  0.0409
   34MOL   H88630652   1.414   7.653   1.664  0.0389  0.6520  1.8931
   34MOL   H88730653   1.185   7.723   1.759 -0.0673  0.0537  0.2416
   34MOL   H88830654   1.049   7.315   1.693  0.5911 -0.1743  1.7305
   34MOL   H88930655   1.275   7.260   1.608 -1.5176 -0.3984  0.4896
   34MOL   H89030656   0.900   7.324   1.913  0.1985  1.7143 -1.1063
   34MOL   H89130657   0.974   7.218   2.134 -0.0823 -0.3622 -0.5761
   34MOL   H89230658   1.136   7.585   2.264  0.0220  1.1532  0.3329
   34MOL   H89330659   1.094   7.690   2.021 -0.3052 -0.7525 -1.0451
   34MOL   H89430660   0.944   7.459   2.512 -0.1671  0.3709  0.1692
   34MOL   H89530661   0.760   7.345   2.642  1.6044  0.6097  0.8910
   34MOL   H89630662   0.839   6.977   2.452 -0.5398 -0.2093 -0.2213
   34MOL   H89730663   1.037   7.088   2.320  2.8367  1.6365  0.7415
   34MOL   H89830664   0.580   7.043   2.418 -0.1975 -1.2135  0.3239
   34MOL   H89930665   0.378   6.931   2.519 -0.0594  1.1863 -1.0463
   34MOL   H90030666   0.515   7.038   2.914 -1.8858 -2.7090 -1.2926
   34MOL   H90130667   0.716   7.146   2.819 -0.2448 -1.5723  1.3038
   34MOL   H90230668   0.323   6.826   2.767  1.5885  0.2207 -3.1006
   35MOL     C130669   3.413   6.401   2.800 -0.1469 -0.1791  0.4641
   35MOL     C230670   3.524   6.487   2.823 -0.1583  0.2169  0.0537
   35MOL     C330671   3.634   6.435   2.900  0.0217 -0.2771  0.5017
   35MOL     C430672   3.638   6.300   2.941 -0.3683 -0.3831 -0.5308
   35MOL     C530673   3.520   6.221   2.920 -0.1634  1.5137  0.1179
   35MOL     C630674   3.411   6.269   2.852  0.4494  1.0695 -0.4024
   35MOL     S730675   3.780   6.235   3.025 -0.2257 -0.0329  0.1946
   35MOL     O830676   3.756   6.233   3.170  0.1812  0.4279  0.3601
   35MOL     O930677   3.898   6.302   2.965 -0.7852 -0.3640 -0.3461
   35MOL    C1030678   3.791   6.062   2.977  0.8965 -0.0459 -0.3142
   35MOL    C1130679   3.864   6.018   2.863 -0.7233 -0.4516 -0.0717
   35MOL    C1230680   3.880   5.876   2.845 -0.2518  0.4532  0.1258
   35MOL    C1330681   3.800   5.789   2.922 -0.6458 -0.2776  0.4545
   35MOL    C1430682   3.730   5.837   3.033 -0.2262  0.5802  0.0966
   35MOL    C1530683   3.729   5.968   3.066 -0.4531 -0.5393 -0.0366
   35MOL    O1630684   3.797   5.664   2.877  0.2688 -0.0299 -0.1730
   35MOL    C1730685   3.749   5.550   2.933 -0.1238 -0.6968  0.5655
   35MOL    C1830686   3.823   5.471   3.026 -0.1986 -0.1637  0.1467
   35MOL    C1930687   3.762   5.358   3.082 -0.7645  0.3951 -0.4384
   35MOL    C2030688   3.632   5.331   3.053 -0.2068  0.6056 -0.1717
   35MOL    C2130689   3.564   5.403   2.957 -0.3918 -0.4996 -0.4360
   35MOL    C2230690   3.617   5.516   2.899 -0.5944  0.8632 -0.2145
   35MOL    C2330691   3.564   5.211   3.116  0.9527 -0.3929 -0.5397
   35MOL    C2430692   3.583   5.165   3.250 -0.1142 -0.1190 -0.0267
   35MOL    C2530693   3.518   5.056   3.299 -1.2259  0.6147 -0.1419
   35MOL    C2630694   3.425   4.980   3.215  0.1592  0.8186  0.0675
   35MOL    C2730695   3.402   5.029   3.087 -0.5576 -0.2790  0.6346
   35MOL    C2830696   3.465   5.142   3.044  0.1771 -0.2052 -0.3177
   35MOL    O2930697   3.360   4.864   3.263 -0.1556 -0.1921 -0.0794
   35MOL    H3030698   3.520   6.587   2.784 -1.2436  0.8395  1.6768
   35MOL    H3130699   3.718   6.502   2.914  0.3275 -0.3767 -0.7736
   35MOL    H3230700   3.513   6.119   2.954 -1.9407  1.3713 -0.6379
   35MOL    H3330701   3.331   6.198   2.838  1.6189 -0.1047 -1.2383
   35MOL    H3430702   3.909   6.094   2.802 -2.9891  0.3847 -0.7516
   35MOL    H3530703   3.944   5.831   2.771  0.8530 -1.7645  2.3462
   35MOL    H3630704   3.668   5.770   3.091 -0.2427  0.0901 -0.4737
   35MOL    H3730705   3.666   6.011   3.141  1.8579 -1.3377  2.4438
   35MOL    H3830706   3.924   5.501   3.048 -0.5073  1.3465 -0.4392
   35MOL    H3930707   3.806   5.298   3.160 -0.7328 -0.3951 -1.0637
   35MOL    H4030708   3.459   5.386   2.942 -0.2926 -0.4571 -1.1905
   35MOL    H4130709   3.555   5.561   2.822 -1.1830  1.6762  0.7336
   35MOL    H4230710   3.641   5.212   3.328  0.4093 -1.8529  0.6364
   35MOL    H4330711   3.542   5.021   3.399  2.0518  0.1318 -1.0415
   35MOL    H4430712   3.331   4.972   3.029 -0.0903 -0.1163 -0.0870
   35MOL    H4530713   3.450   5.177   2.943 -1.3246  0.5381  0.1437
   35MOL    H4630714   3.328   6.444   2.749 -0.3571 -1.5505 -0.3759
   35MOL    C4730715   3.224   4.885   3.291  0.0529  0.1848 -0.2248
   35MOL    C4830716   3.171   4.971   3.390 -0.0673 -0.3952  0.0631
   35MOL    C4930717   3.031   4.992   3.400  0.2967  0.0180 -0.7682
   35MOL    C5030718   2.939   4.913   3.327  0.2191 -0.5928 -0.7147
   35MOL    C5130719   2.991   4.825   3.232 -0.0864  0.0545 -0.0384
   35MOL    C5230720   3.132   4.804   3.219 -0.5604 -0.1413 -0.9713
   35MOL    S5330721   2.765   4.940   3.352  0.5311  0.1846 -0.0355
   35MOL    O5430722   2.744   4.992   3.486 -0.1062 -0.1829  0.2336
   35MOL    O5530723   2.688   4.822   3.305 -0.2952  0.2029 -0.2655
   35MOL    C5630724   2.720   5.079   3.240  1.1245 -0.2965  0.4775
   35MOL    C5730725   2.621   5.069   3.141  0.2598 -0.0171 -0.3264
   35MOL    C5830726   2.573   5.180   3.062 -0.0828 -0.3815 -0.4016
   35MOL    C5930727   2.620   5.312   3.095  0.2577  0.4802 -0.7685
   35MOL    C6030728   2.715   5.322   3.201 -0.0468 -0.0729  0.1685
   35MOL    C6130729   2.758   5.211   3.278 -0.2417  0.2855  0.2139
   35MOL    O6230730   2.580   5.424   3.025  0.6249 -0.8379 -0.2327
   35MOL    C6330731   2.646   5.454   2.910  0.2527 -0.1575 -0.2572
   35MOL    C6430732   2.702   5.583   2.893 -0.3235  0.0358 -0.6538
   35MOL    C6530733   2.760   5.622   2.775  0.0527  0.4160  0.3194
   35MOL    C6630734   2.757   5.539   2.661 -0.3380  0.3148 -0.0135
   35MOL    C6730735   2.705   5.411   2.676 -0.1372  0.2921 -0.1428
   35MOL    C6830736   2.650   5.368   2.802  0.5173 -0.0913 -0.0542
   35MOL    C6930737   2.819   5.586   2.536  0.4937  0.8170 -0.0951
   35MOL    C7030738   2.801   5.721   2.495 -0.4892  0.4011 -0.6096
   35MOL    C7130739   2.863   5.769   2.373 -0.1164  0.5407 -1.2094
   35MOL    C7230740   2.937   5.680   2.288 -0.5656  0.0435 -0.1960
   35MOL    C7330741   2.958   5.550   2.341  0.6583  0.0396  0.4973
   35MOL    C7430742   2.899   5.500   2.458 -0.3293  0.2433  0.2623
   35MOL    O7530743   2.993   5.721   2.167 -1.1152 -0.4839  0.0172
   35MOL    H7630744   3.247   5.015   3.454 -1.0102  1.2161  0.1114
   35MOL    H7730745   2.989   5.055   3.478  0.9939  1.0468 -1.2019
   35MOL    H7830746   2.917   4.774   3.172 -0.0632 -0.0879  0.0543
   35MOL    H7930747   3.171   4.723   3.158 -0.0077 -2.8002  2.7673
   35MOL    H8030748   2.582   4.969   3.128 -0.2048  0.1362 -0.1108
   35MOL    H8130749   2.494   5.170   2.988  1.3470 -0.4295 -1.9620
   35MOL    H8230750   2.759   5.417   3.229 -0.7469 -0.7335  3.7387
   35MOL    H8330751   2.808   5.221   3.373 -1.8106 -0.4415  1.1267
   35MOL    H8430752   2.684   5.653   2.973 -0.5851 -1.3677  0.5275
   35MOL    H8530753   2.794   5.724   2.769  0.5699  0.2209 -0.1459
   35MOL    H8630754   2.706   5.352   2.585 -1.8683 -1.2963  0.8198
   35MOL    H8730755   2.609   5.269   2.818  0.8487 -0.3247 -0.6201
   35MOL    H8830756   2.740   5.790   2.551 -1.5719 -1.1285  0.1295
   35MOL    H8930757   2.840   5.871   2.350 -2.3594  0.9492  2.4020
   35MOL    H9030758   3.026   5.484   2.289 -1.1873 -1.9958  0.6208
   35MOL    H9130759   2.915   5.402   2.499 -1.4938  0.5328  1.4649
   35MOL    C9230760   3.049   5.840   2.161 -0.6450 -0.2888  0.2253
   35MOL    C9330761   3.005   5.945   2.080 -0.2968 -0.6384 -0.2246
   35MOL    C9430762   3.067   6.071   2.076  0.3507  0.4157 -0.4140
   35MOL    C9530763   3.177   6.094   2.163 -0.0615  0.0455 -0.1491
   35MOL    C9630764   3.228   5.990   2.243  0.3365  0.0282  0.7809
   35MOL    C9730765   3.165   5.864   2.239 -0.1009 -0.6699  0.6342
   35MOL    S9830766   3.237   6.255   2.178  0.1207 -0.3597  0.4130
   35MOL    O9930767   3.204   6.339   2.059  0.2493  0.0607  0.3933
   35MOL   O10030768   3.379   6.245   2.214  0.2076 -0.6462  0.0741
   35MOL   C10130769   3.153   6.326   2.315  0.0552 -0.1107  0.3365
   35MOL   C10230770   3.034   6.271   2.372  0.8063 -0.0260  0.1696
   35MOL   C10330771   2.968   6.338   2.476 -1.2161 -0.1760  0.4930
   35MOL   C10430772   3.019   6.454   2.540  0.1620  0.5663 -0.1639
   35MOL   C10530773   3.138   6.507   2.481  0.1938 -0.2804  0.1495
   35MOL   C10630774   3.206   6.447   2.370  0.5086  0.2177 -0.4329
   35MOL   O10730775   2.956   6.521   2.639  0.6066 -0.4572 -0.3406
   35MOL   C10830776   2.902   6.459   2.746 -0.4794  0.1800  0.4954
   35MOL   C10930777   2.765   6.467   2.767  0.4067  0.3039  0.0853
   35MOL   C11030778   2.715   6.407   2.885  0.4355 -0.5732 -0.4624
   35MOL   C11130779   2.794   6.344   2.982 -0.1769  0.9762  0.0695
   35MOL   C11230780   2.933   6.342   2.955 -0.1259 -0.0958  0.8005
   35MOL   C11330781   2.989   6.396   2.838 -0.4251  0.3019 -0.0479
   35MOL   C11430782   2.740   6.280   3.103  0.4607  0.4098 -0.2789
   35MOL   C11530783   2.610   6.220   3.097  0.5512  0.3401  0.5980
   35MOL   C11630784   2.558   6.147   3.201  0.0317  0.3830  0.0339
   35MOL   C11730785   2.632   6.131   3.318 -0.7226 -0.2530 -0.0239
   35MOL   C11830786   2.754   6.198   3.335 -0.2959  0.4355 -0.4549
   35MOL   C11930787   2.809   6.268   3.223  0.0534  0.1476 -0.3548
   35MOL   O12030788   2.598   6.061   3.426  0.1542 -0.1358 -0.1889
   35MOL   H12130789   2.918   5.934   2.017 -0.1252 -0.5998 -0.4725
   35MOL   H12230790   3.018   6.155   2.029 -1.9390 -0.6248  0.0280
   35MOL   H12330791   3.307   6.003   2.315 -0.1762 -0.4468  1.4340
   35MOL   H12430792   3.203   5.789   2.307  1.3648 -0.7595 -0.2847
   35MOL   H12530793   2.986   6.182   2.334 -0.6857  1.3898 -1.2801
   35MOL   H12630794   2.872   6.300   2.510 -0.4590 -2.0315  0.6112
   35MOL   H12730795   3.164   6.605   2.519  0.0576  0.6422 -2.0422
   35MOL   H12830796   3.291   6.491   2.320  0.0252  0.1936 -1.2942
   35MOL   H12930797   2.697   6.520   2.702  2.5058  2.2281 -0.6156
   35MOL   H13030798   2.608   6.413   2.899  0.0859 -0.9771 -2.7036
   35MOL   H13130799   3.002   6.283   3.014 -0.9231 -0.7869  1.0608
   35MOL   H13230800   3.095   6.397   2.819 -0.4310 -0.0966 -0.0981
   35MOL   H13330801   2.563   6.228   3.000  0.4780  1.3288  0.7043
   35MOL   H13430802   2.459   6.105   3.191 -0.0677  0.6336 -0.0464
   35MOL   H13530803   2.810   6.178   3.425  1.2429  0.5104 -1.3762
   35MOL   H13630804   2.902   6.322   3.238 -0.8467  1.0045  2.4980
   35MOL   C13730805   2.524   5.948   3.407 -0.6593 -0.1690  0.1741
   35MOL   C13830806   2.380   5.947   3.415  0.1430 -0.3985  0.2108
   35MOL   C13930807   2.303   5.837   3.363 -0.1035  0.4302 -0.3854
   35MOL   C14030808   2.373   5.725   3.313  0.1851  0.3470 -0.0979
   35MOL   C14130809   2.510   5.721   3.309 -0.4888  0.8276  0.0134
   35MOL   C14230810   2.589   5.832   3.353 -0.2766 -0.8253 -0.0369
   35MOL   S14330811   2.270   5.600   3.219 -0.2342  0.3059  0.1831
   35MOL   O14430812   2.359   5.526   3.130 -0.4551  0.3926  0.5081
   35MOL   O14530813   2.160   5.676   3.151 -0.4279 -0.0351 -0.1308
   35MOL   C14630814   2.198   5.477   3.336 -0.1490 -0.1187  0.1631
   35MOL   C14730815   2.132   5.363   3.287 -0.2547  0.6621 -0.6135
   35MOL   C14830816   2.082   5.266   3.369 -0.1824 -0.2945  0.1823
   35MOL   C14930817   2.105   5.267   3.509 -0.1027 -0.3204  0.2608
   35MOL   C15030818   2.177   5.379   3.556  0.0900 -0.0877 -0.6930
   35MOL   C15130819   2.213   5.492   3.474  0.4199  0.5784  0.3402
   35MOL   O15230820   2.066   5.177   3.603 -0.0097  0.2807 -0.3534
   35MOL   C15330821   1.982   5.072   3.575  0.1761 -0.2535  0.4708
   35MOL   C15430822   2.037   4.947   3.543 -0.5032 -0.2816  0.7624
   35MOL   C15530823   1.947   4.840   3.514  0.5321  0.4593 -0.2448
   35MOL   C15630824   1.808   4.859   3.523  0.2032  0.1440 -0.4910
   35MOL   C15730825   1.761   4.981   3.568 -0.7687 -0.5317 -0.6836
   35MOL   C15830826   1.840   5.095   3.583 -0.2919  0.1905 -0.9288
   35MOL   C15930827   1.712   4.753   3.506 -0.1977 -0.0073  0.9102
   35MOL   C16030828   1.640   4.731   3.386  0.2140  0.6802 -0.3127
   35MOL   C16130829   1.538   4.634   3.386  0.7080  0.0293  0.2276
   35MOL   C16230830   1.497   4.562   3.501  0.1203 -0.3056 -0.8511
   35MOL   C16330831   1.581   4.568   3.609  0.0398  0.5255 -0.1459
   35MOL   C16430832   1.689   4.660   3.616 -0.1144  0.2241  0.3731
   35MOL   O16530833   1.378   4.489   3.496 -0.8895 -0.0325 -0.6142
   35MOL   H16630834   2.329   6.034   3.454  2.1168  1.5908 -1.4944
   35MOL   H16730835   2.195   5.837   3.366 -0.1036 -1.1127  0.3692
   35MOL   H16830836   2.562   5.636   3.266 -2.1673 -0.3149  0.1622
   35MOL   H16930837   2.697   5.836   3.345 -0.1335 -2.1544  1.0241
   35MOL   H17030838   2.126   5.350   3.180  2.2843  3.0449 -1.1078
   35MOL   H17130839   2.027   5.186   3.322  0.2110 -0.6728  0.3678
   35MOL   H17230840   2.198   5.376   3.662 -0.0554  1.0157 -0.6299
   35MOL   H17330841   2.264   5.578   3.514 -1.2907  1.7736  0.0209
   35MOL   H17430842   2.141   4.920   3.550 -0.2667  0.9660  2.2899
   35MOL   H17530843   1.975   4.740   3.485 -1.2528 -0.1965  0.2405
   35MOL   H17630844   1.653   4.987   3.565 -0.7524  1.2152  1.3196
   35MOL   H17730845   1.798   5.189   3.615  1.6072  0.5665  0.6141
   35MOL   H17830846   1.670   4.793   3.303  1.6035 -0.9039 -1.0252
   35MOL   H17930847   1.475   4.605   3.303  1.1693  1.2685 -0.5743
   35MOL   H18030848   1.559   4.520   3.703 -0.2554  2.5740  0.8616
   35MOL   H18130849   1.740   4.683   3.709 -3.0495  0.9420  1.9006
   35MOL   C18230850   1.259   4.553   3.529 -0.6171 -0.2504  0.1500
   35MOL   C18330851   1.181   4.610   3.424  0.3261  0.6479  0.0552
   35MOL   C18430852   1.080   4.698   3.451  0.3964 -0.6237 -0.4738
   35MOL   C18530853   1.046   4.732   3.588  0.1928  0.8460 -0.3109
   35MOL   C18630854   1.108   4.664   3.694  0.0250  0.5390 -0.0232
   35MOL   C18730855   1.218   4.578   3.659 -0.6096  0.8763 -0.3631
   35MOL   S18830856   0.904   4.835   3.618  0.3244 -0.0141  0.4288
   35MOL   O18930857   0.922   4.898   3.751 -0.1379 -0.4874  0.5096
   35MOL   O19030858   0.778   4.763   3.591  0.2517 -0.1063  0.1825
   35MOL   C19130859   0.894   4.968   3.494 -0.0539  0.2265  0.3632
   35MOL   C19230860   0.921   5.103   3.542 -0.1085  0.7027  0.2465
   35MOL   C19330861   0.910   5.204   3.446  0.3075  0.7279  0.1597
   35MOL   C19430862   0.883   5.176   3.312 -0.2722  0.8107  0.3560
   35MOL   C19530863   0.863   5.045   3.266 -0.5163 -0.5627 -0.4278
   35MOL   C19630864   0.868   4.942   3.360 -0.7730 -0.2441  0.7329
   35MOL   O19730865   0.860   5.275   3.215 -0.6494  0.4493 -0.1979
   35MOL   C19830866   0.776   5.372   3.244 -0.0636 -1.3038  0.5774
   35MOL   C19930867   0.647   5.347   3.293 -0.7126 -0.4675  0.4224
   35MOL   C20030868   0.557   5.450   3.295  1.0908 -0.0456 -0.4008
   35MOL   C20130869   0.596   5.586   3.263 -0.0212 -0.0216 -0.5108
   35MOL   C20230870   0.726   5.606   3.221  0.2862 -0.3048  0.2276
   35MOL   C20330871   0.820   5.504   3.210 -0.0008 -0.0107  0.0443
   35MOL   C20430872   0.507   5.698   3.271  0.3270 -0.1744  0.6702
   35MOL   C20530873   0.450   5.717   3.397  0.3523  0.7360 -1.1234
   35MOL   C20630874   0.373   5.829   3.426  0.6659 -0.1069  1.0551
   35MOL   C20730875   0.353   5.925   3.324 -0.3105  0.2656  0.8753
   35MOL   C20830876   0.399   5.907   3.189 -0.2570  0.2843  1.1535
   35MOL   C20930877   0.485   5.792   3.162 -0.2939  0.5482 -0.0501
   35MOL   O21030878   0.291   6.041   3.357 -0.2522  0.0609 -0.6485
   35MOL   H21130879   1.201   4.586   3.321  2.0229  2.5482 -0.0663
   35MOL   H21230880   1.027   4.738   3.365  0.5492  2.5586  0.8361
   35MOL   H21330881   1.079   4.680   3.797 -0.2600  0.5981 -0.1130
   35MOL   H21430882   1.265   4.532   3.745 -0.6283 -0.1479 -0.8954
   35MOL   H21530883   0.952   5.127   3.643  2.2602 -2.5459  0.3984
   35MOL   H21630884   0.928   5.302   3.489 -1.2265  1.9883 -1.9326
   35MOL   H21730885   0.834   5.022   3.165 -1.6854  0.0843 -0.2468
   35MOL   H21830886   0.837   4.842   3.334 -2.0138 -0.4604  2.9437
   35MOL   H21930887   0.609   5.248   3.315 -2.4252  0.2915  1.0121
   35MOL   H22030888   0.453   5.435   3.319  0.8586  2.2950  0.1546
   35MOL   H22130889   0.763   5.705   3.199 -0.2320 -0.3225 -0.7579
   35MOL   H22230890   0.916   5.509   3.161  0.0815  1.1192  0.3063
   35MOL   H22330891   0.455   5.643   3.475 -1.2209  0.8956 -0.8416
   35MOL   H22430892   0.335   5.833   3.527 -0.8095  0.9535  0.4727
   35MOL   H22530893   0.375   5.979   3.113 -3.3070 -2.4994 -0.6860
   35MOL   H22630894   0.524   5.787   3.061 -1.2317 -1.8753 -0.3167
   35MOL   C22730895   0.381   6.143   3.371  0.3090  0.1268  0.3858
   35MOL   C22830896   0.449   6.174   3.497  0.3746  0.2891  0.5689
   35MOL   C22930897   0.535   6.283   3.503  0.2071  0.0116  0.3519
   35MOL   C23030898   0.533   6.382   3.397 -0.6701  0.0474 -0.2078
   35MOL   C23130899   0.457   6.362   3.280 -0.2549 -0.1187 -0.6597
   35MOL   C23230900   0.384   6.240   3.264  0.5283 -0.8770  0.7350
   35MOL   S23330901   0.632   6.529   3.412 -0.1769 -0.0797 -0.2063
   35MOL   O23430902   0.537   6.626   3.460 -0.2538  0.0902 -0.1341
   35MOL   O23530903   0.706   6.539   3.285  0.4400  0.6002 -0.5396
   35MOL   C23630904   0.743   6.503   3.554  0.4329  0.1224  0.0051
   35MOL   C23730905   0.824   6.387   3.550  0.4270 -0.0722 -1.1733
   35MOL   C23830906   0.906   6.369   3.662 -0.6289  0.5519  0.0388
   35MOL   C23930907   0.923   6.465   3.760 -0.3879 -0.3856  0.0266
   35MOL   C24030908   0.840   6.581   3.763 -0.2563 -0.4300  0.2106
   35MOL   C24130909   0.746   6.595   3.657  0.8972 -0.3096 -0.5222
   35MOL   O24230910   1.010   6.449   3.860 -0.3491  0.9976 -0.2077
   35MOL   C24330911   1.144   6.474   3.834  0.1543  0.0451  0.9863
   35MOL   C24430912   1.226   6.367   3.808 -0.4609  0.2844  0.1166
   35MOL   C24530913   1.362   6.381   3.760 -0.0250  0.6915 -0.0972
   35MOL   C24630914   1.411   6.512   3.738  0.2189 -0.4682  0.1190
   35MOL   C24730915   1.325   6.620   3.768  0.1965  0.3310 -0.6242
   35MOL   C24830916   1.196   6.599   3.817  0.8080 -0.4136 -0.7947
   35MOL   C24930917   1.541   6.535   3.671  1.1964 -0.2430  0.5854
   35MOL   C25030918   1.662   6.493   3.725  0.3248  1.2121  0.0829
   35MOL   C25130919   1.790   6.524   3.674  0.2132  0.0820 -1.4693
   35MOL   C25230920   1.795   6.592   3.548  0.6637  0.2922  0.1797
   35MOL   C25330921   1.676   6.636   3.485 -0.2426  0.1815 -0.2204
   35MOL   C25430922   1.546   6.607   3.546 -0.4396  0.4089  0.0498
   35MOL   O25530923   1.910   6.616   3.487 -0.6957  0.4142  0.0495
   35MOL   H25630924   0.447   6.107   3.582 -0.4174 -0.7669 -0.2606
   35MOL   H25730925   0.597   6.291   3.591 -2.3778 -1.3341  2.3494
   35MOL   H25830926   0.464   6.434   3.200 -3.9398  1.0594 -0.0149
   35MOL   H25930927   0.329   6.217   3.174 -2.9147  1.4771  2.1359
   35MOL   H26030928   0.825   6.310   3.474  0.4252 -1.5399  0.2620
   35MOL   H26130929   0.969   6.281   3.663 -1.7380 -0.2352  1.0946
   35MOL   H26230930   0.847   6.653   3.843  2.4552 -1.0443  0.5583
   35MOL   H26330931   0.684   6.683   3.643  3.1193  1.3041 -0.5055
   35MOL   H26430932   1.195   6.268   3.837 -0.2381  0.3033  0.4238
   35MOL   H26530933   1.436   6.303   3.763 -0.4983  0.2899  0.9427
   35MOL   H26630934   1.352   6.724   3.756  1.3634  0.0881 -0.1482
   35MOL   H26730935   1.141   6.690   3.838  0.0235 -0.5859 -2.0442
   35MOL   H26830936   1.656   6.436   3.817 -0.8461 -0.5259 -1.0192
   35MOL   H26930937   1.882   6.481   3.709 -0.1881  0.8966  0.6642
   35MOL   H27030938   1.685   6.696   3.396  0.0900  0.0217 -0.2965
   35MOL   H27130939   1.453   6.637   3.502 -0.6819 -0.9229 -0.3707
   35MOL   C27230940   1.962   6.521   3.401 -0.1186 -0.5361  0.2902
   35MOL   C27330941   2.032   6.412   3.455  0.9898  0.6007  0.4455
   35MOL   C27430942   2.091   6.318   3.367  0.3064 -0.7137 -0.4718
   35MOL   C27530943   2.085   6.345   3.231 -0.0327  0.7645 -0.5139
   35MOL   C27630944   2.018   6.457   3.180 -0.5618 -0.3126 -0.0116
   35MOL   C27730945   1.956   6.549   3.263  0.0457  0.0566  0.8839
   35MOL   S27830946   2.173   6.232   3.112  0.2184  0.0971  0.5198
   35MOL   O27930947   2.214   6.112   3.183 -0.1969  0.1828  0.0274
   35MOL   O28030948   2.276   6.317   3.046  0.2972 -0.2453 -0.2372
   35MOL   C28130949   2.038   6.181   2.992 -0.2389 -0.0192 -0.3570
   35MOL   C28230950   1.935   6.089   3.036 -0.0005 -0.3875 -0.0441
   35MOL   C28330951   1.833   6.073   2.945 -0.2124  0.8169 -0.8848
   35MOL   C28430952   1.822   6.143   2.821 -0.1982  0.8276 -0.6099
   35MOL   C28530953   1.929   6.225   2.779 -0.2507  0.3734 -0.8277
   35MOL   C28630954   2.037   6.244   2.868  0.2300  0.8285  0.1593
   35MOL   O28730955   1.721   6.125   2.732 -0.0025 -0.1984  0.0349
   35MOL   C28830956   1.632   6.225   2.718 -0.1797  0.7843 -0.3534
   35MOL   C28930957   1.643   6.323   2.627 -0.7486  0.1310  0.2130
   35MOL   C29030958   1.544   6.416   2.613 -0.2943 -0.8068  0.8612
   35MOL   C29130959   1.419   6.400   2.678  0.3958 -0.5920 -0.3260
   35MOL   C29230960   1.410   6.305   2.781  0.0210  0.4958  0.2040
   35MOL   C29330961   1.519   6.218   2.802  0.3523  0.1918  0.8213
   35MOL   C29430962   1.307   6.491   2.642  0.6653  0.1862  0.0674
   35MOL   C29530963   1.169   6.454   2.658 -0.2311  0.8151  0.5367
   35MOL   C29630964   1.055   6.527   2.602 -0.0749  1.1208  1.3672
   35MOL   C29730965   1.085   6.647   2.528 -0.0295  0.2113 -0.5166
   35MOL   C29830966   1.221   6.696   2.531 -0.7231 -0.3049  0.1503
   35MOL   C29930967   1.326   6.612   2.578 -0.4751  0.4352  0.0024
   35MOL   O30030968   0.987   6.729   2.474  0.2260  0.2583 -0.5307
   35MOL   H30130969   2.039   6.392   3.561  3.2603 -2.2758 -0.1784
   35MOL   H30230970   2.136   6.227   3.404 -2.3326 -1.7710  0.2374
   35MOL   H30330971   2.019   6.476   3.073  1.0808 -1.5319 -0.2293
   35MOL   H30430972   1.897   6.632   3.225 -0.0535 -0.0377  0.8311
   35MOL   H30530973   1.943   6.040   3.132 -0.2578 -0.5398 -0.0998
   35MOL   H30630974   1.754   6.002   2.968  0.7085  0.1807  0.3599
   35MOL   H30730975   1.928   6.277   2.685  0.9872  0.2386 -0.9177
   35MOL   H30830976   2.115   6.311   2.836 -0.0089  0.7451 -0.6182
   35MOL   H30930977   1.733   6.332   2.569 -1.7040 -0.9140 -1.4489
   35MOL   H31030978   1.568   6.487   2.535 -1.9413 -0.5850  0.5311
   35MOL   H31130979   1.324   6.289   2.844  1.2375 -2.9925  1.1265
   35MOL   H31230980   1.516   6.137   2.874  0.5219 -2.3843 -1.9424
   35MOL   H31330981   1.143   6.360   2.705  0.0288  1.1757  1.4017
   35MOL   H31430982   0.954   6.489   2.612 -0.4287  1.3176 -1.0948
   35MOL   H31530983   1.249   6.780   2.469 -1.2555  0.0226  0.3495
   35MOL   H31630984   1.426   6.650   2.565 -0.0455 -0.1683  1.3653
   35MOL   C31730985   0.852   6.712   2.502  0.9442  0.6877 -0.7922
   35MOL   C31830986   0.800   6.744   2.631  0.2126  0.0719 -0.7272
   35MOL   C31930987   0.669   6.706   2.664  0.5695  0.4327 -0.3502
   35MOL   C32030988   0.588   6.638   2.571  0.0280 -0.7346  0.3766
   35MOL   C32130989   0.644   6.613   2.443  0.5839  0.1831  0.7153
   35MOL   C32230990   0.774   6.644   2.408 -0.8501  0.3800  0.4210
   35MOL   S32330991   0.425   6.563   2.605 -0.1461  0.3086  0.1733
   35MOL   O32430992   0.359   6.535   2.478 -0.0643  0.6349  0.1421
   35MOL   O32530993   0.349   6.646   2.700  0.2515  0.0724 -0.0841
   35MOL   C32630994   0.457   6.412   2.693 -0.7137  0.0634 -0.1012
   35MOL   C32730995   0.586   6.348   2.691 -0.1375 -0.0472  0.6186
   35MOL   C32830996   0.602   6.235   2.771 -0.3892 -0.7370  0.1707
   35MOL   C32930997   0.498   6.166   2.840 -0.2658 -0.6508 -0.0395
   35MOL   C33030998   0.378   6.234   2.842  0.4998  0.1115 -1.1520
   35MOL   C33130999   0.357   6.356   2.776 -0.0234 -0.9874  0.3416
   35MOL   O33231000   0.522   6.045   2.908  0.1336  0.3677  0.0356
   35MOL   C33331001   0.646   6.011   2.948 -0.4025  0.8837 -0.7521
   35MOL   C33431002   0.726   5.933   2.857  0.3417  0.0537  0.1819
   35MOL   C33531003   0.864   5.913   2.881 -0.5139  0.1935  0.1459
   35MOL   C33631004   0.918   5.962   2.998  0.1858 -0.3204 -0.1479
   35MOL   C33731005   0.839   6.033   3.087 -0.1480  0.1773 -0.0732
   35MOL   C33831006   0.702   6.057   3.071  0.1862  0.0761  0.4519
   35MOL   C33931007   1.059   5.935   3.011 -0.1071  0.1337 -0.7191
   35MOL   C34031008   1.149   5.985   2.914  0.6034 -0.1084  0.0618
   35MOL   C34131009   1.286   5.937   2.916  0.3906 -0.5017 -0.1674
   35MOL   C34231010   1.331   5.854   3.012 -0.2833  0.0984  0.0550
   35MOL   C34331011   1.240   5.788   3.094  0.0631 -0.5560  0.3006
   35MOL   C34431012   1.104   5.834   3.099 -0.3435  0.1947 -0.5159
   35MOL   O34531013   1.462   5.813   2.998 -0.0134 -0.1240  0.1764
   35MOL   H34631014   0.856   6.815   2.692 -0.6710  1.3041 -1.3402
   35MOL   H34731015   0.629   6.726   2.762  1.9877 -1.0550  0.5573
   35MOL   H34831016   0.591   6.550   2.373  0.0537  0.8545  0.5085
   35MOL   H34931017   0.817   6.622   2.312 -2.5495  2.0515 -0.7355
   35MOL   H35031018   0.667   6.406   2.648  1.0918 -2.2670 -0.0991
   35MOL   H35131019   0.703   6.200   2.784  0.6181  1.1697 -2.2784
   35MOL   H35231020   0.290   6.190   2.885 -0.4205  0.9804 -2.1067
   35MOL   H35331021   0.261   6.406   2.772  0.7646  0.3568 -3.2870
   35MOL   H35431022   0.676   5.887   2.773 -0.0242  0.7657  0.0128
   35MOL   H35531023   0.926   5.860   2.810 -2.5640  0.2762 -1.7478
   35MOL   H35631024   0.889   6.069   3.175 -0.9611 -1.6503  1.1725
   35MOL   H35731025   0.644   6.121   3.134  2.2563  2.4750 -0.0106
   35MOL   H35831026   1.100   6.058   2.850 -1.6039  0.0114  1.8439
   35MOL   H35931027   1.355   5.980   2.844  1.6509  0.3247  1.5013
   35MOL   H36031028   1.271   5.708   3.161  0.8538 -0.0424  0.5569
   35MOL   H36131029   1.040   5.784   3.170  0.0103 -1.5051 -1.3555
   35MOL   C36231030   1.491   5.725   2.891  0.6185 -0.3858 -0.8759
   35MOL   C36331031   1.624   5.717   2.846 -0.2399  0.0841  0.0037
   35MOL   C36431032   1.658   5.621   2.743  0.2861 -0.2346 -0.2802
   35MOL   C36531033   1.556   5.539   2.690  0.6355  0.0052 -0.0350
   35MOL   C36631034   1.423   5.536   2.740 -0.2761 -0.3065  0.2084
   35MOL   C36731035   1.394   5.637   2.835 -0.3742 -0.0277 -0.3311
   35MOL   S36831036   1.600   5.433   2.548  0.4484  0.5315 -0.0049
   35MOL   O36931037   1.738   5.463   2.501 -0.1543  0.1564 -0.5332
   35MOL   O37031038   1.483   5.438   2.457 -0.0612  0.1093  0.3983
   35MOL   C37131039   1.604   5.265   2.612  0.0799 -0.1634  0.2963
   35MOL   C37231040   1.722   5.219   2.661  0.5745  0.2456 -0.0164
   35MOL   C37331041   1.727   5.093   2.724  0.8605  0.8302  0.0678
   35MOL   C37431042   1.612   5.012   2.721  0.4900 -0.3783 -0.5437
   35MOL   C37531043   1.491   5.058   2.665 -0.4542  0.3729  0.3500
   35MOL   C37631044   1.485   5.188   2.611 -0.1681 -0.0099 -0.0115
   35MOL   O37731045   1.615   4.887   2.778 -0.1439 -0.9218  0.2277
   35MOL   C37831046   1.554   4.779   2.718 -0.1861  0.2328  0.0175
   35MOL   C37931047   1.571   4.756   2.583  1.1208  0.5293  1.0777
   35MOL   C38031048   1.497   4.652   2.526 -0.8530 -0.0298 -0.0222
   35MOL   C38131049   1.418   4.560   2.611 -0.3716  0.3093 -0.7770
   35MOL   C38231050   1.398   4.594   2.748 -0.0023  0.1607  0.1055
   35MOL   C38331051   1.469   4.703   2.798  0.4730 -0.5893  1.0379
   35MOL   C38431052   1.357   4.441   2.545 -0.2517 -0.0972  0.7965
   35MOL   C38531053   1.237   4.386   2.586  0.6638 -0.5920 -0.0633
   35MOL   C38631054   1.193   4.261   2.532 -0.2015  0.0528  0.3251
   35MOL   C38731055   1.258   4.196   2.427  0.3617 -0.1241 -0.9081
   35MOL   C38831056   1.381   4.253   2.387  0.0143 -0.9260 -0.0158
   35MOL   C38931057   1.432   4.362   2.458 -0.4147  0.3007  0.8551
   35MOL   O39031058   1.217   4.079   2.377 -0.3931 -0.0485  0.4300
   35MOL   H39131059   1.702   5.779   2.888 -0.4320  0.1525  0.2644
   35MOL   H39231060   1.757   5.614   2.702 -0.3387  1.0995 -2.0672
   35MOL   H39331061   1.352   5.476   2.685  0.3496 -0.9555  0.1136
   35MOL   H39431062   1.294   5.637   2.877  1.0198  1.3508  3.1721
   35MOL   H39531063   1.809   5.282   2.649  1.0736 -0.5106 -0.3816
   35MOL   H39631064   1.815   5.049   2.767  0.6581  0.0312 -0.3204
   35MOL   H39731065   1.403   4.997   2.662 -1.3713  1.7154 -0.8230
   35MOL   H39831066   1.394   5.228   2.570  0.0682  1.8266  1.1647
   35MOL   H39931067   1.629   4.817   2.516  2.6266 -1.3353  0.6462
   35MOL   H40031068   1.496   4.641   2.419 -1.1631  0.1115 -0.0341
   35MOL   H40131069   1.349   4.526   2.816 -0.4091 -0.3887 -0.7250
   35MOL   H40231070   1.456   4.736   2.901  0.2264  0.7282  0.5973
   35MOL   H40331071   1.182   4.433   2.666 -0.6892 -3.0633  0.4953
   35MOL   H40431072   1.101   4.215   2.565 -2.1155  1.8252 -2.3203
   35MOL   H40531073   1.448   4.204   2.318  2.3063  1.1731  0.6398
   35MOL   H40631074   1.531   4.398   2.435 -0.6882  1.4130  1.3891
   35MOL   C40731075   1.086   4.061   2.339  0.0734 -0.2473 -0.8632
   35MOL   C40831076   1.010   4.165   2.279 -0.2175 -0.4381  0.1278
   35MOL   C40931077   0.880   4.129   2.227  0.7000  0.1786 -0.3958
   35MOL   C41031078   0.826   3.995   2.241 -0.5959  0.4050 -0.0458
   35MOL   C41131079   0.913   3.897   2.288 -0.0523 -0.4501  0.5831
   35MOL   C41231080   1.044   3.925   2.332  0.1087 -0.2377  0.2416
   35MOL   S41331081   0.661   3.953   2.197  0.0973  0.0626  0.0641
   35MOL   O41431082   0.586   4.074   2.166 -0.5188  0.5125  0.3850
   35MOL   O41531083   0.618   3.878   2.312 -0.0309  0.6948 -0.1504
   35MOL   C41631084   0.680   3.857   2.052 -0.0987  0.3466  0.3000
   35MOL   C41731085   0.797   3.838   1.985 -0.2298  0.5777 -0.4093
   35MOL   C41831086   0.797   3.750   1.869  0.8682 -0.0315  0.0902
   35MOL   C41931087   0.678   3.699   1.818  0.5178 -0.9431  0.3506
   35MOL   C42031088   0.560   3.722   1.888  1.0932 -0.1867  0.3280
   35MOL   C42131089   0.563   3.791   2.010 -0.0271  0.4400 -0.5132
   35MOL   O42231090   0.674   3.622   1.705  0.8087 -0.2028 -0.1031
   35MOL   C42331091   0.703   3.487   1.713 -0.3988  0.3206 -0.2158
   35MOL   C42431092   0.773   3.434   1.603 -0.4069 -0.2191  0.9770
   35MOL   C42531093   0.797   3.292   1.596  0.1588  0.0225  0.9614
   35MOL   C42631094   0.751   3.212   1.703 -0.6262 -0.1022 -0.6117
   35MOL   C42731095   0.694   3.273   1.818  0.1953 -0.0027 -0.0067
   35MOL   C42831096   0.671   3.409   1.824 -0.4744  0.2197  0.4412
   35MOL   C42931097   0.778   3.069   1.698 -0.1408  0.3611 -0.0305
   35MOL   C43031098   0.806   3.004   1.574 -0.2810  0.9157 -0.0565
   35MOL   C43131099   0.839   2.868   1.570  0.0256 -0.7879  0.2310
   35MOL   C43231100   0.839   2.789   1.684 -0.4561  0.0657 -0.3242
   35MOL   C43331101   0.799   2.852   1.805  0.0363  0.3018 -0.1658
   35MOL   C43431102   0.767   2.987   1.810 -0.4323 -0.0239  0.4439
   35MOL   O43531103   0.890   2.661   1.675 -0.3782 -0.1115 -0.2067
   35MOL   H43631104   1.047   4.266   2.272 -1.4393  0.0381  0.3327
   35MOL   H43731105   0.819   4.208   2.185  1.9562  0.1855 -2.2259
   35MOL   H43831106   0.872   3.799   2.271  1.1268 -1.2015  2.0481
   35MOL   H43931107   1.105   3.842   2.366 -1.5258 -1.0870  1.1784
   35MOL   H44031108   0.885   3.897   2.007  0.4196 -0.7555  0.6193
   35MOL   H44131109   0.883   3.722   1.810  0.3172 -0.6497 -0.4330
   35MOL   H44231110   0.472   3.672   1.850  1.0986 -0.3374  0.5176
   35MOL   H44331111   0.473   3.798   2.069  0.2391 -0.7020  0.0280
   35MOL   H44431112   0.815   3.499   1.528  0.3247 -0.8236  0.8516
   35MOL   H44531113   0.857   3.251   1.517 -0.0050 -1.1817  1.4627
   35MOL   H44631114   0.664   3.211   1.901 -2.7886 -0.4376 -1.3439
   35MOL   H44731115   0.633   3.461   1.911 -2.5158  0.1855 -0.4029
   35MOL   H44831116   0.818   3.054   1.479 -0.1156  0.3934 -0.3108
   35MOL   H44931117   0.872   2.834   1.473 -1.3099 -2.3982  0.3068
   35MOL   H45031118   0.794   2.804   1.902 -2.0181  0.4728 -0.1651
   35MOL   H45131119   0.739   3.020   1.909 -0.8855 -0.5507  0.4947
   35MOL   C45231120   0.837   2.554   1.743 -0.6203  0.1817 -0.1850
   35MOL   C45331121   0.700   2.509   1.727 -0.7044  0.1136  0.3407
   35MOL   C45431122   0.649   2.406   1.812 -0.2068 -0.5842  0.1333
   35MOL   C45531123   0.733   2.347   1.911  0.3664  0.0574  0.4334
   35MOL   C45631124   0.870   2.377   1.914 -0.1510 -0.2966  0.6919
   35MOL   C45731125   0.916   2.485   1.834 -0.0649 -0.0957  0.5167
   35MOL   S45831126   0.670   2.216   2.021 -0.2180 -0.2538 -0.4269
   35MOL   O45931127   0.732   2.239   2.157  0.2888  0.1104 -0.2292
   35MOL   O46031128   0.698   2.092   1.946 -1.3949 -0.2550 -0.3411
   35MOL   C46131129   0.495   2.236   2.029 -0.0854  0.5143 -0.0329
   35MOL   C46231130   0.443   2.296   2.144 -0.4783 -0.2094  0.4028
   35MOL   C46331131   0.306   2.331   2.154 -0.6669  0.1047  0.1740
   35MOL   C46431132   0.218   2.296   2.046  0.0746  0.0030  0.4187
   35MOL   C46531133   0.270   2.230   1.934  0.1906  0.3160 -0.2316
   35MOL   C46631134   0.409   2.200   1.923  0.2712  0.3839 -0.4185
   35MOL   O46731135   0.092   2.344   2.048 -0.4347 -0.1664 -0.4598
   35MOL   C46831136   8.352   2.283   1.980 -0.4324  0.2507 -0.7219
   35MOL   C46931137   8.317   2.325   1.851  0.1837  0.2767  1.0844
   35MOL   C47031138   8.193   2.282   1.794  0.4665  0.1757  0.3211
   35MOL   C47131139   8.103   2.194   1.859 -0.0306  0.0667 -0.1907
   35MOL   C47231140   8.150   2.144   1.986 -0.7648  0.1451 -0.1314
   35MOL   C47331141   8.271   2.184   2.047 -0.1139  0.2834 -0.6293
   35MOL   C47431142   7.973   2.158   1.802 -0.5506  0.8366 -0.1433
   35MOL   C47531143   7.958   2.110   1.672  0.4769  0.3543 -0.6391
   35MOL   C47631144   7.833   2.069   1.622 -0.0168 -0.1765 -0.0842
   35MOL   C47731145   7.717   2.084   1.704  0.4695  0.4118  0.1251
   35MOL   C47831146   7.733   2.133   1.834 -0.1450 -0.6530 -0.4272
   35MOL   C47931147   7.858   2.177   1.884 -0.4573  0.5502  0.5285
   35MOL   O48031148   7.605   2.016   1.668 -0.4823 -0.0297 -0.1197
   35MOL   H48131149   0.632   2.555   1.657 -0.4163  0.4816  0.2958
   35MOL   H48231150   0.544   2.385   1.794 -0.5867  0.6650  0.8570
   35MOL   H48331151   0.929   2.332   1.993 -1.0136  3.0809  3.4042
   35MOL   H48431152   1.020   2.513   1.848  1.1476 -3.2374 -1.6021
   35MOL   H48531153   0.511   2.325   2.222  0.3245 -1.8063  0.3183
   35MOL   H48631154   0.263   2.393   2.231 -2.3143 -1.3906  0.5012
   35MOL   H48731155   0.198   2.213   1.856 -0.7762  1.5889  0.3794
   35MOL   H48831156   0.456   2.147   1.841  1.7512  0.7974  0.1412
   35MOL   H48931157   0.012   2.400   1.804  0.0498 -0.6583 -0.5978
   35MOL   H49031158   8.167   2.318   1.696  0.6517 -2.3880 -0.7106
   35MOL   H49131159   8.096   2.069   2.042  2.7696 -1.1177  1.7930
   35MOL   H49231160   8.292   2.132   2.140 -0.4700  0.1312 -0.6358
   35MOL   H49331161   8.037   2.091   1.601  1.4632 -0.3759  0.6388
   35MOL   H49431162   7.829   2.023   1.525 -0.4491 -3.1135  1.2848
   35MOL   H49531163   7.643   2.147   1.892 -0.4744  0.5554 -1.2122
   35MOL   H49631164   7.865   2.225   1.981 -1.2141 -1.1714  1.4416
   35MOL   C49731165   7.488   2.085   1.653 -0.2310 -0.6121 -0.8973
   35MOL   C49831166   7.377   2.058   1.735  0.1179  0.6628  0.6373
   35MOL   C49931167   7.254   2.123   1.718  0.4873  0.5771  0.7884
   35MOL   C50031168   7.241   2.214   1.612  0.2286 -0.1641  0.8783
   35MOL   C50131169   7.351   2.242   1.527  0.2318  0.2309 -0.1612
   35MOL   C50231170   7.472   2.181   1.548 -0.1973  0.0635 -0.4242
   35MOL   S50331171   7.084   2.291   1.584  0.0688  0.2209 -0.2264
   35MOL   O50431172   7.103   2.409   1.500  0.3573 -0.2596 -0.9064
   35MOL   O50531173   7.017   2.302   1.715  0.6243  0.1572 -0.2156
   35MOL   C50631174   6.998   2.171   1.481  0.4645  0.8302 -0.5603
   35MOL   C50731175   7.058   2.090   1.385  0.9857  0.3878 -0.1834
   35MOL   C50831176   6.976   2.009   1.307  0.1464  0.0701  0.2863
   35MOL   C50931177   6.836   2.026   1.307 -1.1786  0.5926 -0.0586
   35MOL   C51031178   6.771   2.109   1.396 -0.3085 -0.2582 -0.0914
   35MOL   C51131179   6.855   2.173   1.490 -0.4784 -0.2960 -0.0497
   35MOL   O51231180   6.763   1.968   1.210 -0.2223  0.2392  0.3884
   35MOL   C51331181   6.746   1.830   1.202  0.2294 -0.0747 -0.0887
   35MOL   C51431182   6.644   1.767   1.274 -0.0729  0.5112 -0.1995
   35MOL   C51531183   6.615   1.635   1.256  0.7553 -0.1933  0.5354
   35MOL   C51631184   6.698   1.552   1.172 -0.2992  0.3840 -0.6092
   35MOL   C51731185   6.810   1.608   1.105 -0.5133  0.1448 -0.4661
   35MOL   C51831186   6.830   1.751   1.117 -0.0097  0.0890  0.1526
   35MOL   C51931187   6.689   1.399   1.180  0.2767 -0.1222  0.1418
   35MOL   C52031188   6.652   1.345   1.305 -0.1696 -0.2341 -0.2041
   35MOL   C52131189   6.629   1.208   1.321 -0.5187 -0.1536 -0.1990
   35MOL   C52231190   6.659   1.125   1.211 -0.0047  0.4163 -0.2841
   35MOL   C52331191   6.705   1.174   1.089 -0.6615  0.0837  0.5791
   35MOL   C52431192   6.710   1.312   1.071  0.4194  0.2975 -0.3032
   35MOL   O52531193   6.650   0.987   1.235 -0.1371  0.6499  0.5685
   35MOL   H52631194   7.380   1.977   1.806  0.4926  1.2102  1.2573
   35MOL   H52731195   7.172   2.102   1.784 -0.9300 -0.4183 -1.2389
   35MOL   H52831196   7.329   2.316   1.452  0.7860  3.0261  2.3347
   35MOL   H52931197   7.560   2.203   1.488  0.1399  0.5557  0.2463
   35MOL   H53031198   7.165   2.078   1.394  0.9433  1.5319  2.5264
   35MOL   H53131199   7.020   1.937   1.239 -0.4433 -1.0591  1.0999
   35MOL   H53231200   6.665   2.128   1.397 -0.3202 -0.3814  0.9190
   35MOL   H53331201   6.805   2.232   1.565 -1.1193  0.0262 -0.7187
   35MOL   H53431202   6.582   1.816   1.348  0.0328  0.3425 -0.0003
   35MOL   H53531203   6.532   1.608   1.319  0.8293  0.0646  0.7414
   35MOL   H53631204   6.880   1.543   1.056 -1.1195 -2.1034  1.5912
   35MOL   H53731205   6.922   1.788   1.074  0.3176  0.4849  1.1666
   35MOL   H53831206   6.636   1.407   1.392  1.8293  0.3555 -0.2346
   35MOL   H53931207   6.585   1.170   1.412  0.5722  0.7523  0.7092
   35MOL   H54031208   6.721   1.102   1.010  1.7328 -0.8420  1.8667
   35MOL   H54131209   6.734   1.355   0.975 -0.2164 -1.1667 -1.1377
   35MOL   C54231210   6.560   0.900   1.178  0.9337  0.1831  0.1392
   35MOL   C54331211   6.540   0.770   1.226  0.2612  0.0923  0.1761
   35MOL   C54431212   6.435   0.694   1.175 -0.1854  0.1191  0.0480
   35MOL   C54531213   6.353   0.745   1.070  0.3942  0.4562  0.5182
   35MOL   C54631214   6.368   0.873   1.017 -0.4218  0.7016 -1.2625
   35MOL   C54731215   6.472   0.945   1.080  0.3752  0.4516 -0.2806
   35MOL   S54831216   6.229   0.631   1.001 -0.0442 -0.3327 -0.2300
   35MOL   O54931217   6.109   0.707   0.964  0.6738 -0.2722 -0.3678
   35MOL   O55031218   6.214   0.520   1.095  0.1058 -0.0578 -0.2534
   35MOL   C55131219   6.288   0.567   0.842 -0.2386  0.2958  0.1993
   35MOL   C55231220   6.201   0.529   0.737  0.2498  0.0969 -0.2738
   35MOL   C55331221   6.252   0.492   0.612  0.3220 -0.1289 -0.3344
   35MOL   C55431222   6.391   0.497   0.598  0.4725 -0.0929 -0.4681
   35MOL   C55531223   6.477   0.524   0.706  0.5932  0.0087  0.2018
   35MOL   C55631224   6.425   0.554   0.831 -0.1275 -0.2385  0.9846
   35MOL   O55731225   6.465   0.488   0.477 -0.0652 -0.5687 -0.0716
   35MOL   C55831226   6.524   0.598   0.427 -0.2589  0.7006  0.5014
   35MOL   C55931227   6.663   0.609   0.434 -0.2081  0.1471  0.0230
   35MOL   C56031228   6.725   0.720   0.374 -0.1935 -0.6996 -0.1380
   35MOL   C56131229   6.650   0.836   0.340  0.0101 -0.0073  0.4215
   35MOL   C56231230   6.503   0.825   0.344 -0.2654  0.5308 -0.8403
   35MOL   C56331231   6.444   0.704   0.383  0.2430  0.0149  0.6551
   35MOL   C56431232   6.719   0.957   0.287  0.2678 -0.4974 -0.1751
   35MOL   C56531233   6.857   0.978   0.309  0.0393  0.4615 -0.0575
   35MOL   C56631234   6.915   1.097   0.254 -0.6377  0.1276  0.5089
   35MOL   C56731235   6.839   1.191   0.185  0.1020 -1.1419 -0.0583
   35MOL   C56831236   6.701   1.174   0.174  0.2497  0.3510 -0.0898
   35MOL   C56931237   6.640   1.058   0.221 -0.5924  0.6913 -0.0120
   35MOL   O57031238   6.886   1.310   0.146 -0.5285  0.0651  0.2107
   35MOL   H57131239   6.596   0.744   1.314 -0.4786 -1.2164  0.2730
   35MOL   H57231240   6.412   0.598   1.218 -1.8448 -0.1416 -1.3222
   35MOL   H57331241   6.315   0.915   0.933 -2.4708  0.1029 -0.2874
   35MOL   H57431242   6.478   1.049   1.051 -1.3686  0.6815  0.1328
   35MOL   H57531243   6.094   0.527   0.749  0.1224 -0.6676 -1.4631
   35MOL   H57631244   6.191   0.461   0.529 -1.5327 -3.6122  2.2237
   35MOL   H57731245   6.583   0.511   0.686  1.1213  1.2409  2.0829
   35MOL   H57831246   6.494   0.572   0.913  0.3472  0.1245  0.5062
   35MOL   H57931247   6.711   0.530   0.489  0.5255  0.9108  0.4883
   35MOL   H58031248   6.833   0.724   0.385  0.0698 -2.5125 -1.7631
   35MOL   H58131249   6.440   0.905   0.308 -2.9730 -0.8368  0.7216
   35MOL   H58231250   6.336   0.700   0.383  0.2089  0.4302 -1.2952
   35MOL   H58331251   6.922   0.909   0.361 -0.8539 -0.2622  0.1068
   35MOL   H58431252   7.019   1.115   0.274 -0.8585  0.7043  1.1534
   35MOL   H58531253   6.649   1.246   0.112 -0.8261 -0.7019 -0.4165
   35MOL   H58631254   6.533   1.045   0.213 -0.2799 -0.3031 -3.0512
   35MOL   C58731255   6.948   1.320   0.024  0.0765  0.6427  0.3606
   35MOL   C58831256   6.893   1.392   8.276 -0.1439 -0.5420 -0.7966
   35MOL   C58931257   6.964   1.408   8.161 -0.2260  0.8740 -0.0350
   35MOL   C59031258   7.093   1.356   8.141 -0.3718  1.0111 -0.9122
   35MOL   C59131259   7.149   1.293   8.252 -0.5111  0.4421 -0.5030
   35MOL   C59231260   7.081   1.271   0.006 -0.2591 -0.5594 -0.1209
   35MOL   S59331261   7.194   1.396   7.998 -0.1885 -0.3281  0.3343
   35MOL   O59431262   7.334   1.405   8.037  0.5850  0.1669  0.1876
   35MOL   O59531263   7.140   1.514   7.926 -0.8196  0.3456 -0.1374
   35MOL   C59631264   7.183   1.269   7.875  0.2474  0.5585  0.4074
   35MOL   C59731265   7.068   1.191   7.851  0.1944  0.3320 -0.1669
   35MOL   C59831266   7.063   1.108   7.734  0.8561 -1.0258  0.0061
   35MOL   C59931267   7.176   1.086   7.655 -0.6022 -0.4523 -0.4564
   35MOL   C60031268   7.285   1.171   7.672  0.6402  0.0788  0.4439
   35MOL   C60131269   7.290   1.261   7.783  0.2584 -0.7523  0.6194
   35MOL   O60231270   7.173   0.984   7.564 -0.0633 -0.1506 -0.2434
   35MOL   C60331271   7.249   0.999   7.453  0.0727 -0.0052 -0.0889
   35MOL   C60431272   7.382   0.949   7.450  0.1616 -0.0196  0.2731
   35MOL   C60531273   7.473   0.990   7.347 -0.0216 -0.7079 -0.1936
   35MOL   C60631274   7.419   1.062   7.238 -0.1485  0.0487 -0.1628
   35MOL   C60731275   7.283   1.093   7.230  0.5518 -0.1045 -0.4251
   35MOL   C60831276   7.195   1.054   7.333 -0.2642  0.0026 -0.4148
   35MOL   C60931277   7.515   1.110   7.134  0.2239 -0.7143 -0.3758
   35MOL   C61031278   7.634   1.175   7.171  0.2748  0.4147 -0.4126
   35MOL   C61131279   7.716   1.235   7.072 -0.5545 -0.7026 -0.2928
   35MOL   C61231280   7.687   1.221   6.934 -0.4623  0.6926  0.0415
   35MOL   C61331281   7.575   1.148   6.898 -0.3049  0.2940  0.0562
   35MOL   C61431282   7.480   1.105   6.997  0.1412 -0.2962  0.4888
   35MOL   O61531283   7.768   1.279   6.835  0.5633  0.2307  0.0166
   35MOL   H61631284   6.796   1.439   8.286  0.1819  0.0752 -0.4811
   35MOL   H61731285   6.919   1.457   8.076 -0.3055  0.3809 -0.2776
   35MOL   H61831286   7.254   1.265   8.252 -0.6894 -0.2675  0.5748
   35MOL   H61931287   7.130   1.233   0.095  0.7538  0.8114 -0.0847
   35MOL   H62031288   6.981   1.199   7.916 -1.0578 -2.4983 -1.4302
   35MOL   H62131289   6.980   1.041   7.723 -0.2736  0.5272 -1.1938
   35MOL   H62231290   7.372   1.164   7.608  0.3528 -0.2324  0.0840
   35MOL   H62331291   7.384   1.311   7.803  0.4650 -0.0117 -2.0148
   35MOL   H62431292   7.419   0.891   7.533 -1.6669  0.6852  1.6380
   35MOL   H62531293   7.577   0.963   7.355 -0.3271 -1.1095  3.1388
   35MOL   H62631294   7.232   1.126   7.141 -1.1230 -0.3672  0.4078
   35MOL   H62731295   7.090   1.079   7.330 -1.0766 -3.1148  0.4251
   35MOL   H62831296   7.651   1.194   7.276 -0.8968 -1.9978  0.2507
   35MOL   H62931297   7.801   1.291   7.107 -0.0238 -1.1115 -0.8945
   35MOL   H63031298   7.549   1.130   6.795 -1.3493 -0.5182  0.4469
   35MOL   H63131299   7.390   1.057   6.963 -0.8247  2.1118 -0.5131
   35MOL   C63231300   7.776   1.417   6.826  0.3362 -0.1638 -0.2772
   35MOL   C63331301   7.897   1.483   6.853  0.1737  0.3944  0.0605
   35MOL   C63431302   7.896   1.625   6.856  0.5740 -0.7520 -0.6159
   35MOL   C63531303   7.786   1.705   6.823  0.7495 -0.7976 -0.2540
   35MOL   C63631304   7.664   1.638   6.792 -0.0362 -0.4925 -0.0207
   35MOL   C63731305   7.661   1.492   6.791 -0.3039  0.4416 -0.0956
   35MOL   S63831306   7.785   1.883   6.816 -0.1143 -0.0609  0.2013
   35MOL   O63931307   7.776   1.912   6.672 -0.3774 -0.6709 -0.1926
   35MOL   O64031308   7.908   1.922   6.882  0.2534 -0.4775 -0.6085
   35MOL   C64131309   7.641   1.948   6.897 -0.1102 -0.4553  0.1989
   35MOL   C64231310   7.652   2.004   7.027 -0.5772  0.0150 -0.5957
   35MOL   C64331311   7.540   2.072   7.088  0.2054  0.0555  0.1469
   35MOL   C64431312   7.416   2.080   7.019 -0.7395 -1.0916  0.5016
   35MOL   C64531313   7.402   2.023   6.890  0.2185 -0.9420 -0.2460
   35MOL   C64631314   7.513   1.958   6.828 -0.1290  0.3594 -0.3201
   35MOL   O64731315   7.328   2.163   7.065  0.5919  0.4825 -0.1678
   35MOL   C64831316   7.221   2.104   7.124  0.4662  0.1347 -0.0182
   35MOL   C64931317   7.228   2.042   7.249  0.0335 -0.2105 -0.1210
   35MOL   C65031318   7.120   1.973   7.312  0.0040  0.4966  0.0421
   35MOL   C65131319   6.992   1.980   7.260 -0.1950 -0.2650 -0.1514
   35MOL   C65231320   6.980   2.050   7.141 -0.5357  0.0969  0.4596
   35MOL   C65331321   7.091   2.112   7.074  0.4088  0.6336 -0.4323
   35MOL   C65431322   6.881   1.904   7.323 -0.3886  0.1994  0.4209
   35MOL   C65531323   6.848   1.919   7.458  0.2984  1.1909 -0.3668
   35MOL   C65631324   6.749   1.847   7.521  0.6114  0.4652 -0.5084
   35MOL   C65731325   6.673   1.752   7.448 -0.5176  0.6944  0.0502
   35MOL   C65831326   6.699   1.737   7.306  0.4116 -0.6726  0.5920
   35MOL   C65931327   6.792   1.828   7.247 -0.2727 -0.4911  0.0516
   35MOL   O66031328   6.583   1.666   7.503  0.2298  0.1364  0.3894
   35MOL   H66131329   7.992   1.434   6.867  0.0603  1.0764  3.5781
   35MOL   H66231330   7.990   1.678   6.864  0.4263 -0.0250 -3.1593
   35MOL   H66331331   7.576   1.696   6.767  1.1411  1.2653 -0.2369
   35MOL   H66431332   7.575   1.429   6.774  1.3032 -1.7492 -0.3836
   35MOL   H66531333   7.749   1.988   7.073  0.3620  2.0272 -1.7892
   35MOL   H66631334   7.554   2.111   7.188  0.6961  0.8068 -0.2106
   35MOL   H66731335   7.307   2.027   6.838 -0.8650 -1.2534  1.6375
   35MOL   H66831336   7.490   1.919   6.730  2.3599  0.6299 -1.0492
   35MOL   H66931337   7.325   2.032   7.296  0.7598  1.3867 -1.2257
   35MOL   H67031338   7.131   1.913   7.401  1.8281 -2.0917 -1.8772
   35MOL   H67131339   6.884   2.065   7.093  0.6907  2.6979 -1.3183
   35MOL   H67231340   7.066   2.166   6.984 -0.5203  1.1886  0.1447
   35MOL   H67331341   6.908   1.979   7.526 -0.1446 -0.8155  1.8821
   35MOL   H67431342   6.727   1.862   7.626 -1.4470 -0.7664 -0.7220
   35MOL   H67531343   6.645   1.666   7.245  0.3122 -0.7983  0.8250
   35MOL   H67631344   6.815   1.814   7.142  1.1345  0.1997  0.2497
   35MOL   C67731345   6.451   1.705   7.492 -0.9899  0.3323 -0.1656
   35MOL   C67831346   6.387   1.677   7.375  0.0806  0.2298  0.5772
   35MOL   C67931347   6.248   1.674   7.374 -0.3519  0.0283 -0.2809
   35MOL   C68031348   6.181   1.745   7.474 -0.3074 -0.4169 -0.4638
   35MOL   C68131349   6.251   1.799   7.583 -0.2983  0.4360  0.1867
   35MOL   C68231350   6.387   1.772   7.597  0.8216 -0.5031 -0.0122
   35MOL   S68331351   5.999   1.766   7.461  0.2893  0.0147 -0.3371
   35MOL   O68431352   5.961   1.787   7.323 -0.1552  0.1420  0.5165
   35MOL   O68531353   5.947   1.861   7.567 -0.0125  0.3816 -0.0309
   35MOL   C68631354   5.938   1.600   7.506  0.4011  0.9333  0.6836
   35MOL   C68731355   5.869   1.586   7.628  1.0417 -0.6489 -0.2383
   35MOL   C68831356   5.820   1.455   7.664  0.3594  0.3308 -0.4694
   35MOL   C68931357   5.840   1.343   7.583 -0.0277 -0.3971 -0.4278
   35MOL   C69031358   5.915   1.360   7.463  0.7094 -0.0620 -0.1066
   35MOL   C69131359   5.956   1.487   7.428 -0.3091  0.7673  0.0144
   35MOL   O69231360   5.796   1.223   7.626 -0.5098 -0.3965  0.5005
   35MOL   C69331361   5.703   1.161   7.545 -0.1381 -0.9449 -0.3457
   35MOL   C69431362   5.735   1.034   7.494  0.0390  0.3247  0.3534
   35MOL   C69531363   5.651   0.977   7.404  0.2252  0.1751  0.2330
   35MOL   C69631364   5.517   1.025   7.375  0.6653 -0.2135  0.2818
   35MOL   C69731365   5.479   1.139   7.447  0.3295  0.3748 -0.0509
   35MOL   C69831366   5.567   1.202   7.537  0.6268 -0.6086  0.0788
   35MOL   C69931367   5.421   0.953   7.291 -0.7630  0.5786 -0.2933
   35MOL   C70031368   5.281   0.952   7.313 -0.7314 -0.0856 -0.0605
   35MOL   C70131369   5.191   0.876   7.239  0.0001  0.2082 -0.0537
   35MOL   C70231370   5.245   0.787   7.142 -0.1294  0.1629  0.1438
   35MOL   C70331371   5.382   0.793   7.105  0.0156  0.2021 -0.7223
   35MOL   C70431372   5.467   0.872   7.185  0.7525 -0.0399  0.3805
   35MOL   O70531373   5.170   0.698   7.077 -0.1266  0.1325 -0.1488
   35MOL   H70631374   6.438   1.626   7.294 -1.5642  1.0865 -1.0238
   35MOL   H70731375   6.192   1.632   7.292  0.3633  0.4939 -1.0218
   35MOL   H70831376   6.200   1.851   7.663  0.0306 -0.1951  0.8139
   35MOL   H70931377   6.446   1.799   7.684 -0.9800 -0.9289  1.3844
   35MOL   H71031378   5.841   1.664   7.697  0.4536 -0.5069 -0.6295
   35MOL   H71131379   5.763   1.438   7.754  1.1624  0.6252  0.0963
   35MOL   H71231380   5.930   1.267   7.411 -1.9052 -0.5976  0.0114
   35MOL   H71331381   6.008   1.494   7.334  0.0908  0.3501  0.2015
   35MOL   H71431382   5.835   1.000   7.514 -0.5631 -0.0631  3.0371
   35MOL   H71531383   5.686   0.891   7.348 -0.9553 -0.4498  0.4360
   35MOL   H71631384   5.384   1.189   7.440 -0.1096 -0.6186 -1.3459
   35MOL   H71731385   5.540   1.296   7.581  0.6130 -0.6773  0.2156
   35MOL   H71831386   5.243   1.022   7.385  1.1752  1.8496 -0.8665
   35MOL   H71931387   5.087   0.886   7.265  0.7775  1.4692  2.7559
   35MOL   H72031388   5.425   0.732   7.026 -0.3471 -1.4059  0.3023
   35MOL   H72131389   5.573   0.856   7.170  0.3411 -1.0733 -1.5602
   35MOL   C72231390   5.060   0.658   7.154  0.5990 -0.7194 -0.3885
   35MOL   C72331391   4.929   0.690   7.107  0.2529 -0.1897  0.3450
   35MOL   C72431392   4.817   0.644   7.183  0.0047 -0.5195 -0.4587
   35MOL   C72531393   4.825   0.573   7.304  0.1819  1.0178  0.3803
   35MOL   C72631394   4.958   0.546   7.358 -0.2985  0.3035 -0.3135
   35MOL   C72731395   5.070   0.585   7.276 -0.0078  0.0216  0.8230
   35MOL   S72831396   4.680   0.520   7.380  0.0529  0.4433  0.0765
   35MOL   O72931397   4.619   0.434   7.283  0.2529  0.3439 -0.1328
   35MOL   O73031398   4.618   0.643   7.425 -0.0156  0.3089 -0.6985
   35MOL   C73131399   4.734   0.426   7.516  0.0685  0.1839  0.1728
   35MOL   C73231400   4.777   0.293   7.505 -0.8866 -0.1164 -0.5704
   35MOL   C73331401   4.820   0.215   7.614 -0.1810 -0.4677  0.1608
   35MOL   C73431402   4.818   0.282   7.740  0.5089 -0.5178  0.2477
   35MOL   C73531403   4.777   0.421   7.751 -0.1517 -0.5134  0.0363
   35MOL   C73631404   4.728   0.491   7.636  0.3047 -0.3798  0.3343
   35MOL   O73731405   4.870   0.215   7.847 -0.0763  0.0858 -0.1857
   35MOL   C73831406   4.969   0.279   7.911  0.2459 -0.1083 -0.3541
   35MOL   C73931407   5.092   0.288   7.852  0.0288  0.0224  0.8432
   35MOL   C74031408   5.189   0.361   7.922  0.2933  0.2550 -0.4360
   35MOL   C74131409   5.164   0.430   8.047 -0.5791  0.1717 -0.0650
   35MOL   C74231410   5.042   0.401   8.107 -0.2026  0.6818  0.0772
   35MOL   C74331411   4.947   0.324   8.045 -0.0074 -0.7244 -0.0086
   35MOL   C74431412   5.254   0.525   8.105 -0.5774  0.0122 -0.2793
   35MOL   C74531413   5.293   0.640   8.028  0.2554 -0.4178  0.3386
   35MOL   C74631414   5.390   0.723   8.091  0.4151 -0.2911 -0.0409
   35MOL   C74731415   5.444   0.694   8.221  0.6721 -0.4154  0.3890
   35MOL   C74831416   5.390   0.584   8.289 -0.2009 -0.4392  0.6365
   35MOL   C74931417   5.296   0.499   8.238 -0.5465 -0.7134 -0.0539
   35MOL   O75031418   5.539   0.777   8.273  0.3196  0.6217  0.0320
   35MOL   H75131419   4.913   0.752   7.020 -0.5573 -1.9536 -0.7674
   35MOL   H75231420   4.718   0.671   7.149 -0.2191 -0.1013  0.5023
   35MOL   H75331421   4.976   0.487   7.446  0.1897 -0.4205 -0.8879
   35MOL   H75431422   5.170   0.569   7.312  0.5525  3.7557  1.1383
   35MOL   H75531423   4.782   0.251   7.405 -1.2875 -0.6252 -0.3769
   35MOL   H75631424   4.858   0.117   7.587  0.4528  0.2053 -1.4696
   35MOL   H75731425   4.771   0.469   7.848  1.2584 -1.4707  0.6082
   35MOL   H75831426   4.679   0.587   7.639  0.7709 -0.1671  1.6126
   35MOL   H75931427   5.111   0.238   7.758  1.9661 -0.1358  1.2844
   35MOL   H76031428   5.285   0.381   7.878  0.7346 -0.2209  0.3126
   35MOL   H76131429   5.016   0.435   8.207  0.9866 -0.4077  0.7787
   35MOL   H76231430   4.852   0.305   8.092 -0.0596 -2.6718 -0.8862
   35MOL   H76331431   5.249   0.662   7.932 -1.0270  0.1409  1.0479
   35MOL   H76431432   5.417   0.809   8.031  0.1619 -0.3719 -0.2744
   35MOL   H76531433   5.424   0.556   0.022 -0.2355  0.2347  0.8384
   35MOL   H76631434   5.272   0.413   8.300  2.0003  0.2219  2.3509
   35MOL   C76731435   5.668   0.735   8.296  0.0701  0.8769  0.1968
   35MOL   C76831436   5.751   0.817   0.013  0.0599 -0.4219  0.9088
   35MOL   C76931437   5.879   0.758   0.047 -0.1563  0.5686 -0.0427
   35MOL   C77031438   5.921   0.634   0.001  0.1274  0.7044  0.2343
   35MOL   C77131439   5.840   0.562   8.283  0.5273  0.6421 -0.4353
   35MOL   C77231440   5.714   0.614   8.238  0.5862  0.1252  0.0039
   35MOL   S77331441   6.086   0.562   0.042  0.0674 -0.0938  0.1831
   35MOL   O77431442   6.093   0.434   8.330 -0.5177 -0.1607  0.1659
   35MOL   O77531443   6.114   0.566   0.189 -0.0891  0.1892  0.8252
   35MOL   C77631444   6.206   0.676   8.318  0.1879 -0.2604 -0.5178
   35MOL   C77731445   6.336   0.710   0.012  0.3385 -0.8488  0.1496
   35MOL   C77831446   6.424   0.802   8.308  0.3025 -0.1013 -0.2084
   35MOL   C77931447   6.384   0.851   8.190  0.4435  0.0101  0.2877
   35MOL   C78031448   6.260   0.825   8.141  0.2304 -0.4647  0.5148
   35MOL   C78131449   6.166   0.743   8.204  0.3007  0.3553 -0.1225
   35MOL   O78231450   6.461   0.936   8.113  0.0057  0.1261 -0.1151
   35MOL   C78331451   6.597   0.927   8.125 -1.0880 -0.6346  0.6240
   35MOL   C78431452   6.680   0.829   8.064  0.0037 -0.9018  0.1322
   35MOL   C78531453   6.820   0.840   8.074  0.3324  0.3423  0.5095
   35MOL   C78631454   6.877   0.942   8.156 -0.1725  0.0950 -0.0662
   35MOL   C78731455   6.793   1.034   8.220  0.8802 -0.1058 -0.5833
   35MOL   C78831456   6.657   1.030   8.204  0.2496  0.3544  0.2689
   35MOL   C78931457   7.022   0.949   8.174 -0.1297  0.6095  0.4674
   35MOL   C79031458   7.074   0.958   8.311 -0.1753 -0.2661  0.1691
   35MOL   C79131459   7.211   0.948   8.335  0.1441 -0.1843  0.8128
   35MOL   C79231460   7.300   0.950   8.222  0.6736 -0.2080 -0.4795
   35MOL   C79331461   7.249   0.953   8.095 -0.2578  0.2421 -0.5155
   35MOL   C79431462   7.110   0.950   8.068  0.1081 -0.0398  0.1181
   35MOL   O79531463   7.436   0.958   8.255  0.1900 -0.0850  0.2572
   35MOL   H79631464   5.713   0.910   0.055 -0.4929  0.5169 -1.6110
   35MOL   H79731465   5.931   0.822   0.117  0.9801  1.7286 -1.8887
   35MOL   H79831466   5.884   0.473   8.242  0.5241  1.0412 -1.3144
   35MOL   H79931467   5.649   0.555   8.175 -2.1556  1.3169  1.6295
   35MOL   H80031468   6.372   0.671   0.106  1.3913  1.7783  0.8883
   35MOL   H80131469   6.521   0.832   8.346  0.3249  0.0303 -0.3726
   35MOL   H80231470   6.235   0.874   8.048  1.8038  0.5610  0.6276
   35MOL   H80331471   6.069   0.727   8.158  1.6089 -2.8873 -1.9600
   35MOL   H80431472   6.623   0.760   8.003 -1.3527  1.7256 -1.6879
   35MOL   H80531473   6.886   0.777   8.016  0.1242 -0.5222  1.1825
   35MOL   H80631474   6.832   1.116   8.279 -0.1767  0.6588 -0.9422
   35MOL   H80731475   6.594   1.106   8.246 -0.0109  0.0597  0.4142
   35MOL   H80831476   7.001   0.959   0.025  1.3224 -0.4242  1.5642
   35MOL   H80931477   7.238   0.955   0.074 -0.3691  3.1984  0.7925
   35MOL   H81031478   7.311   0.959   8.007  0.8799 -0.6233  0.2060
   35MOL   H81131479   7.066   0.949   7.969 -1.2166 -2.1347  0.6818
   35MOL   C81231480   7.517   1.021   8.166  0.3458 -0.5775 -0.7329
   35MOL   C81331481   7.612   0.944   8.092  0.4373  0.5430  0.2337
   35MOL   C81431482   7.679   1.000   7.977 -0.5405  0.4696  0.0976
   35MOL   C81531483   7.648   1.128   7.932 -0.1158  0.0848 -0.3508
   35MOL   C81631484   7.566   1.210   8.016 -1.0011 -0.0767  0.1156
   35MOL   C81731485   7.502   1.152   8.129  1.0780 -0.4471  0.3334
   35MOL   S81831486   7.715   1.219   7.794  0.1760 -0.4038 -0.1043
   35MOL   O81931487   7.791   1.333   7.846 -0.1066 -0.2109  0.5269
   35MOL   O82031488   7.610   1.244   7.698 -0.6095  0.3933  0.1890
   35MOL   C82131489   7.830   1.111   7.695  0.2667  0.3448 -0.5880
   35MOL   C82231490   7.974   1.123   7.697 -0.0072 -0.8068  0.0795
   35MOL   C82331491   8.052   1.053   7.603 -0.7740 -0.7693  0.7420
   35MOL   C82431492   7.987   0.979   7.503  0.1026 -0.0946 -0.0833
   35MOL   C82531493   7.847   0.965   7.498 -0.5342 -0.5647  0.2086
   35MOL   C82631494   7.765   1.026   7.597 -0.7696  0.1100  0.5150
   35MOL   O82731495   8.066   0.916   7.405  0.2298  0.0234 -0.0016
   35MOL   C82831496   8.130   1.003   7.318  0.6634  0.5316  0.0117
   35MOL   C82931497   8.048   1.067   7.217 -0.4917 -0.1727 -0.0446
   35MOL   C83031498   8.095   1.186   7.153 -0.0379 -0.2914 -0.1133
   35MOL   C83131499   8.225   1.243   7.180 -0.0123 -0.0614  0.2128
   35MOL   C83231500   8.312   1.162   7.262  0.0326 -0.0481  0.1797
   35MOL   C83331501   8.264   1.046   7.330 -0.7977 -0.2353 -0.0235
   35MOL   C83431502   8.264   1.372   7.114 -0.4282 -0.0799 -0.4495
   35MOL   C83531503   8.331   1.468   7.189 -0.0334  0.2716  0.2382
   35MOL   C83631504   8.350   1.597   7.146  0.3142 -0.9676 -0.2402
   35MOL   C83731505   8.318   1.623   7.012 -0.6572  0.3308 -0.5154
   35MOL   C83831506   8.258   1.528   6.929  0.3091  0.0122  0.9319
   35MOL   C83931507   8.237   1.397   6.978  0.0342 -0.1420  0.6321
   35MOL   O84031508   8.337   1.745   6.957  0.7309 -0.2357 -0.4519
   35MOL   H84131509   7.623   0.838   8.108  0.2726  0.4851 -0.0240
   35MOL   H84231510   7.758   0.948   7.923 -1.2274  1.2916 -1.7562
   35MOL   H84331511   7.551   1.314   7.994 -2.5580 -0.0139  1.3932
   35MOL   H84431512   7.430   1.210   8.185  2.3457 -1.6786  3.3226
   35MOL   H84531513   8.016   1.197   7.763 -2.2304  0.0052  0.6123
   35MOL   H84631514   8.158   1.072   7.603 -1.3819  3.1227 -2.5763
   35MOL   H84731515   7.805   0.899   7.423  0.6152 -1.2305  0.1389
   35MOL   H84831516   7.657   1.023   7.601 -0.8420  0.3876 -0.7878
   35MOL   H84931517   7.949   1.028   7.199 -0.5950  0.0933 -0.0622
   35MOL   H85031518   8.034   1.239   7.081 -2.0223  0.8630  2.3270
   35MOL   H85131519   0.049   1.181   7.286 -0.0429  0.5160  0.0580
   35MOL   H85231520   8.320   1.004   7.412  1.3083 -0.6239 -1.5948
   35MOL   H85331521   8.344   1.441   7.293  3.3824 -0.7647 -0.3727
   35MOL   H85431522   0.040   1.669   7.203 -0.3607  0.0498 -0.8545
   35MOL   H85531523   8.242   1.542   6.823 -0.0796  0.0819  0.9987
   35MOL   H85631524   8.194   1.320   6.916  1.2435 -0.1711 -0.1877
   35MOL   C85731525   8.264   1.846   7.007 -0.7233 -0.0863  0.5693
   35MOL   C85831526   8.142   1.832   7.078 -0.7305 -0.4535 -0.2103
   35MOL   C85931527   8.063   1.947   7.114 -0.1861  0.0421 -0.3131
   35MOL   C86031528   8.118   2.077   7.090 -0.3379 -0.0361 -0.0225
   35MOL   C86131529   8.244   2.091   7.032 -0.1764  0.4327 -0.0730
   35MOL   C86231530   8.307   1.975   6.975  0.0270  0.2754 -0.7396
   35MOL   S86331531   8.032   2.219   7.148 -0.2389  0.4639  0.1252
   35MOL   O86431532   8.132   2.323   7.176  0.3329 -0.1520  0.6498
   35MOL   O86531533   7.940   2.177   7.250  0.1604 -0.0406  0.0301
   35MOL   C86631534   7.946   2.279   7.007  0.5647 -0.9558  0.1851
   35MOL   C86731535   7.811   2.314   7.027  0.1698  0.3185 -0.0387
   35MOL   C86831536   7.724   2.358   6.927  0.1504 -0.3331  0.0394
   35MOL   C86931537   7.781   2.364   6.800  0.4195 -0.5850 -0.3576
   35MOL   C87031538   7.916   2.328   6.774  0.1588 -0.4992 -0.1018
   35MOL   C87131539   8.000   2.281   6.876  0.1968 -0.3951 -0.3510
   35MOL   O87231540   7.701   2.413   6.705  0.4458 -0.8383 -0.2772
   35MOL   C87331541   7.607   2.330   6.655  0.4993  0.0660  0.4806
   35MOL   C87431542   7.648   2.204   6.598 -0.2327 -0.5194  0.8611
   35MOL   C87531543   7.539   2.116   6.557 -1.0403  0.2639 -0.0742
   35MOL   C87631544   7.405   2.157   6.553 -0.9008  0.0148 -0.3593
   35MOL   C87731545   7.373   2.286   6.597  0.1525  0.4939 -0.9306
   35MOL   C87831546   7.471   2.371   6.650  0.3426  0.4230 -0.3610
   35MOL   C87931547   7.293   2.074   6.502  0.6836  0.4603  0.3916
   35MOL   C88031548   7.311   2.004   6.384  0.3508 -0.3342  0.1665
   35MOL   C88131549   7.211   1.924   6.332  0.5114 -0.3257 -0.0003
   35MOL   C88231550   7.089   1.907   6.397 -0.4704 -0.2055 -0.2743
   35MOL   C88331551   7.075   1.971   6.521 -0.5134  1.2358  0.1202
   35MOL   C88431552   7.167   2.059   6.572  0.1425 -0.4846 -0.5349
   35MOL   O88531553   6.991   1.820   6.355 -0.3310 -0.0813 -0.5737
   35MOL   H88631554   8.094   1.737   7.095 -0.2765 -0.4930  0.9503
   35MOL   H88731555   7.964   1.938   7.156  0.6250  0.8541  1.8608
   35MOL   H88831556   8.282   2.190   7.010 -3.5443  1.7461 -0.2576
   35MOL   H88931557   0.020   1.999   6.905 -1.8580  2.7276 -2.1182
   35MOL   H89031558   7.773   2.301   7.127  0.0959 -1.7950 -0.3070
   35MOL   H89131559   7.623   2.391   6.948 -0.4395 -2.3085  0.4113
   35MOL   H89231560   7.948   2.330   6.671 -2.8509 -1.0783 -1.1091
   35MOL   H89331561   8.104   2.256   6.867  0.4538 -0.1263  1.5784
   35MOL   H89431562   7.752   2.174   6.601 -0.5754 -1.7251  1.3025
   35MOL   H89531563   7.546   2.011   6.532 -1.8523  0.0296  0.6877
   35MOL   H89631564   7.268   2.312   6.604  0.1479  0.6211 -1.4684
   35MOL   H89731565   7.451   2.468   6.693 -0.8870  0.6300 -1.3778
   35MOL   H89831566   7.407   2.008   6.334  1.0118  0.4507  1.4808
   35MOL   H89931567   7.233   1.864   6.245  3.0418  0.2519  0.1963
   35MOL   H90031568   6.980   1.957   6.572  0.0001 -1.1223  0.5252
   35MOL   H90131569   7.156   2.118   6.662 -1.4131 -0.4123 -0.7622
   35MOL   H90231570   6.907   1.843   6.392  0.9668  0.2628  2.3027
   36MOL     C131571   2.877   1.921   7.775  0.4060  0.3010  0.2131
   36MOL     C231572   2.814   1.860   7.663 -0.0545 -0.5979 -0.2546
   36MOL     C331573   2.882   1.871   7.537 -0.3949  0.1233  0.0459
   36MOL     C431574   2.998   1.944   7.525 -1.1031 -0.8782  0.1916
   36MOL     C531575   3.060   2.002   7.639  0.1732  0.1026 -0.1289
   36MOL     C631576   2.998   1.993   7.762 -0.4889 -0.8580  0.0161
   36MOL     S731577   3.079   1.954   7.367  0.0483 -0.1187  0.3253
   36MOL     O831578   3.206   2.025   7.393 -0.2073 -0.7462  0.8345
   36MOL     O931579   2.976   2.005   7.274 -0.3167 -0.3766 -1.0262
   36MOL    C1031580   3.117   1.788   7.320 -0.2877  0.0078  0.2093
   36MOL    C1131581   3.196   1.711   7.404 -0.3201  0.9388  0.1257
   36MOL    C1231582   3.229   1.576   7.377  0.3877  0.1194  0.6233
   36MOL    C1331583   3.190   1.524   7.255  0.1241 -0.4894 -0.0328
   36MOL    C1431584   3.119   1.601   7.162  0.2626 -0.2864  0.3804
   36MOL    C1531585   3.082   1.730   7.194  0.1771 -0.4385 -0.0366
   36MOL    O1631586   3.230   1.394   7.235  0.5106  0.4496 -0.3456
   36MOL    C1731587   3.193   1.333   7.119  0.1649  0.7690  0.1836
   36MOL    C1831588   3.082   1.245   7.118 -0.0312  0.4587  0.0900
   36MOL    C1931589   3.040   1.178   7.004 -0.3422  0.3069 -0.4250
   36MOL    C2031590   3.111   1.199   6.883  0.4575  0.0314  0.7486
   36MOL    C2131591   3.227   1.278   6.886 -0.1563  0.0759  0.0517
   36MOL    C2231592   3.269   1.354   6.998 -0.3391 -0.3062 -0.0137
   36MOL    C2331593   3.065   1.128   6.765 -0.6942  0.0925  0.4279
   36MOL    C2431594   3.137   1.019   6.706 -0.1750 -0.1266 -0.4206
   36MOL    C2531595   3.085   0.953   6.594 -0.2256  0.1113  0.0356
   36MOL    C2631596   2.967   0.995   6.539  0.1834  0.0073  0.5240
   36MOL    C2731597   2.884   1.094   6.595 -0.9360  0.6291 -0.0165
   36MOL    C2831598   2.930   1.154   6.716  0.6542  0.4775 -0.1615
   36MOL    O2931599   2.929   0.943   6.418 -0.1154 -0.6910 -0.2201
   36MOL    H3031600   2.724   1.801   7.671  0.8189 -1.9430 -0.2070
   36MOL    H3131601   2.840   1.833   7.445 -2.1451  1.2083  0.3775
   36MOL    H3231602   3.149   2.063   7.624 -0.2379  0.7813  0.1466
   36MOL    H3331603   3.047   2.050   7.839 -1.2548 -0.9140  0.5532
   36MOL    H3431604   3.226   1.765   7.492 -1.6238  1.7025  0.1103
   36MOL    H3531605   3.290   1.515   7.442 -1.0495 -4.2700 -1.9243
   36MOL    H3631606   3.094   1.560   7.065 -1.5235 -2.8915  1.8797
   36MOL    H3731607   3.029   1.791   7.121 -0.9482  0.6092  1.6259
   36MOL    H3831608   3.030   1.235   7.213 -3.0230 -0.5882 -1.5797
   36MOL    H3931609   2.955   1.111   7.012  0.2388 -0.4065 -0.1509
   36MOL    H4031610   3.281   1.279   6.792  0.3294  0.2154  0.3300
   36MOL    H4131611   3.354   1.419   7.009  0.1269 -1.2246  2.1655
   36MOL    H4231612   3.235   0.988   6.739  0.0326 -0.3530 -1.2402
   36MOL    H4331613   3.139   0.865   6.561 -0.6538 -0.3368  0.5103
   36MOL    H4431614   2.793   1.125   6.547 -0.0188  1.1348 -1.4495
   36MOL    H4531615   2.863   1.232   6.748  1.5654  0.9343  0.6470
   36MOL    H4631616   2.823   1.912   7.869  2.2282 -1.0030  1.1569
   36MOL    C4731617   2.880   0.817   6.430  0.0873  0.2031  0.5450
   36MOL    C4831618   2.839   0.746   6.544 -0.1891 -0.2010 -0.5201
   36MOL    C4931619   2.776   0.621   6.539  0.2523  0.3418  0.2197
   36MOL    C5031620   2.761   0.551   6.416 -0.0669 -0.5510  0.0195
   36MOL    C5131621   2.792   0.622   6.298  0.0340 -0.4313  0.0546
   36MOL    C5231622   2.851   0.750   6.306  0.1872  0.2989 -0.2054
   36MOL    S5331623   2.659   0.404   6.410 -0.2944 -0.0251 -0.1049
   36MOL    O5431624   2.659   0.364   6.268 -0.3058  0.7756  0.0818
   36MOL    O5531625   2.542   0.436   6.495 -0.4213 -1.3381  0.1075
   36MOL    C5631626   2.748   0.278   6.494 -0.4095  0.1907  0.3225
   36MOL    C5731627   2.747   0.270   6.633 -0.0023 -0.1312 -0.2305
   36MOL    C5831628   2.824   0.178   6.706  0.2748  0.4174  0.2611
   36MOL    C5931629   2.900   0.081   6.630  1.1688 -0.5857  0.0099
   36MOL    C6031630   2.907   0.096   6.486 -0.2696  0.6344  1.1635
   36MOL    C6131631   2.824   0.187   6.417 -0.5093  1.3463  0.5057
   36MOL    O6231632   2.979   8.346   6.675 -0.1388  0.1817  0.1385
   36MOL    C6331633   3.011   8.328   6.805 -0.1233 -0.8708 -0.3398
   36MOL    C6431634   3.086   0.049   6.883  0.2799  0.1530 -0.3881
   36MOL    C6531635   3.121   0.032   7.020  0.4747 -0.4144 -0.6593
   36MOL    C6631636   3.062   8.291   7.093  0.7346  0.3741 -0.1471
   36MOL    C6731637   2.983   8.197   7.019 -0.0120 -0.3890  0.4568
   36MOL    C6831638   2.961   8.214   6.875  0.9622 -0.7928 -0.1977
   36MOL    C6931639   3.093   8.275   7.238 -0.6297  0.0652 -0.1884
   36MOL    C7031640   3.083   8.149   7.303 -0.0891 -0.1339 -0.3080
   36MOL    C7131641   3.111   8.137   7.441  0.0609  0.1284  0.0625
   36MOL    C7231642   3.157   8.248   7.513 -0.6005  0.0128 -0.0976
   36MOL    C7331643   3.168   0.008   7.451 -0.0873 -0.5033 -0.6997
   36MOL    C7431644   3.127   0.021   7.317  0.1268 -0.1481 -0.5854
   36MOL    O7531645   3.177   8.226   7.652  0.2481  0.3001  0.1593
   36MOL    H7631646   2.845   0.782   6.645  0.3276  0.6131 -0.8368
   36MOL    H7731647   2.743   0.583   6.634 -0.3951  2.9883  1.0907
   36MOL    H7831648   2.750   0.583   6.206 -1.1650  1.2755 -0.1559
   36MOL    H7931649   2.856   0.809   6.215  0.3610 -1.4907 -1.3790
   36MOL    H8031650   2.691   0.342   6.691  0.3997  0.6017 -0.7416
   36MOL    H8131651   2.820   0.181   6.814  0.8900  0.3297  0.2883
   36MOL    H8231652   2.973   0.029   6.433 -0.0616  0.0063  2.1999
   36MOL    H8331653   2.833   0.189   6.310 -0.7534 -1.6921  0.3813
   36MOL    H8431654   3.120   0.145   6.844 -1.5040  0.6884 -0.6670
   36MOL    H8531655   3.181   0.110   7.066  0.5494 -0.5369 -0.5499
   36MOL    H8631656   2.927   8.115   7.061 -0.2980 -0.0335  0.7653
   36MOL    H8731657   2.904   8.138   6.824  0.0909 -0.2459 -0.0535
   36MOL    H8831658   3.055   8.053   7.262 -1.6645  0.1258  0.1242
   36MOL    H8931659   3.107   8.041   7.490  0.3220  0.4152  0.6522
   36MOL    H9031660   3.202   0.086   7.517 -4.1125  0.0595  0.8671
   36MOL    H9131661   3.136   0.118   7.270  0.7509  0.0217 -0.1190
   36MOL    C9231662   3.310   8.208   7.687 -0.5757  0.0396  0.2274
   36MOL    C9331663   3.373   8.083   7.664 -0.0264  0.5014  0.6079
   36MOL    C9431664   3.492   8.055   7.721 -0.5967  0.2579 -0.2327
   36MOL    C9531665   3.573   8.159   7.774  0.4393 -0.1662 -0.1577
   36MOL    C9631666   3.518   8.294   7.780 -0.6688 -0.5660  0.1220
   36MOL    C9731667   3.387   8.312   7.743 -0.0645  0.3350  0.6054
   36MOL    S9831668   3.750   8.120   7.809  0.1941 -0.0404  0.3317
   36MOL    O9931669   3.762   7.976   7.830 -0.2903 -0.4683  0.1092
   36MOL   O10031670   3.803   8.216   7.909  0.3515 -0.6501 -0.1713
   36MOL   C10131671   3.827   8.166   7.658 -0.0281  0.0044 -0.4583
   36MOL   C10231672   3.753   8.188   7.536 -0.7919 -0.5016 -0.4731
   36MOL   C10331673   3.816   8.245   7.424 -0.1908 -0.0475 -0.4180
   36MOL   C10431674   3.955   8.274   7.422 -0.0167  0.1766 -0.3858
   36MOL   C10531675   4.031   8.255   7.539  0.2123  0.0211  0.1242
   36MOL   C10631676   3.966   8.203   7.657  0.2137 -0.1937 -0.0601
   36MOL   O10731677   4.019   8.322   7.312 -0.3240  0.2108 -0.2321
   36MOL   C10831678   3.987   0.080   7.267  0.6310 -0.2485  0.2800
   36MOL   C10931679   4.004   0.192   7.351  0.1264  0.6459  0.0628
   36MOL   C11031680   3.957   0.315   7.301 -0.9750 -0.1640  0.2654
   36MOL   C11131681   3.899   0.335   7.171  0.0568 -0.1096 -0.3688
   36MOL   C11231682   3.894   0.223   7.090 -0.4453 -0.1261  0.4365
   36MOL   C11331683   3.941   0.095   7.133 -0.4050 -0.1070 -0.3587
   36MOL   C11431684   3.831   0.461   7.128  0.2653  0.5559  0.0217
   36MOL   C11531685   3.795   0.487   6.993 -0.0344 -0.8246 -0.0943
   36MOL   C11631686   3.726   0.604   6.956  0.0681 -0.0174  0.1319
   36MOL   C11731687   3.687   0.696   7.059 -0.3856 -0.0778  0.0635
   36MOL   C11831688   3.715   0.668   7.196 -0.1094 -0.2125  0.5884
   36MOL   C11931689   3.780   0.548   7.228 -0.1639 -0.1086  1.0777
   36MOL   O12031690   3.610   0.800   7.033  0.1754 -0.5125 -0.2747
   36MOL   H12131691   3.322   8.008   7.604  3.1129 -0.0593 -1.4959
   36MOL   H12231692   3.527   7.958   7.689 -0.5358 -0.5206  2.0715
   36MOL   H12331693   3.566   0.019   7.812 -0.6579 -0.0156 -1.4248
   36MOL   H12431694   3.350   0.047   7.758 -1.2555 -0.0252  0.1132
   36MOL   H12531695   3.652   8.151   7.526 -1.5412  1.3062  0.1560
   36MOL   H12631696   3.767   8.258   7.328  1.7240 -2.0433 -1.7146
   36MOL   H12731697   4.135   8.282   7.533 -0.2099  1.4214 -1.0727
   36MOL   H12831698   4.017   8.173   7.748  1.0628  1.1823 -0.0650
   36MOL   H12931699   4.055   0.191   7.447  2.1231 -2.8335 -0.9328
   36MOL   H13031700   3.973   0.395   7.373  0.5093 -1.6101  1.5574
   36MOL   H13131701   3.849   0.221   6.992  1.8924 -0.5479 -0.6690
   36MOL   H13231702   3.920   0.008   7.073  1.1396  0.6231 -1.9702
   36MOL   H13331703   3.812   0.405   6.925 -2.2982 -0.1910 -1.4468
   36MOL   H13431704   3.700   0.627   6.854 -0.4453 -0.0591  0.2548
   36MOL   H13531705   3.679   0.731   7.276 -1.3172  0.7030 -0.6370
   36MOL   H13631706   3.804   0.514   7.329  0.5772  1.7816  1.5555
   36MOL   C13731707   3.675   0.921   7.024 -0.7350  0.4551 -0.4311
   36MOL   C13831708   3.683   0.985   6.903 -0.1542  0.0682  0.3371
   36MOL   C13931709   3.746   1.109   6.888  0.2842 -0.7176 -0.2176
   36MOL   C14031710   3.798   1.172   7.000 -0.0028  0.2474  0.8590
   36MOL   C14131711   3.784   1.115   7.129 -0.4601 -0.1945  0.1842
   36MOL   C14231712   3.718   0.990   7.143  0.6711  0.2545 -0.1152
   36MOL   S14331713   3.880   1.333   6.983 -0.1488  0.2693  0.0090
   36MOL   O14431714   3.930   1.354   6.845 -0.0688  0.5733  0.5738
   36MOL   O14531715   3.968   1.351   7.101  0.6440 -0.0931  0.3434
   36MOL   C14631716   3.748   1.454   7.002  1.1396  0.3247  0.5983
   36MOL   C14731717   3.653   1.489   6.904 -0.2167  0.1746  0.9290
   36MOL   C14831718   3.545   1.583   6.934 -0.5293 -0.1551  0.1131
   36MOL   C14931719   3.548   1.653   7.056  0.4608 -0.7067  0.3152
   36MOL   C15031720   3.655   1.630   7.145 -0.7468  0.5177 -0.5919
   36MOL   C15131721   3.752   1.534   7.119  0.5127  0.5244 -0.9742
   36MOL   O15231722   3.453   1.758   7.073 -0.1562  0.1526 -0.1080
   36MOL   C15331723   3.493   1.892   7.075  0.2743 -0.3964  0.0782
   36MOL   C15431724   3.573   1.944   6.973  0.3121 -0.1432  1.1870
   36MOL   C15531725   3.613   2.077   6.983  0.9542  0.7017 -0.2009
   36MOL   C15631726   3.588   2.154   7.107 -0.3685 -0.2182  0.7517
   36MOL   C15731727   3.506   2.102   7.205 -0.1501  0.1254  0.0041
   36MOL   C15831728   3.460   1.969   7.188  0.2704 -0.4613 -0.7235
   36MOL   C15931729   3.631   2.291   7.134 -0.1393 -0.2083 -0.0772
   36MOL   C16031730   3.606   2.391   7.031 -0.1506  0.3901 -0.9463
   36MOL   C16131731   3.631   2.521   7.059 -0.1285  0.2073 -0.0139
   36MOL   C16231732   3.702   2.561   7.177  0.1713  0.4176 -0.1770
   36MOL   C16331733   3.739   2.460   7.271 -0.4461  0.4496  0.7091
   36MOL   C16431734   3.696   2.329   7.248  0.5411  0.4804 -0.0745
   36MOL   O16531735   3.731   2.690   7.204 -0.2087 -1.1646 -0.4897
   36MOL   H16631736   3.641   0.934   6.817  1.9791 -1.0932 -0.0467
   36MOL   H16731737   3.761   1.153   6.790  1.0679  0.4504  0.4172
   36MOL   H16831738   3.820   1.157   7.222  2.3901  0.6332 -1.2555
   36MOL   H16931739   3.721   0.943   7.240  0.0670  1.4596  0.4933
   36MOL   H17031740   3.656   1.439   6.808 -0.2948  2.7695 -0.4750
   36MOL   H17131741   3.467   1.601   6.861  0.4248  0.4289 -0.7730
   36MOL   H17231742   3.671   1.693   7.231 -1.5473  0.2221 -0.2266
   36MOL   H17331743   3.823   1.525   7.200 -2.0221  1.4016  1.4346
   36MOL   H17431744   3.603   1.884   6.888  0.3957  2.2122 -0.4906
   36MOL   H17531745   3.677   2.111   6.903 -1.9600  1.3686 -2.3357
   36MOL   H17631746   3.471   2.155   7.292 -0.9722 -0.5381  0.0821
   36MOL   H17731747   3.412   1.918   7.270  0.0055  0.8757 -0.0397
   36MOL   H17831748   3.549   2.373   6.941 -0.6429  1.0857 -0.7775
   36MOL   H17931749   3.603   2.594   6.985 -0.4044 -0.8666 -0.9885
   36MOL   H18031750   3.790   2.496   7.359  0.9007 -0.2376  0.2207
   36MOL   H18131751   3.721   2.254   7.322  0.8592 -0.0633 -0.7266
   36MOL   C18231752   3.863   2.730   7.197  0.3643  0.6379 -0.4991
   36MOL   C18331753   3.930   2.720   7.076 -0.4200  0.0919  0.0206
   36MOL   C18431754   4.068   2.742   7.073  0.7289  0.5726 -0.4689
   36MOL   C18531755   4.143   2.760   7.189 -0.8907  0.7701 -0.4524
   36MOL   C18631756   4.071   2.773   7.310 -0.5869 -0.7256 -0.0894
   36MOL   C18731757   3.929   2.761   7.321 -0.1578 -0.4847  0.5310
   36MOL   S18831758   4.318   2.772   7.179  0.3028 -0.3971 -0.0747
   36MOL   O18931759   4.355   2.914   7.204 -0.6066 -0.3138 -0.4905
   36MOL   O19031760   4.363   2.713   7.053 -0.4509  0.3271  0.0156
   36MOL   C19131761   4.382   2.663   7.303 -0.2921  0.4582 -0.7724
   36MOL   C19231762   4.384   2.698   7.440  0.3324 -0.6153 -0.7228
   36MOL   C19331763   4.401   2.606   7.542  0.8027 -1.0091  0.1998
   36MOL   C19431764   4.435   2.476   7.503 -0.4139 -0.0177 -0.7364
   36MOL   C19531765   4.441   2.435   7.369 -0.0512 -0.0587 -0.4543
   36MOL   C19631766   4.411   2.530   7.268 -1.4749 -0.3429 -0.5240
   36MOL   O19731767   4.443   2.382   7.600 -0.4241 -0.2651 -0.8851
   36MOL   C19831768   4.564   2.371   7.662  0.0323  0.2500 -0.5509
   36MOL   C19931769   4.629   2.478   7.735 -0.3067  0.0596 -0.5756
   36MOL   C20031770   4.751   2.453   7.803  0.9618  0.5093 -0.1670
   36MOL   C20131771   4.810   2.329   7.800 -0.2026 -0.9218  0.5494
   36MOL   C20231772   4.749   2.227   7.724 -0.3090 -0.1904 -0.9393
   36MOL   C20331773   4.630   2.243   7.659 -0.3787 -0.2713 -0.1741
   36MOL   C20431774   4.924   2.304   7.884 -0.6293  0.3972  0.2696
   36MOL   C20531775   4.948   2.178   7.947  0.0605 -0.0247  0.3201
   36MOL   C20631776   5.062   2.169   8.028 -0.3138 -0.1733  0.2300
   36MOL   C20731777   5.156   2.270   8.045 -0.1438  0.0873 -0.8369
   36MOL   C20831778   5.134   2.395   7.984  0.3665  0.1270  0.2353
   36MOL   C20931779   5.018   2.413   7.904 -0.1347  0.5620  0.0562
   36MOL   O21031780   5.269   2.241   8.117  0.1476  0.2445  0.3742
   36MOL   H21131781   3.880   2.690   6.984  1.4264 -0.9526 -0.6709
   36MOL   H21231782   4.117   2.729   6.978  1.9631 -1.0819  0.3565
   36MOL   H21331783   4.133   2.795   7.396  1.0375  1.5913 -1.7776
   36MOL   H21431784   3.879   2.753   7.417  0.2015 -0.7807  0.6973
   36MOL   H21531785   4.355   2.799   7.465  1.5760 -0.6561  1.0036
   36MOL   H21631786   4.393   2.638   7.645  0.5259  0.7897 -0.3474
   36MOL   H21731787   4.460   2.332   7.343 -2.0608 -0.2368 -1.2885
   36MOL   H21831788   4.411   2.494   7.166 -1.8857 -0.2625 -0.5522
   36MOL   H21931789   4.577   2.572   7.740 -0.4983 -0.0557 -0.4050
   36MOL   H22031790   4.791   2.529   7.869 -0.8075  2.1642 -0.9561
   36MOL   H22131791   4.792   2.127   7.725  2.2313  0.8533  1.8637
   36MOL   H22231792   4.573   2.166   7.610 -3.5248  1.5984  0.3886
   36MOL   H22331793   4.888   2.088   7.948 -0.1249  0.0393 -2.0067
   36MOL   H22431794   5.073   2.074   8.077 -2.5275 -0.2301  0.6580
   36MOL   H22531795   5.209   2.473   7.985 -0.1170  0.5933 -0.0773
   36MOL   H22631796   4.987   2.509   7.865 -1.3409 -0.7681 -2.3398
   36MOL   C22731797   5.358   2.340   8.151 -0.1014  0.6491  1.1099
   36MOL   C22831798   5.360   2.361   8.292  0.4479 -0.3455 -0.2473
   36MOL   C22931799   5.468   2.428   8.349  0.3480 -0.5651 -0.5355
   36MOL   C23031800   5.577   2.469   8.274  0.9521  1.1327  0.0970
   36MOL   C23131801   5.573   2.445   8.133  0.1742  0.8166 -0.0394
   36MOL   C23231802   5.461   2.393   8.070 -0.5939  1.0355  0.6479
   36MOL   S23331803   5.735   2.517   8.339 -0.2314  0.2569 -0.0353
   36MOL   O23431804   5.840   2.464   8.255  0.4960  0.3065  0.7129
   36MOL   O23531805   5.739   2.482   0.118  0.0191 -0.7674 -0.2837
   36MOL   C23631806   5.748   2.696   8.333  0.1656  0.1624 -0.3262
   36MOL   C23731807   5.639   2.777   0.003  0.3880 -0.2547 -0.3764
   36MOL   C23831808   5.651   2.914   0.008  0.0497  0.2577 -0.2505
   36MOL   C23931809   5.774   2.982   8.351 -0.5138  0.3730 -0.6522
   36MOL   C24031810   5.885   2.901   8.325  0.1121  0.1230  0.2709
   36MOL   C24131811   5.872   2.763   8.310  0.4140 -0.0604  0.0332
   36MOL   O24231812   5.782   3.117   8.360 -0.5959  0.0336  0.0661
   36MOL   C24331813   5.777   3.183   0.115  0.5320 -0.2802 -0.2328
   36MOL   C24431814   5.805   3.322   0.117  0.9212  0.0453  0.3685
   36MOL   C24531815   5.773   3.398   0.235  0.1058 -0.1163 -0.2281
   36MOL   C24631816   5.710   3.335   0.347 -0.1597 -0.1292  0.2480
   36MOL   C24731817   5.703   3.196   0.345 -0.1024 -0.1769 -0.4656
   36MOL   C24831818   5.733   3.120   0.233 -0.1174 -0.6599 -0.1157
   36MOL   C24931819   5.658   3.411   0.463  0.0348 -0.0778  0.6885
   36MOL   C25031820   5.561   3.522   0.435  0.6478 -0.3075 -0.2297
   36MOL   C25131821   5.517   3.601   0.544 -0.0957  0.3306  0.3071
   36MOL   C25231822   5.559   3.574   0.674  0.5449 -0.0602  0.4479
   36MOL   C25331823   5.650   3.468   0.698  0.0864  0.2066 -0.3419
   36MOL   C25431824   5.697   3.391   0.595 -0.2665  0.0793  0.4473
   36MOL   O25531825   5.514   3.648   0.780  0.2620 -0.0321 -0.7374
   36MOL   H25631826   5.287   2.322   8.362  1.3373  0.6223  1.2414
   36MOL   H25731827   5.471   2.443   0.090 -0.8896 -1.6775 -0.3270
   36MOL   H25831828   5.660   2.477   8.076  0.6201 -0.6366 -0.1994
   36MOL   H25931829   5.455   2.374   7.963  0.2014 -1.5992  1.0345
   36MOL   H26031830   5.544   2.739   0.036  0.6678  0.7302  1.6420
   36MOL   H26131831   5.565   2.975   0.033  0.8218  0.8726  0.9529
   36MOL   H26231832   5.976   2.959   8.321  0.4014 -0.3775 -0.4188
   36MOL   H26331833   5.963   2.710   8.290  0.2699 -0.7546  1.1811
   36MOL   H26431834   5.826   3.375   0.026 -0.9340 -0.6250 -0.4713
   36MOL   H26531835   5.790   3.504   0.233 -0.9010  0.0272 -1.6718
   36MOL   H26631836   5.657   3.144   0.428 -0.5765  3.0688  1.4249
   36MOL   H26731837   5.699   3.018   0.244 -1.8710 -0.3114 -1.9605
   36MOL   H26831838   5.518   3.526   0.336  0.0560 -0.5303  0.0170
   36MOL   H26931839   5.440   3.674   0.525  0.2225  0.5724 -0.0455
   36MOL   H27031840   5.676   3.458   0.802 -0.4451  0.0593 -0.2242
   36MOL   H27131841   5.766   3.309   0.613 -0.3342 -0.0878 -0.0614
   36MOL   C27231842   5.447   3.588   0.880 -0.1814  0.0574 -0.9006
   36MOL   C27331843   5.451   3.650   1.006 -0.0144 -0.8778 -0.2282
   36MOL   C27431844   5.372   3.595   1.114  0.2987  0.2779  0.2992
   36MOL   C27531845   5.292   3.481   1.086 -0.8019  0.4030 -0.0262
   36MOL   C27631846   5.294   3.410   0.964 -0.1705 -0.4789  0.3752
   36MOL   C27731847   5.367   3.470   0.860 -0.4261  0.4737  0.3493
   36MOL   S27831848   5.187   3.414   1.217 -0.1361 -0.6191  0.1231
   36MOL   O27931849   5.117   3.301   1.159  0.2758  0.4581 -0.4103
   36MOL   O28031850   5.116   3.533   1.268 -0.5304  0.2051 -0.1076
   36MOL   C28131851   5.303   3.363   1.345 -0.2196 -0.0210 -0.3024
   36MOL   C28231852   5.435   3.320   1.307 -0.1794  0.0703  1.0411
   36MOL   C28331853   5.514   3.278   1.415  0.1892  0.1858 -0.2132
   36MOL   C28431854   5.475   3.274   1.555  0.3663  0.6516  0.7597
   36MOL   C28531855   5.339   3.312   1.580  0.0600  0.2588  0.4899
   36MOL   C28631856   5.261   3.362   1.476  0.8167 -0.0863 -0.1400
   36MOL   O28731857   5.551   3.232   1.659 -0.2654  0.5953 -0.8185
   36MOL   C28831858   5.665   3.156   1.639  0.3440  0.3359 -0.0713
   36MOL   C28931859   5.787   3.210   1.650 -0.0520 -0.2712  0.4648
   36MOL   C29031860   5.904   3.138   1.616 -0.7285 -1.0325 -0.5450
   36MOL   C29131861   5.895   3.004   1.568 -0.5178  0.1231 -0.2625
   36MOL   C29231862   5.768   2.943   1.565  0.3589  0.3558  0.6642
   36MOL   C29331863   5.654   3.018   1.602  0.1926 -0.3620  0.1686
   36MOL   C29431864   6.018   2.942   1.522  1.1147 -0.1758 -0.0883
   36MOL   C29531865   6.033   2.881   1.398  0.9709  0.4422 -0.3023
   36MOL   C29631866   6.159   2.833   1.350 -0.1744 -0.1491 -0.2381
   36MOL   C29731867   6.277   2.845   1.429 -0.4413  0.1148 -0.0687
   36MOL   C29831868   6.261   2.895   1.555  0.1751  0.8281  0.1178
   36MOL   C29931869   6.136   2.941   1.602  0.4181  0.2020 -0.3829
   36MOL   O30031870   6.401   2.812   1.379  0.1152  0.3342  0.6947
   36MOL   H30131871   5.510   3.739   1.018 -3.7420  1.3694  2.2230
   36MOL   H30231872   5.354   3.648   1.207  0.8295  1.1286 -0.0726
   36MOL   H30331873   5.238   3.320   0.945  1.8227 -1.8213  0.7386
   36MOL   H30431874   5.362   3.428   0.760  3.6800 -1.0901  0.7201
   36MOL   H30531875   5.478   3.334   1.209  0.1942 -2.8004  0.7471
   36MOL   H30631876   5.618   3.254   1.403  0.6092  1.6913  0.2491
   36MOL   H30731877   5.303   3.310   1.682  1.0642 -1.2338  0.8276
   36MOL   H30831878   5.157   3.387   1.494 -0.2533 -4.5600  0.4363
   36MOL   H30931879   5.785   3.314   1.681 -0.2183  0.6981 -2.6553
   36MOL   H31031880   6.000   3.185   1.627 -1.1200 -0.7724  2.2671
   36MOL   H31131881   5.761   2.841   1.530 -1.1442 -0.2289  2.5632
   36MOL   H31231882   5.559   2.967   1.603  1.0179 -2.0699 -2.8016
   36MOL   H31331883   5.946   2.875   1.334  1.4434  1.8664 -1.1005
   36MOL   H31431884   6.175   2.785   1.255 -1.1173 -0.1425 -0.4023
   36MOL   H31531885   6.343   2.912   1.624 -1.0232  2.4700  1.1764
   36MOL   H31631886   6.133   2.972   1.705  1.2690 -0.2125 -0.2251
   36MOL   C31731887   6.414   2.804   1.241  0.3389  0.3797 -1.0436
   36MOL   C31831888   6.396   2.676   1.190 -0.1909  0.8957  0.2714
   36MOL   C31931889   6.380   2.654   1.053  0.3023  0.2302  0.0008
   36MOL   C32031890   6.412   2.758   0.960 -0.3319  1.2052  0.1591
   36MOL   C32131891   6.447   2.887   1.011  0.7302 -0.3656  0.1323
   36MOL   C32231892   6.437   2.915   1.151  0.0624  0.5060  0.9724
   36MOL   S32331893   6.441   2.707   0.789 -0.1188 -0.0411  0.5784
   36MOL   O32431894   6.522   2.810   0.717  0.0139  0.4435  0.0036
   36MOL   O32531895   6.307   2.678   0.734  0.1240  0.4396  0.3721
   36MOL   C32631896   6.532   2.550   0.796 -0.4280  0.0213 -0.4231
   36MOL   C32731897   6.499   2.443   0.712 -0.0390 -0.4280 -0.2995
   36MOL   C32831898   6.571   2.323   0.718  0.3330  0.0698 -0.2280
   36MOL   C32931899   6.671   2.304   0.815 -0.7520  0.8273  0.1687
   36MOL   C33031900   6.704   2.408   0.902 -0.3660 -0.1228  0.3578
   36MOL   C33131901   6.632   2.533   0.897 -0.0167  0.2824  0.1497
   36MOL   O33231902   6.733   2.191   0.829  0.3529  0.3926 -0.4553
   36MOL   C33331903   6.671   2.074   0.862 -0.1109  0.5775 -0.0407
   36MOL   C33431904   6.706   1.960   0.782  0.5100  0.6225  0.4864
   36MOL   C33531905   6.642   1.835   0.807  0.5544  0.3521 -0.5068
   36MOL   C33631906   6.551   1.825   0.911  0.8763 -0.5052 -0.3029
   36MOL   C33731907   6.524   1.937   0.997  0.2330  0.0651 -0.1994
   36MOL   C33831908   6.578   2.066   0.972 -0.3112  0.1002  0.3118
   36MOL   C33931909   6.478   1.697   0.938 -0.2719 -0.2254 -0.3980
   36MOL   C34031910   6.355   1.703   1.006  0.9665 -0.3035 -0.0416
   36MOL   C34131911   6.275   1.586   1.020 -0.0998  0.3630  0.0122
   36MOL   C34231912   6.318   1.458   0.971  0.0657 -0.2858  0.2655
   36MOL   C34331913   6.445   1.451   0.912 -0.5066 -0.1801  0.1964
   36MOL   C34431914   6.514   1.571   0.882  0.4385 -0.8628 -0.6911
   36MOL   O34531915   6.242   1.347   0.993 -0.1752  0.0988  0.3161
   36MOL   H34631916   6.366   2.601   1.262  0.1283 -0.3212 -0.8426
   36MOL   H34731917   6.357   2.554   1.020 -0.6841 -0.3628  2.4419
   36MOL   H34831918   6.469   2.963   0.937 -1.7433  1.1093  0.8464
   36MOL   H34931919   6.456   3.016   1.185 -0.5974  0.3759  1.7397
   36MOL   H35031920   6.429   2.464   0.632 -0.2252  2.1890  0.5041
   36MOL   H35131921   6.550   2.244   0.648 -0.1211  1.2021 -1.3817
   36MOL   H35231922   6.780   2.387   0.976  0.2264  2.3691  0.5146
   36MOL   H35331923   6.656   2.620   0.957 -1.0757  0.0742  0.8915
   36MOL   H35431924   6.781   1.964   0.704 -1.4092 -1.4284 -1.5409
   36MOL   H35531925   6.662   1.746   0.748 -0.0859 -0.1704  0.0533
   36MOL   H35631926   6.464   1.927   1.086  0.1003 -1.9476 -0.4933
   36MOL   H35731927   6.569   2.156   1.032  0.1809  1.1122 -1.0981
   36MOL   H35831928   6.319   1.797   1.046 -0.7791 -1.3804  0.9831
   36MOL   H35931929   6.184   1.575   1.077  1.9572 -0.4129  3.3062
   36MOL   H36031930   6.481   1.357   0.874  2.8466  1.2426 -0.2694
   36MOL   H36131931   6.599   1.562   0.816  1.0899 -1.5614  0.2307
   36MOL   C36231932   6.214   1.321   1.128  0.2808  0.2360  0.5082
   36MOL   C36331933   6.316   1.302   1.222 -0.0405 -0.6345 -0.7403
   36MOL   C36431934   6.272   1.278   1.355  0.2514 -0.2905  0.5339
   36MOL   C36531935   6.144   1.288   1.396 -0.4389  0.5736  0.6598
   36MOL   C36631936   6.036   1.304   1.304 -0.0804  0.2335 -0.4508
   36MOL   C36731937   6.076   1.318   1.167  0.2806 -0.6594 -0.1318
   36MOL   S36831938   6.115   1.274   1.569  0.1193 -0.0991  0.0399
   36MOL   O36931939   6.090   1.409   1.621 -0.5197 -0.0516 -0.2650
   36MOL   O37031940   6.221   1.189   1.627 -0.0335 -0.0101  0.6371
   36MOL   C37131941   5.965   1.176   1.588 -0.0169 -0.5666 -0.2310
   36MOL   C37231942   5.853   1.248   1.622  0.6198  0.2115 -0.2400
   36MOL   C37331943   5.735   1.184   1.662  0.4986  0.0480 -0.7212
   36MOL   C37431944   5.734   1.041   1.656 -0.2063 -0.2419  0.0292
   36MOL   C37531945   5.846   0.967   1.621 -0.3240  0.2839  0.7469
   36MOL   C37631946   5.966   1.033   1.589  0.5532  0.4348 -0.3880
   36MOL   O37731947   5.624   0.981   1.695  0.8604  0.3371 -0.2001
   36MOL   C37831948   5.518   0.957   1.609 -0.4055 -0.2772  0.0604
   36MOL   C37931949   5.390   0.938   1.665 -1.0147  0.2581  0.1503
   36MOL   C38031950   5.277   0.914   1.581 -0.0436  0.0391  0.0173
   36MOL   C38131951   5.295   0.912   1.439 -0.0648 -0.3948  0.1995
   36MOL   C38231952   5.420   0.930   1.387 -0.1238 -0.2472  0.1230
   36MOL   C38331953   5.533   0.947   1.469 -0.1343  0.4996  0.3800
   36MOL   C38431954   5.177   0.881   1.353 -0.7306  0.4392  0.2220
   36MOL   C38531955   5.062   0.957   1.376  0.1856 -0.6839  0.1184
   36MOL   C38631956   4.940   0.936   1.304 -0.7537 -0.6039 -0.4195
   36MOL   C38731957   4.940   0.815   1.223 -0.0100  0.8252  0.0697
   36MOL   C38831958   5.059   0.746   1.192  0.2044  0.0396  0.1812
   36MOL   C38931959   5.182   0.777   1.259  0.2329 -0.3963  0.6773
   36MOL   O39031960   4.818   0.786   1.166  1.0760  0.1920  0.9826
   36MOL   H39131961   6.416   1.289   1.183  1.6770  2.9872  2.1456
   36MOL   H39231962   6.350   1.257   1.427  3.7077  4.9741 -1.4030
   36MOL   H39331963   5.933   1.302   1.334  0.3447 -1.0923  0.9811
   36MOL   H39431964   6.005   1.321   1.087  1.0960  1.4134 -0.8148
   36MOL   H39531965   5.861   1.356   1.633 -1.6126  0.2626  1.2452
   36MOL   H39631966   5.649   1.239   1.698  1.6178 -0.1618  2.3945
   36MOL   H39731967   5.844   0.859   1.626  3.1642  0.0859 -0.9859
   36MOL   H39831968   6.053   0.975   1.563  0.1919  0.0064 -0.6726
   36MOL   H39931969   5.381   0.951   1.772 -1.0534 -1.6292  0.3941
   36MOL   H40031970   5.180   0.899   1.625 -0.3847  0.2921 -0.6472
   36MOL   H40131971   5.451   0.924   1.284 -0.1594 -0.8517  0.1466
   36MOL   H40231972   5.630   0.966   1.426  0.3981  0.4232  1.5505
   36MOL   H40331973   5.067   1.039   1.446  1.8217 -1.0480  0.4495
   36MOL   H40431974   4.852   0.993   1.330  0.7912  0.0339  3.7986
   36MOL   H40531975   5.053   0.666   1.120 -0.3833 -0.3946  0.7100
   36MOL   H40631976   5.266   0.710   1.256  0.7626  0.1934  2.1417
   36MOL   C40731977   4.802   0.667   1.095  0.1123  0.4793 -0.3016
   36MOL   C40831978   4.809   0.681   0.952  0.4910  0.2809 -0.0794
   36MOL   C40931979   4.806   0.566   0.872 -1.3931 -0.2415  0.6418
   36MOL   C41031980   4.803   0.440   0.931 -0.0825 -0.3118 -0.0774
   36MOL   C41131981   4.802   0.428   1.072  0.4606 -0.0054  0.5441
   36MOL   C41231982   4.795   0.541   1.151  0.0761  0.5925  0.7054
   36MOL   S41331983   4.805   0.302   0.827  0.0802  0.1593  0.2724
   36MOL   O41431984   4.932   0.231   0.867  0.0620 -0.0595  0.1512
   36MOL   O41531985   4.793   0.351   0.689  0.0845  0.3599  0.1430
   36MOL   C41631986   4.662   0.199   0.874  0.0947 -0.0831 -0.8879
   36MOL   C41731987   4.531   0.259   0.881  0.0592  0.6589  0.6147
   36MOL   C41831988   4.419   0.188   0.932  0.7599 -0.0320 -0.0722
   36MOL   C41931989   4.440   0.055   0.972  0.1997  0.9602 -0.3324
   36MOL   C42031990   4.564   8.353   0.951  0.3751  0.2007 -0.4705
   36MOL   C42131991   4.675   0.063   0.916  0.3995  0.0652  0.8135
   36MOL   O42231992   4.326   8.354   1.025 -0.9151  0.1788  0.0005
   36MOL   C42331993   4.264   8.290   0.920  0.2615  0.2715 -0.5835
   36MOL   C42431994   4.176   8.359   0.838 -0.7391 -0.1101  0.3603
   36MOL   C42531995   4.109   8.288   0.740 -0.3325 -0.2130  0.6168
   36MOL   C42631996   4.139   8.155   0.712  0.2973 -0.0426  1.1145
   36MOL   C42731997   4.241   8.091   0.789  0.1947  0.2015  0.4117
   36MOL   C42831998   4.298   8.160   0.895 -0.0763  0.0112  0.5581
   36MOL   C42931999   4.066   8.081   0.600  0.3985 -0.5581  0.9579
   36MOL   C43032000   4.139   7.993   0.512  0.4343  0.3331  0.0576
   36MOL   C43132001   4.082   7.936   0.401 -0.5766  0.7732 -0.3302
   36MOL   C43232002   3.946   7.963   0.368  0.8470  0.8643 -0.8227
   36MOL   C43332003   3.869   8.047   0.450 -0.6784  0.5686 -0.4095
   36MOL   C43432004   3.931   8.096   0.567  0.0138 -0.2478  0.5161
   36MOL   O43532005   3.887   7.902   0.264 -0.3341  0.0479 -0.3962
   36MOL   H43632006   4.825   0.776   0.903 -2.6553  1.0969  0.3450
   36MOL   H43732007   4.813   0.580   0.765 -1.6037  1.7305  0.8606
   36MOL   H43832008   4.782   0.330   1.112  0.3853  0.0413  0.6203
   36MOL   H43932009   4.810   0.516   1.255  0.7873  0.2333  0.5213
   36MOL   H44032010   4.526   0.362   0.853  0.6795  0.7038  0.6576
   36MOL   H44132011   4.322   0.236   0.940 -0.0187 -1.8449  1.9077
   36MOL   H44232012   4.574   8.246   0.961  0.3948  0.3518  1.2389
   36MOL   H44332013   4.774   0.021   0.913 -0.0217 -0.8253 -0.7566
   36MOL   H44432014   4.154   0.096   0.860  0.0316  0.2064 -0.3138
   36MOL   H44532015   4.027   8.334   0.687 -1.7785 -2.7581  0.5938
   36MOL   H44632016   4.258   7.985   0.784 -0.1334  0.1531  0.3382
   36MOL   H44732017   4.380   8.113   0.946 -1.2066 -2.3142  0.2889
   36MOL   H44832018   4.244   7.981   0.532  0.5378 -1.0087 -1.2386
   36MOL   H44932019   4.143   7.878   0.333  0.2521  1.9662 -0.6081
   36MOL   H45032020   3.764   8.062   0.428 -0.6061  0.6029 -0.7268
   36MOL   H45132021   3.882   8.176   0.621  0.8241  1.7545 -1.7063
   36MOL   C45232022   3.819   7.971   0.169  0.3517  0.3827 -1.1717
   36MOL   C45332023   3.873   8.075   0.093  0.1933 -0.0630  0.2936
   36MOL   C45432024   3.796   8.164   0.012 -0.3632  0.7344  0.8253
   36MOL   C45532025   3.660   8.141   0.009 -0.1904  0.2678 -0.4253
   36MOL   C45632026   3.601   8.033   0.076 -0.4176  0.3497 -0.1148
   36MOL   C45732027   3.680   7.951   0.165 -0.2981 -0.7775  0.3690
   36MOL   S45832028   3.556   8.231   8.268  0.1181  0.3023 -0.1221
   36MOL   O45932029   3.420   8.224   8.324 -0.9023 -0.1988 -0.9306
   36MOL   O46032030   3.580   8.175   8.135 -0.1231 -0.3250 -0.1239
   36MOL   C46132031   3.603   0.036   8.271 -0.0063 -0.4006 -0.1400
   36MOL   C46232032   3.632   0.107   8.152 -0.0484  1.0964  0.5165
   36MOL   C46332033   3.653   0.245   8.151 -0.5694 -0.1249 -0.2101
   36MOL   C46432034   3.665   0.316   8.270  0.3080  0.4836  0.5069
   36MOL   C46532035   3.635   0.244   0.027 -0.4053 -0.1814 -0.3635
   36MOL   C46632036   3.593   0.106   0.028 -0.6255  0.1539 -0.1240
   36MOL   O46732037   3.691   0.450   8.267 -0.7587  0.3352 -0.0044
   36MOL   C46832038   3.633   0.534   8.350 -0.8428 -0.0063 -0.6584
   36MOL   C46932039   3.496   0.559   8.324 -0.1923  0.5293 -0.6793
   36MOL   C47032040   3.423   0.631   0.054 -1.0103  0.2209 -0.4571
   36MOL   C47132041   3.488   0.670   0.177 -0.2899  0.8374 -0.2274
   36MOL   C47232042   3.627   0.667   0.185 -0.2226 -0.7365  0.0514
   36MOL   C47332043   3.703   0.591   0.095  0.2552  0.2237 -0.4093
   36MOL   C47432044   3.415   0.731   0.290  0.9465 -0.7608 -0.5652
   36MOL   C47532045   3.472   0.833   0.369  0.0483  0.3297  0.2518
   36MOL   C47632046   3.397   0.894   0.464 -0.3616 -0.4070  0.0416
   36MOL   C47732047   3.259   0.873   0.489 -0.6108 -0.4171  0.5293
   36MOL   C47832048   3.207   0.771   0.416  0.4850 -0.0433  0.5340
   36MOL   C47932049   3.281   0.696   0.321  0.4221 -0.1519  0.1182
   36MOL   O48032050   3.180   0.944   0.571  0.3636  0.4396 -0.5744
   36MOL   H48132051   3.979   8.096   0.103  0.1043 -0.6810  2.7045
   36MOL   H48232052   3.843   8.244   8.322 -0.2332 -0.4265 -0.7516
   36MOL   H48332053   3.494   8.017   0.078 -0.1028 -2.1112 -1.0370
   36MOL   H48432054   3.632   7.872   0.220  1.0345 -1.1393  1.0308
   36MOL   H48532055   3.644   0.053   8.060  2.7740  1.8851  0.3894
   36MOL   H48632056   3.676   0.300   8.061  1.0845  0.0188  0.2874
   36MOL   H48732057   3.635   0.288   0.126  1.3917  0.0868 -0.4656
   36MOL   H48832058   3.570   0.053   0.118 -0.4854 -2.0383 -1.3480
   36MOL   H48932059   3.442   0.518   8.240 -2.5195  1.2063  0.4362
   36MOL   H49032060   3.316   0.643   0.050 -0.9163  0.7992 -1.3687
   36MOL   H49132061   3.682   0.695   0.274 -0.6729 -0.6894  0.3193
   36MOL   H49232062   3.804   0.555   0.111 -0.1590 -0.9230 -0.3164
   36MOL   H49332063   3.570   0.875   0.351 -0.0134  1.0152  1.4095
   36MOL   H49432064   3.433   0.977   0.523 -4.9242  0.2373  2.1095
   36MOL   H49532065   3.103   0.746   0.431  0.2804 -0.4836 -1.5259
   36MOL   H49632066   3.248   0.608   0.267  0.1555  0.2726 -0.4209
   36MOL   C49732067   3.077   1.014   0.511 -0.6291  0.4260 -1.0751
   36MOL   C49832068   3.110   1.126   0.433  0.1102 -0.1915  0.2934
   36MOL   C49932069   3.001   1.204   0.377 -0.5031 -0.1198 -0.8226
   36MOL   C50032070   2.866   1.177   0.414 -0.0185  0.3711  0.0574
   36MOL   C50132071   2.836   1.058   0.491 -0.1620  0.3275 -0.3988
   36MOL   C50232072   2.943   0.985   0.545 -0.0449 -0.7981 -0.3978
   36MOL   S50332073   2.744   1.283   0.338  0.0626  0.0968  0.3152
   36MOL   O50432074   2.685   1.199   0.228 -0.4220  0.1401 -0.2821
   36MOL   O50532075   2.801   1.414   0.307 -0.1765  0.0332  0.7554
   36MOL   C50632076   2.615   1.304   0.461 -0.1010 -0.3043 -0.2405
   36MOL   C50732077   2.481   1.273   0.424  0.9691 -0.6346 -0.0369
   36MOL   C50832078   2.374   1.288   0.517 -0.4555  0.7425  0.3996
   36MOL   C50932079   2.413   1.337   0.648 -0.3437  0.7408  0.6748
   36MOL   C51032080   2.543   1.366   0.683 -0.4563  0.6126 -0.2009
   36MOL   C51132081   2.647   1.343   0.593 -0.1050  0.7392  0.0275
   36MOL   O51232082   2.320   1.342   0.746  0.0801 -0.5224  0.8896
   36MOL   C51332083   2.304   1.245   0.840  0.6246 -0.3689 -0.1377
   36MOL   C51432084   2.324   1.108   0.808  0.1145  0.5062 -0.8325
   36MOL   C51532085   2.301   1.014   0.910 -0.1475  0.2480  0.1799
   36MOL   C51632086   2.270   1.051   1.044 -0.7412  0.1780  0.0418
   36MOL   C51732087   2.242   1.188   1.068 -0.6411 -0.3185 -0.2269
   36MOL   C51832088   2.255   1.283   0.967 -0.1800  0.2390 -0.4480
   36MOL   C51932089   2.267   0.947   1.151  0.6302  0.3607  0.0931
   36MOL   C52032090   2.156   0.934   1.238  0.7148 -0.3685 -0.1380
   36MOL   C52132091   2.161   0.836   1.340  0.0347 -0.3077  0.0319
   36MOL   C52232092   2.277   0.757   1.359  0.2598 -0.2121  0.3225
   36MOL   C52332093   2.389   0.774   1.275 -0.0969  0.3207  0.2937
   36MOL   C52432094   2.387   0.869   1.169  0.3207  0.2554  0.0740
   36MOL   O52532095   2.291   0.658   1.457  0.2525  0.0812  0.3946
   36MOL   H52632096   3.214   1.144   0.408 -0.1338 -1.4140 -1.7019
   36MOL   H52732097   3.019   1.281   0.302  0.7047  1.1752  0.7557
   36MOL   H52832098   2.733   1.028   0.487 -0.3445  1.1479 -3.5587
   36MOL   H52932099   2.921   0.897   0.603  0.1783  0.4471  1.6050
   36MOL   H53032100   2.462   1.236   0.324 -0.4118 -0.3983  0.1292
   36MOL   H53132101   2.272   1.260   0.501 -0.0717  0.1180 -1.0002
   36MOL   H53232102   2.564   1.398   0.784 -0.2917  1.1722 -0.4103
   36MOL   H53332103   2.748   1.369   0.619  0.0635  0.2427 -0.1188
   36MOL   H53432104   2.355   1.078   0.709  2.9948  2.0363 -0.4645
   36MOL   H53532105   2.325   0.910   0.891  0.2089  0.1696  1.0394
   36MOL   H53632106   2.222   1.221   1.169  1.0028 -1.3953  0.4614
   36MOL   H53732107   2.233   1.388   0.980  0.8926  0.2887  1.0225
   36MOL   H53832108   2.072   1.001   1.232 -0.4834 -1.8002  0.2318
   36MOL   H53932109   2.082   0.830   1.414 -0.8003 -0.3810 -0.8582
   36MOL   H54032110   2.474   0.708   1.285  0.3601  0.6953 -1.0150
   36MOL   H54132111   2.472   0.887   1.106 -1.1877  0.6086 -1.9169
   36MOL   C54232112   2.172   0.596   1.501  0.0764 -0.5876 -0.3673
   36MOL   C54332113   2.122   0.482   1.440  0.0992  0.3627  0.3447
   36MOL   C54432114   2.013   0.414   1.497  0.6481 -0.6073  0.4560
   36MOL   C54532115   1.936   0.461   1.608  0.1678 -0.2971 -0.4140
   36MOL   C54632116   1.988   0.584   1.660 -0.1424  0.2873 -0.7140
   36MOL   C54732117   2.100   0.645   1.608 -0.0481  0.0124  0.2056
   36MOL   S54832118   1.789   0.381   1.664  0.1815  0.4971  0.4020
   36MOL   O54932119   1.824   0.300   1.783  0.5341 -0.2403 -1.1073
   36MOL   O55032120   1.722   0.324   1.549  0.2148  0.4938 -0.0149
   36MOL   C55132121   1.681   0.521   1.716  0.4049  0.5309  0.2833
   36MOL   C55232122   1.663   0.547   1.857 -0.1397  0.1306  0.7760
   36MOL   C55332123   1.605   0.666   1.897  1.1406 -0.2251 -0.0169
   36MOL   C55432124   1.544   0.746   1.803 -0.4175 -0.2007  0.4650
   36MOL   C55532125   1.560   0.721   1.666  0.2758  0.0932 -0.2663
   36MOL   C55632126   1.621   0.603   1.622  0.7264  0.1879 -0.3566
   36MOL   O55732127   1.484   0.859   1.852 -0.3679 -0.2191 -0.1440
   36MOL   C55832128   1.504   0.974   1.776 -0.7452 -0.0703 -0.3039
   36MOL   C55932129   1.396   1.052   1.741 -0.6034  0.2087 -0.0175
   36MOL   C56032130   1.414   1.164   1.657 -0.0797 -0.6090  0.5406
   36MOL   C56132131   1.535   1.200   1.605  0.1266 -0.2752  0.1525
   36MOL   C56232132   1.643   1.120   1.634  0.5602 -0.1361 -0.3993
   36MOL   C56332133   1.630   1.012   1.726 -0.2900 -0.0258  0.4068
   36MOL   C56432134   1.548   1.319   1.524  0.4997 -0.6907 -0.0503
   36MOL   C56532135   1.474   1.438   1.550  0.3973  0.4806 -0.5757
   36MOL   C56632136   1.484   1.548   1.462 -0.9078 -0.0148 -1.3217
   36MOL   C56732137   1.578   1.549   1.356  0.2770  0.1873 -0.1222
   36MOL   C56832138   1.648   1.430   1.328  0.6650 -0.7693  0.7339
   36MOL   C56932139   1.630   1.317   1.405  0.1673 -0.5755 -0.1190
   36MOL   O57032140   1.585   1.644   1.263 -0.6188  0.7460  0.6575
   36MOL   H57132141   2.186   0.447   1.361 -1.6937  1.9282 -1.8679
   36MOL   H57232142   1.978   0.327   1.443 -1.1276  0.9462 -0.9557
   36MOL   H57332143   1.954   0.626   1.753 -1.7530 -0.6542 -0.8549
   36MOL   H57432144   2.141   0.732   1.659 -0.9061 -0.2100  1.2791
   36MOL   H57532145   1.690   0.472   1.930  1.2854 -1.2704 -1.1362
   36MOL   H57632146   1.582   0.692   1.999 -2.5453  0.6486 -0.9844
   36MOL   H57732147   1.523   0.789   1.591  2.2836 -1.3032 -2.5632
   36MOL   H57832148   1.643   0.587   1.517  1.5153 -2.4235  0.1629
   36MOL   H57932149   1.301   1.026   1.785  0.4010 -1.3670  1.2935
   36MOL   H58032150   1.341   1.239   1.630 -0.3763 -1.4799 -1.1451
   36MOL   H58132151   1.741   1.133   1.592  1.9085 -0.5420  2.4889
   36MOL   H58232152   1.719   0.958   1.756 -3.1060 -4.0899  2.0027
   36MOL   H58332153   1.399   1.448   1.627  0.5522 -1.5292 -0.1413
   36MOL   H58432154   1.415   1.628   1.484 -1.7178 -1.7506  2.9098
   36MOL   H58532155   1.723   1.435   1.250  0.7642 -0.0079  0.8701
   36MOL   H58632156   1.687   1.226   1.389 -1.4210 -2.1782  2.9200
   36MOL   C58732157   1.568   1.778   1.299  0.2358  0.0710  0.3677
   36MOL   C58832158   1.630   1.837   1.410  0.5096 -0.1443  0.6206
   36MOL   C58932159   1.610   1.971   1.442  0.0272  0.8176  0.1033
   36MOL   C59032160   1.518   2.049   1.367 -0.2073 -0.3259 -0.2510
   36MOL   C59132161   1.447   1.989   1.259  0.3605  0.9837  0.1756
   36MOL   C59232162   1.475   1.853   1.222  0.0365 -0.0985  0.2127
   36MOL   S59332163   1.517   2.223   1.398 -0.1163  0.1618 -0.0098
   36MOL   O59432164   1.504   2.245   1.545 -0.3348  0.7116 -0.0286
   36MOL   O59532165   1.419   2.285   1.307  0.3561 -0.4215  0.0093
   36MOL   C59632166   1.677   2.284   1.345 -0.1841 -0.3961 -0.0387
   36MOL   C59732167   1.764   2.351   1.436 -0.5686 -0.1759 -0.3307
   36MOL   C59832168   1.891   2.397   1.398 -0.3040 -0.1022  0.6560
   36MOL   C59932169   1.938   2.357   1.272  0.1888  0.1761  0.0550
   36MOL   C60032170   1.851   2.289   1.174  0.5931 -0.5297  0.1996
   36MOL   C60132171   1.718   2.259   1.213 -0.3430 -1.0497 -0.2640
   36MOL   O60232172   2.066   2.383   1.226  0.5247 -0.2664  0.1966
   36MOL   C60332173   2.129   2.507   1.218 -0.1533  0.3901 -0.5643
   36MOL   C60432174   2.068   2.615   1.153  0.1330  0.0215 -0.1345
   36MOL   C60532175   2.125   2.744   1.147  0.1245  0.0067  0.0557
   36MOL   C60632176   2.236   2.774   1.228 -0.4645 -0.1964  0.0617
   36MOL   C60732177   2.296   2.663   1.295  0.5179 -0.4115  0.6540
   36MOL   C60832178   2.251   2.530   1.281 -0.1169  0.0588  0.7263
   36MOL   C60932179   2.294   2.912   1.230  0.1920 -0.3776  0.4827
   36MOL   C61032180   2.415   2.932   1.297  0.1507  0.1103  0.4864
   36MOL   C61132181   2.478   3.055   1.298 -0.8094 -0.5545 -0.3965
   36MOL   C61232182   2.414   3.166   1.235  0.2934  0.1842  0.3994
   36MOL   C61332183   2.287   3.152   1.175 -0.0947  0.0361  0.0552
   36MOL   C61432184   2.222   3.026   1.177 -0.0534  0.3581 -0.3904
   36MOL   O61532185   2.473   3.292   1.241  0.1683 -0.0202 -0.4297
   36MOL   H61632186   1.689   1.766   1.466  0.8596 -2.0197 -1.9983
   36MOL   H61732187   1.668   2.019   1.520  1.2553  0.8125 -0.8035
   36MOL   H61832188   1.378   2.039   1.192  0.3184  1.2886  0.4440
   36MOL   H61932189   1.425   1.809   1.137  1.7082 -1.6531 -0.0141
   36MOL   H62032190   1.731   2.367   1.538 -0.9995  1.5809 -0.7339
   36MOL   H62132191   1.954   2.449   1.468 -0.5494  2.0365 -0.6710
   36MOL   H62232192   1.890   2.266   1.076  0.8758 -0.3951  0.2796
   36MOL   H62332193   1.650   2.211   1.145 -0.3356  1.3281 -2.0212
   36MOL   H62432194   1.981   2.588   1.094  1.9528 -0.2121 -2.8191
   36MOL   H62532195   2.067   2.816   1.091 -1.9570 -1.2087  0.5843
   36MOL   H62632196   2.378   2.674   1.365 -0.0542  3.8312  0.7942
   36MOL   H62732197   2.296   2.458   1.348  0.9097 -0.1372 -0.1696
   36MOL   H62832198   2.461   2.844   1.339 -1.0580 -1.1025 -0.6846
   36MOL   H62932199   2.579   3.067   1.335 -0.8994 -0.8431 -0.0429
   36MOL   H63032200   2.251   3.237   1.119  1.8645  0.7048 -0.2247
   36MOL   H63132201   2.127   3.016   1.127  1.2549 -2.1498 -2.5147
   36MOL   C63232202   2.612   3.287   1.221  0.0253 -0.5326 -0.3442
   36MOL   C63332203   2.705   3.339   1.319 -0.3372 -0.1920 -0.5577
   36MOL   C63432204   2.845   3.339   1.305  0.7333 -0.8419 -0.0200
   36MOL   C63532205   2.903   3.282   1.193  0.1311  0.5346  0.5587
   36MOL   C63632206   2.820   3.234   1.088  0.0764 -0.8070  0.8105
   36MOL   C63732207   2.676   3.243   1.099  0.2978  0.3247  0.0959
   36MOL   S63832208   3.079   3.260   1.187 -0.0951 -0.2163 -0.1802
   36MOL   O63932209   3.138   3.372   1.262 -0.2416 -0.1818  0.1698
   36MOL   O64032210   3.130   3.234   1.054  0.6095 -0.5971 -0.2121
   36MOL   C64132211   3.107   3.115   1.289  0.2643  0.2947  0.4129
   36MOL   C64232212   3.143   2.994   1.232  0.2981  0.3470  0.2183
   36MOL   C64332213   3.177   2.887   1.317 -0.1524  0.1974  0.2086
   36MOL   C64432214   3.172   2.898   1.460 -0.2174  0.6870 -0.3336
   36MOL   C64532215   3.132   3.019   1.515  0.1950 -0.0442  0.2689
   36MOL   C64632216   3.100   3.127   1.428  0.7414  0.3142 -0.0034
   36MOL   O64732217   3.221   2.794   1.543 -0.3978 -0.4759 -0.0857
   36MOL   C64832218   3.195   2.660   1.518 -0.7370 -0.3355  0.8072
   36MOL   C64932219   3.302   2.570   1.487  0.3119  0.8923 -0.2678
   36MOL   C65032220   3.274   2.438   1.453  0.8676 -0.0051 -0.2879
   36MOL   C65132221   3.137   2.393   1.447 -0.0009  0.8873 -0.4563
   36MOL   C65232222   3.033   2.490   1.466  0.5663 -0.3769 -0.1619
   36MOL   C65332223   3.058   2.621   1.498  0.2368  0.1105  0.4468
   36MOL   C65432224   3.113   2.250   1.420  0.4766  0.0205  0.0676
   36MOL   C65532225   3.028   2.207   1.316  0.7121  0.5681  0.2722
   36MOL   C65632226   3.008   2.067   1.297 -0.9230  0.5184  0.9172
   36MOL   C65732227   3.076   1.972   1.368  1.3742  0.4941  0.0477
   36MOL   C65832228   3.168   2.012   1.470  0.0341  0.1777 -0.0974
   36MOL   C65932229   3.185   2.151   1.498  0.1937  0.1108  0.1858
   36MOL   O66032230   3.075   1.842   1.322 -0.0076 -0.1565  0.8891
   36MOL   H66132231   2.669   3.389   1.407 -1.3398  2.0109 -2.1599
   36MOL   H66232232   2.897   3.373   1.393  0.3352 -0.5879  0.1190
   36MOL   H66332233   2.873   3.186   1.007 -1.3009 -1.6651  0.3881
   36MOL   H66432234   2.613   3.194   1.026 -0.1034  0.8135  0.1061
   36MOL   H66532235   3.160   2.981   1.126 -1.4152 -0.7867  0.0594
   36MOL   H66632236   3.211   2.788   1.291 -2.5740 -1.0695  1.8012
   36MOL   H66732237   3.132   3.035   1.622  3.4412  0.2048  0.2863
   36MOL   H66832238   3.071   3.224   1.466 -1.2631  0.3766 -1.5712
   36MOL   H66932239   3.403   2.609   1.485  0.5189  0.3054 -2.6478
   36MOL   H67032240   3.362   2.378   1.433 -0.3614 -1.7238 -0.5980
   36MOL   H67132241   2.932   2.462   1.441  0.9455 -1.0188 -1.0317
   36MOL   H67232242   2.980   2.695   1.507 -0.2072 -0.4407  1.1277
   36MOL   H67332243   2.982   2.279   1.250  0.1382  0.7668  0.8941
   36MOL   H67432244   2.948   2.022   1.219  1.8170 -0.2847 -0.8133
   36MOL   H67532245   3.231   1.946   1.528  0.7282  0.9519  0.0403
   36MOL   H67632246   3.257   2.174   1.574  1.2163 -1.6415 -0.2171
   36MOL   C67732247   3.192   1.788   1.284  0.1651  0.5200  0.0836
   36MOL   C67832248   3.214   1.647   1.298  0.0381 -0.3623 -0.4393
   36MOL   C67932249   3.320   1.583   1.236 -0.6261 -0.1942  0.7565
   36MOL   C68032250   3.411   1.666   1.167  0.5696  1.1010  0.4480
   36MOL   C68132251   3.400   1.804   1.152 -0.3445 -0.2549 -0.1294
   36MOL   C68232252   3.290   1.866   1.214 -0.1513  0.0193  0.2418
   36MOL   S68332253   3.546   1.589   1.097 -0.3218 -0.1399 -0.4535
   36MOL   O68432254   3.604   1.671   0.990  0.0010 -0.8014 -0.3923
   36MOL   O68532255   3.512   1.451   1.072 -0.1564 -0.4319 -0.1048
   36MOL   C68632256   3.677   1.578   1.222 -0.6978  1.1512 -0.0635
   36MOL   C68732257   3.644   1.560   1.358 -0.0068 -0.4816 -0.4784
   36MOL   C68832258   3.734   1.529   1.459 -0.2065  0.0023 -0.0654
   36MOL   C68932259   3.870   1.531   1.419 -0.1800 -0.2639 -0.6197
   36MOL   C69032260   3.908   1.549   1.283  0.3175 -0.5625  0.5922
   36MOL   C69132261   3.811   1.570   1.182 -0.3341 -0.1082  0.1558
   36MOL   O69232262   3.963   1.504   1.518  0.0270  0.2009  0.1849
   36MOL   C69332263   4.036   1.603   1.576 -0.7912 -0.9897 -0.4793
   36MOL   C69432264   3.992   1.736   1.579 -0.2627 -0.0840 -0.8109
   36MOL   C69532265   4.072   1.833   1.636 -0.0111  1.0695 -0.1169
   36MOL   C69632266   4.204   1.802   1.682 -0.3970 -0.3543  1.1294
   36MOL   C69732267   4.246   1.664   1.676 -0.1292 -1.0693  0.4784
   36MOL   C69832268   4.164   1.570   1.619  0.4201  0.6206 -0.1715
   36MOL   C69932269   4.284   1.906   1.745 -0.8084 -0.3409  0.2471
   36MOL   C70032270   4.257   2.044   1.711 -0.8037  0.5410  0.4841
   36MOL   C70132271   4.332   2.147   1.773 -0.7905  0.0261 -0.0073
   36MOL   C70232272   4.434   2.117   1.862  0.0138  0.9313 -0.0718
   36MOL   C70332273   4.463   1.983   1.896  0.4842 -0.1333 -0.2109
   36MOL   C70432274   4.393   1.872   1.835 -0.0402 -0.1056  0.4702
   36MOL   O70532275   4.505   2.216   1.917  0.7306 -0.2367 -0.3337
   36MOL   H70632276   3.141   1.585   1.349 -0.9842 -0.9532 -2.5392
   36MOL   H70732277   3.328   1.475   1.226 -0.4281  0.0977 -2.7370
   36MOL   H70832278   3.464   1.867   1.092 -1.5219  2.5631  1.4977
   36MOL   H70932279   3.280   1.973   1.207  2.2362  0.2136 -0.7828
   36MOL   H71032280   3.540   1.553   1.386 -0.0857  0.2653 -0.5792
   36MOL   H71132281   3.708   1.511   1.562  1.0413 -1.8908 -0.0440
   36MOL   H71232282   4.011   1.563   1.256  0.2869 -1.2953  0.0767
   36MOL   H71332283   3.833   1.582   1.077  0.1872  1.0940  0.3996
   36MOL   H71432284   3.900   1.765   1.532  0.1033 -0.0878 -1.5373
   36MOL   H71532285   4.025   1.930   1.636 -1.4202  0.4149 -1.6407
   36MOL   H71632286   4.348   1.637   1.700  0.3677 -0.5383 -1.0326
   36MOL   H71732287   4.195   1.468   1.602  0.6114  0.5549  0.5538
   36MOL   H71832288   4.190   2.065   1.629  2.2964  4.0867 -1.3092
   36MOL   H71932289   4.318   2.249   1.740 -3.7585 -0.6524 -0.9772
   36MOL   H72032290   4.543   1.957   1.964 -1.4206 -1.6805  1.4851
   36MOL   H72132291   4.427   1.772   1.855 -0.4542 -1.0156 -2.9814
   36MOL   C72232292   4.428   2.310   1.984 -0.2312  0.7230 -0.5695
   36MOL   C72332293   4.333   2.271   2.083  0.1693 -0.1151 -0.7090
   36MOL   C72432294   4.268   2.367   2.165 -0.3758  0.0691 -0.0960
   36MOL   C72532295   4.307   2.503   2.153 -0.1230  0.5729 -0.1150
   36MOL   C72632296   4.405   2.542   2.054 -0.2068  0.2067 -1.0280
   36MOL   C72732297   4.467   2.443   1.972  0.2460 -0.3179  0.1195
   36MOL   S72832298   4.251   2.628   2.275  0.3150 -0.7640  0.4672
   36MOL   O72932299   4.363   2.660   2.369 -0.2867 -1.0351 -0.1505
   36MOL   O73032300   4.124   2.576   2.331  0.0664 -0.1703 -0.0975
   36MOL   C73132301   4.207   2.771   2.186 -0.8647  0.7933  0.4010
   36MOL   C73232302   4.300   2.880   2.182  0.1404  0.0346  0.5613
   36MOL   C73332303   4.262   2.998   2.113  0.3922 -0.4687 -0.4286
   36MOL   C73432304   4.143   3.003   2.049  0.0476 -0.6125 -0.1773
   36MOL   C73532305   4.062   2.884   2.040 -0.4274 -0.3230  0.0013
   36MOL   C73632306   4.091   2.762   2.110 -0.1348 -0.1285 -0.1808
   36MOL   O73732307   4.100   3.120   1.998  0.1267  0.6867 -0.0314
   36MOL   C73832308   3.977   3.175   2.024  0.2894  0.5398  0.3330
   36MOL   C73932309   3.964   3.245   2.142 -0.3207 -0.0912  0.7209
   36MOL   C74032310   3.838   3.283   2.186 -0.2983  0.1388  0.5335
   36MOL   C74132311   3.726   3.278   2.109  0.1295  0.2259  0.6415
   36MOL   C74232312   3.740   3.206   1.990 -0.2415 -0.4546 -0.3838
   36MOL   C74332313   3.859   3.142   1.955  0.3333  0.6339  0.2449
   36MOL   C74432314   3.604   3.349   2.143  0.5130  0.6197 -0.6081
   36MOL   C74532315   3.480   3.288   2.164  0.6036 -0.4545 -0.1820
   36MOL   C74632316   3.367   3.362   2.194 -0.0568 -0.1503 -0.9347
   36MOL   C74732317   3.381   3.502   2.215  0.2020 -0.0730 -0.5115
   36MOL   C74832318   3.506   3.566   2.211  0.6361 -0.5281  0.2431
   36MOL   C74932319   3.619   3.490   2.174 -0.2166  0.2985 -0.4682
   36MOL   O75032320   3.273   3.575   2.257 -0.1855  0.0597 -0.2732
   36MOL   H75132321   4.312   2.166   2.097  1.8056 -0.6727 -2.3244
   36MOL   H75232322   4.191   2.340   2.236  0.9778 -2.0309  0.6343
   36MOL   H75332323   4.427   2.648   2.050 -3.4226  1.1125  2.2623
   36MOL   H75432324   4.534   2.468   1.891 -1.6939 -2.0826 -2.1096
   36MOL   H75532325   4.394   2.876   2.235  0.3083 -1.8927  0.1444
   36MOL   H75632326   4.331   3.082   2.119  0.3879 -0.4661 -0.4149
   36MOL   H75732327   3.974   2.891   1.977 -1.3404 -0.7071  1.2165
   36MOL   H75832328   4.018   2.682   2.109 -0.3377  0.0593 -0.6966
   36MOL   H75932329   4.046   3.258   2.210 -0.5285  1.1575  0.7540
   36MOL   H76032330   3.858   3.341   2.275  1.3026  0.0876  0.2257
   36MOL   H76132331   3.647   3.204   1.936 -1.9514  0.5117  2.4272
   36MOL   H76232332   3.865   3.071   1.874  0.0486 -0.5765  1.2703
   36MOL   H76332333   3.469   3.182   2.149 -1.7600 -0.2877  0.1717
   36MOL   H76432334   3.267   3.323   2.205 -0.1635  0.0482 -1.1980
   36MOL   H76532335   3.512   3.673   2.222  0.9950 -0.4387 -0.7787
   36MOL   H76632336   3.711   3.546   2.162 -0.0016  0.1493  0.4535
   36MOL   C76732337   3.163   3.565   2.170  0.1145  0.1499 -0.2149
   36MOL   C76832338   3.044   3.511   2.226  0.3420 -0.5884 -0.1790
   36MOL   C76932339   2.937   3.494   2.138  0.1133  0.8681  0.3640
   36MOL   C77032340   2.953   3.521   1.997  0.7530 -0.1684  0.2636
   36MOL   C77132341   3.073   3.567   1.942 -0.5436  0.7796  0.1821
   36MOL   C77232342   3.178   3.596   2.030 -0.6658 -0.3666  0.9453
   36MOL   S77332343   2.817   3.505   1.886 -0.6263 -0.4693 -0.4913
   36MOL   O77432344   2.823   3.617   1.786 -0.4250  0.7218  0.2961
   36MOL   O77532345   2.703   3.495   1.976  1.1962  0.1078 -0.2929
   36MOL   C77632346   2.833   3.348   1.806 -0.8478 -0.1979  0.1059
   36MOL   C77732347   2.754   3.321   1.694  0.7177  0.1950  0.1842
   36MOL   C77832348   2.757   3.196   1.630 -0.4204  0.1810 -0.3221
   36MOL   C77932349   2.842   3.096   1.683 -0.0226 -0.7697  0.1811
   36MOL   C78032350   2.924   3.124   1.799  0.1038 -0.3616  0.2098
   36MOL   C78132351   2.916   3.247   1.858 -0.4320  0.2825 -0.2650
   36MOL   O78232352   2.843   2.974   1.613  0.0313  0.0485  0.1941
   36MOL   C78332353   2.751   2.884   1.665  0.3459 -0.3516 -0.4054
   36MOL   C78432354   2.619   2.878   1.620  0.2192 -0.1645 -0.3421
   36MOL   C78532355   2.540   2.773   1.657  0.2896  0.1508  0.1715
   36MOL   C78632356   2.581   2.665   1.737  0.0295  0.4802  0.0791
   36MOL   C78732357   2.713   2.668   1.790  1.4423  0.3547 -0.4133
   36MOL   C78832358   2.794   2.779   1.755  0.3794  0.0042  0.3843
   36MOL   C78932359   2.490   2.556   1.755  0.1406 -0.8615  0.2861
   36MOL   C79032360   2.430   2.493   1.644  0.5533  0.2587 -0.4848
   36MOL   C79132361   2.331   2.393   1.661 -0.4494 -0.4239  0.5002
   36MOL   C79232362   2.290   2.354   1.789  0.4675 -0.1035  0.6309
   36MOL   C79332363   2.359   2.410   1.899  0.5221 -0.3622 -0.0582
   36MOL   C79432364   2.457   2.510   1.883  0.1118 -0.0683  0.1275
   36MOL   O79532365   2.187   2.272   1.815  0.3768  0.1725  0.8404
   36MOL   H79632366   3.041   3.482   2.330  1.9263 -1.3169 -0.3331
   36MOL   H79732367   2.838   3.468   2.174  1.2718 -0.0351  3.0045
   36MOL   H79832368   3.083   3.580   1.835  1.6182 -2.4442 -0.0711
   36MOL   H79932369   3.270   3.625   1.981  0.0648 -2.6708  0.8621
   36MOL   H80032370   2.685   3.388   1.647  0.6586  0.5699  0.7903
   36MOL   H80132371   2.693   3.184   1.544 -0.7768  0.0185 -0.0310
   36MOL   H80232372   2.991   3.046   1.831 -0.1096 -0.6511 -0.0340
   36MOL   H80332373   2.977   3.266   1.945  0.8081 -2.8112 -0.4153
   36MOL   H80432374   2.577   2.957   1.560 -0.5248 -0.0648  0.3046
   36MOL   H80532375   2.439   2.770   1.620  0.5228  1.0518 -0.5499
   36MOL   H80632376   2.748   2.582   1.845 -0.5770 -0.3741 -0.2281
   36MOL   H80732377   2.897   2.778   1.790  0.5613  1.6420 -0.0611
   36MOL   H80832378   2.459   2.516   1.543 -1.3432 -0.7661 -1.2899
   36MOL   H80932379   2.288   2.344   1.575  1.8813 -2.2269  0.3174
   36MOL   H81032380   2.322   2.384   1.997  0.9767  0.4881  0.3389
   36MOL   H81132381   2.503   2.555   1.970  0.1086 -0.4358  0.3208
   36MOL   C81232382   2.154   2.181   1.720  0.2306 -0.0204  0.4566
   36MOL   C81332383   2.239   2.080   1.672  0.1377  0.5916  0.5231
   36MOL   C81432384   2.199   1.995   1.569  0.0643  0.5741  0.1069
   36MOL   C81532385   2.066   2.006   1.517 -0.5144  0.7639 -0.5670
   36MOL   C81632386   1.973   2.084   1.577  0.0853 -0.3109  0.0900
   36MOL   C81732387   2.026   2.186   1.663  0.6063  0.9170 -0.4396
   36MOL   S81832388   2.022   1.935   1.357  0.1308  0.0120 -0.1501
   36MOL   O81932389   2.135   1.950   1.266 -0.1895 -0.3615 -0.0759
   36MOL   O82032390   1.890   1.980   1.303 -0.1677 -0.7812  0.3121
   36MOL   C82132391   1.992   1.757   1.397 -0.5301 -0.0930  0.3087
   36MOL   C82232392   1.939   1.710   1.517 -1.0120  0.0096  0.4514
   36MOL   C82332393   1.927   1.567   1.536  0.4606 -0.0930  0.4115
   36MOL   C82432394   1.968   1.472   1.436  0.4462  0.0653 -0.6996
   36MOL   C82532395   2.012   1.523   1.312  0.3065  0.3970 -0.2888
   36MOL   C82632396   2.019   1.663   1.291  1.0202 -0.2003  0.1760
   36MOL   O82732397   1.962   1.338   1.464  0.6284 -0.1882  0.5702
   36MOL   C82832398   2.067   1.283   1.536  0.1366  1.5684  0.3133
   36MOL   C82932399   2.180   1.222   1.473 -0.0195 -0.5994 -0.1102
   36MOL   C83032400   2.267   1.147   1.548  0.5885  0.0264 -0.1084
   36MOL   C83132401   2.250   1.121   1.692 -0.3551  0.5421 -0.2572
   36MOL   C83232402   2.133   1.180   1.750 -0.1323  0.7746 -0.8233
   36MOL   C83332403   2.044   1.259   1.672 -0.1376 -0.4096 -0.3682
   36MOL   C83432404   2.344   1.039   1.776  0.0673 -0.3198  0.7929
   36MOL   C83532405   2.393   1.090   1.899 -0.3803  0.1972 -0.5131
   36MOL   C83632406   2.478   1.003   1.984  0.2007  0.3733 -0.2992
   36MOL   C83732407   2.526   0.872   1.933 -0.2493 -0.0030 -0.6795
   36MOL   C83832408   2.475   0.830   1.804  0.0011  0.5313 -0.6599
   36MOL   C83932409   2.389   0.914   1.733  0.4507  0.4042 -0.9904
   36MOL   O84032410   2.601   0.794   2.018  0.4049 -0.4061 -0.1631
   36MOL   H84132411   2.343   2.072   1.700  0.6104  1.7810 -0.8413
   36MOL   H84232412   2.276   1.926   1.537  0.0924  0.1606  1.0266
   36MOL   H84332413   1.869   2.083   1.547 -0.0070  0.6934  0.3521
   36MOL   H84432414   1.954   2.258   1.698  0.7020  0.5460  0.5181
   36MOL   H84532415   1.904   1.780   1.591 -0.8024  1.6136 -0.9609
   36MOL   H84632416   1.893   1.530   1.632  0.6377 -2.7202 -0.5046
   36MOL   H84732417   2.043   1.447   1.243  1.7479 -1.8672  2.7670
   36MOL   H84832418   2.049   1.699   1.193  0.2605  1.6113  0.5892
   36MOL   H84932419   2.203   1.231   1.368 -0.4996 -0.9699 -0.2510
   36MOL   H85032420   2.350   1.096   1.500  1.7662  1.1651  0.6928
   36MOL   H85132421   2.105   1.155   1.851  2.3947  1.2116  0.0106
   36MOL   H85232422   1.957   1.298   1.722 -0.3111 -1.1516 -0.0852
   36MOL   H85332423   2.368   1.190   1.932  0.1216  0.7765 -1.8866
   36MOL   H85432424   2.524   1.051   2.069  0.6397  0.5266 -0.6184
   36MOL   H85532425   2.486   0.729   1.767 -1.6627 -0.2784  1.0001
   36MOL   H85632426   2.356   0.880   1.636 -0.8843  1.1961 -0.8190
   36MOL   C85732427   2.539   0.709   2.107  0.4703 -0.2155 -0.7582
   36MOL   C85832428   2.559   0.572   2.102  0.4017 -0.4678  0.0768
   36MOL   C85932429   2.490   0.485   2.184  0.8399  0.2583 -0.9867
   36MOL   C86032430   2.409   0.545   2.287 -0.0267  0.0118 -0.2014
   36MOL   C86132431   2.400   0.685   2.300 -0.0704 -0.1903 -0.1317
   36MOL   C86232432   2.466   0.767   2.205 -0.5953  0.3753 -0.4808
   36MOL   S86332433   2.337   0.443   2.418 -0.4238  0.1203 -0.0632
   36MOL   O86432434   2.336   0.522   2.544 -0.4271 -0.2061 -0.3367
   36MOL   O86532435   2.409   0.315   2.421  0.5081 -0.6375 -0.0083
   36MOL   C86632436   2.163   0.427   2.371 -0.4619  0.3471 -0.2089
   36MOL   C86732437   2.120   0.302   2.326  0.0414  0.4738  0.8037
   36MOL   C86832438   1.985   0.286   2.285  0.2747 -0.4817  0.6276
   36MOL   C86932439   1.890   0.391   2.305  0.6176  0.0009  0.1844
   36MOL   C87032440   1.944   0.515   2.354 -0.2549 -0.1759  0.5656
   36MOL   C87132441   2.078   0.539   2.389 -0.0280  0.3903 -0.1009
   36MOL   O87232442   1.759   0.374   2.273 -0.5144 -0.3745 -0.1071
   36MOL   C87332443   1.659   0.442   2.347  0.2250  0.0025  0.4162
   36MOL   C87432444   1.591   0.370   2.455  0.3405 -1.0106 -0.1118
   36MOL   C87532445   1.492   0.447   2.521  0.3741 -0.4155 -0.7164
   36MOL   C87632446   1.460   0.575   2.491 -1.0097 -0.6212  0.4378
   36MOL   C87732447   1.529   0.644   2.383  0.1506  0.4217 -0.0116
   36MOL   C87832448   1.631   0.573   2.313  0.2228  0.4703 -0.3410
   36MOL   C87932449   1.369   0.650   2.573 -0.2559 -0.4040  0.0876
   36MOL   C88032450   1.231   0.617   2.578  0.0467 -0.2787  0.3635
   36MOL   C88132451   1.149   0.687   2.672  0.3164 -0.2401  0.3622
   36MOL   C88232452   1.199   0.777   2.766 -0.0834  0.3581 -0.1601
   36MOL   C88332453   1.335   0.810   2.757  0.2791  0.3885  0.3102
   36MOL   C88432454   1.416   0.755   2.656 -0.1432  0.1687 -0.0972
   36MOL   O88532455   1.115   0.834   2.856 -0.4044 -0.4035 -0.0058
   36MOL   H88632456   2.625   0.534   2.026  0.1930  0.3302 -0.5142
   36MOL   H88732457   2.486   0.378   2.169  1.4472  0.5697 -3.4552
   36MOL   H88832458   2.345   0.726   2.383 -1.2376 -0.1879 -0.8760
   36MOL   H88932459   2.465   0.874   2.220  1.1603  0.4791 -1.0041
   36MOL   H89032460   2.192   0.224   2.306  1.1315  0.7272  3.5834
   36MOL   H89132461   1.945   0.194   2.243 -1.8521  0.4850  0.4444
   36MOL   H89232462   1.875   0.598   2.362  0.4769  0.2831  2.1315
   36MOL   H89332463   2.103   0.625   2.448 -1.5895 -0.4669  1.8456
   36MOL   H89432464   1.617   0.268   2.478 -0.0923 -0.7143  1.7169
   36MOL   H89532465   1.437   0.394   2.598  0.1726  1.0696  0.1882
   36MOL   H89632466   1.506   0.746   2.354 -0.5198 -0.1332 -1.4612
   36MOL   H89732467   1.687   0.626   2.237  1.7367 -0.6038 -0.0031
   36MOL   H89832468   1.182   0.544   2.514  0.3067  0.1177 -0.2873
   36MOL   H89932469   1.043   0.673   2.658  0.7392 -3.4404 -0.0377
   36MOL   H90032470   1.376   0.895   2.808 -1.0230  1.6063 -0.6264
   36MOL   H90132471   1.520   0.784   2.648  0.4049 -1.6243  0.3842
   36MOL   H90232472   1.150   0.872   2.935 -0.2412  0.9765 -0.7428
   37MOL     C132473   3.687   7.060   1.292 -0.2234  0.0270 -0.3629
   37MOL     C232474   3.561   7.042   1.351 -0.3741 -0.6879 -0.5097
   37MOL     C332475   3.453   7.117   1.312 -0.1384  0.3260 -0.4817
   37MOL     C432476   3.480   7.231   1.231 -0.1936  0.2022 -0.2606
   37MOL     C532477   3.606   7.249   1.180  0.1860 -0.0135  0.1328
   37MOL     C632478   3.710   7.163   1.197  0.0276  0.7887 -0.2631
   37MOL     S732479   3.333   7.332   1.188  0.1997  0.4635  0.0967
   37MOL     O832480   3.373   7.460   1.135  0.6946  0.1963  0.5655
   37MOL     O932481   3.231   7.325   1.298 -0.0843  0.2169 -0.4029
   37MOL    C1032482   3.268   7.246   1.045  0.4828 -0.0419  0.2999
   37MOL    C1132483   3.323   7.277   0.921  0.3754 -0.5472 -0.0897
   37MOL    C1232484   3.272   7.215   0.806 -0.9149 -0.1466 -0.0752
   37MOL    C1332485   3.163   7.132   0.816  0.1078 -0.2324  0.2762
   37MOL    C1432486   3.105   7.103   0.941 -0.4297  0.0834  0.6063
   37MOL    C1532487   3.161   7.153   1.061 -1.1743  0.0567 -0.6782
   37MOL    O1632488   3.104   7.090   0.705 -0.6813  0.2094 -0.0744
   37MOL    C1732489   2.979   7.147   0.680  0.2842  0.3125 -0.7114
   37MOL    C1832490   2.878   7.061   0.628  0.0270  0.3843 -0.2315
   37MOL    C1932491   2.743   7.103   0.619 -0.5222 -0.7440  0.1957
   37MOL    C2032492   2.710   7.242   0.634 -0.5421  0.3268  0.0269
   37MOL    C2132493   2.813   7.334   0.673 -0.0278 -0.5258  0.1046
   37MOL    C2232494   2.945   7.288   0.700 -0.3623  0.3896 -0.0220
   37MOL    C2332495   2.576   7.278   0.615  0.9095 -0.8659 -0.6231
   37MOL    C2432496   2.521   7.376   0.697 -0.3211  0.1409 -0.4379
   37MOL    C2532497   2.387   7.408   0.688  0.8871 -0.3048 -0.2920
   37MOL    C2632498   2.301   7.338   0.602  0.9828  0.0962  0.3265
   37MOL    C2732499   2.355   7.248   0.506  0.5623  0.0784  0.0473
   37MOL    C2832500   2.496   7.217   0.516  0.2790  0.4082  0.4244
   37MOL    O2932501   2.165   7.366   0.593 -0.3064 -0.0090 -0.4060
   37MOL    H3032502   3.539   6.959   1.417  1.4303 -1.0765 -0.3696
   37MOL    H3132503   3.355   7.103   1.354 -0.5414  0.7783 -1.2732
   37MOL    H3232504   3.619   7.327   1.108  0.0411 -0.2264 -0.1237
   37MOL    H3332505   3.803   7.183   1.146 -0.3142 -0.8997 -1.6131
   37MOL    H3432506   3.402   7.351   0.918 -0.8115  0.7662  0.4126
   37MOL    H3532507   3.294   7.241   0.704  2.2859 -0.2832  0.5233
   37MOL    H3632508   3.017   7.039   0.944 -0.2240 -0.1779  1.3584
   37MOL    H3732509   3.116   7.134   1.157 -0.2556 -0.7592 -0.4019
   37MOL    H3832510   2.901   6.958   0.610  1.9285  0.7288  0.1121
   37MOL    H3932511   2.672   7.027   0.589 -0.4813 -0.4714 -0.6095
   37MOL    H4032512   2.791   7.439   0.677 -0.7264 -0.4320 -4.1235
   37MOL    H4132513   3.019   7.365   0.719  0.0127  0.0279 -0.0091
   37MOL    H4232514   2.568   7.428   0.779  1.2814 -2.0236  0.0471
   37MOL    H4332515   2.344   7.483   0.753 -1.2449  0.7608 -2.8149
   37MOL    H4432516   2.279   7.189   0.457  0.3200  0.3706  0.0651
   37MOL    H4532517   2.528   7.128   0.464 -0.8734 -0.5233  1.2705
   37MOL    H4632518   3.755   6.978   1.309  0.0289  0.5232  1.0516
   37MOL    C4732519   2.119   7.478   0.525  0.3776 -0.4331  0.2885
   37MOL    C4832520   1.981   7.497   0.519  0.2474 -0.8325 -0.0958
   37MOL    C4932521   1.920   7.595   0.435  0.0912  0.5536  0.5577
   37MOL    C5032522   2.006   7.672   0.353  0.3444 -0.1461  0.3384
   37MOL    C5132523   2.147   7.651   0.351 -0.0278  0.5435  0.3277
   37MOL    C5232524   2.203   7.549   0.435  0.0233  0.5060 -0.4252
   37MOL    S5332525   1.939   7.796   0.235  0.1725 -0.1147 -0.3907
   37MOL    O5432526   1.984   7.747   0.102  0.6773  0.0494  0.0033
   37MOL    O5532527   1.980   7.928   0.290  0.2707  0.2897 -0.2243
   37MOL    C5632528   1.758   7.793   0.241 -0.6807 -0.5546 -0.8904
   37MOL    C5732529   1.694   7.901   0.307 -0.4322  0.0517  0.3505
   37MOL    C5832530   1.551   7.901   0.322  0.1294 -0.0198  0.2826
   37MOL    C5932531   1.476   7.794   0.256 -0.6554 -0.2074  0.2588
   37MOL    C6032532   1.541   7.687   0.199 -0.5920 -1.3739 -0.7557
   37MOL    C6132533   1.683   7.691   0.183 -0.3768  0.5180 -0.4243
   37MOL    O6232534   1.337   7.806   0.264  0.1892  0.1681 -0.2953
   37MOL    C6332535   1.256   7.749   0.168 -0.3224 -0.6267  0.0177
   37MOL    C6432536   1.201   7.621   0.193  1.0098 -0.7286 -0.0752
   37MOL    C6532537   1.134   7.547   0.083  0.6522 -0.1052 -0.4704
   37MOL    C6632538   1.130   7.604   8.321 -0.9622 -0.2841 -1.2144
   37MOL    C6732539   1.194   7.728   8.304 -0.2963 -0.1255  0.4645
   37MOL    C6832540   1.262   7.803   0.039 -0.2023  0.4690  0.3833
   37MOL    C6932541   1.067   7.537   8.205  0.4986  0.1361  0.0945
   37MOL    C7032542   1.046   7.399   8.204 -0.7960  0.1975 -0.0418
   37MOL    C7132543   0.978   7.331   8.098 -0.6344  0.1278  0.1823
   37MOL    C7232544   0.946   7.406   7.982  0.3471 -0.7121 -0.6191
   37MOL    C7332545   0.970   7.545   7.982 -0.2542  0.4459 -0.0475
   37MOL    C7432546   1.029   7.613   8.089 -0.2858  0.0125 -0.4753
   37MOL    O7532547   0.884   7.340   7.877  0.1720 -0.5120  0.2521
   37MOL    H7632548   1.909   7.442   0.578  0.3726 -0.7723  0.1124
   37MOL    H7732549   1.814   7.619   0.433  0.0037  0.2084  0.9213
   37MOL    H7832550   2.215   7.704   0.287  0.7150  0.1927  0.8105
   37MOL    H7932551   2.309   7.536   0.420 -0.0551 -1.9034  0.9044
   37MOL    H8032552   1.748   7.974   0.365 -0.5496  1.1638 -0.9159
   37MOL    H8132553   1.501   7.983   0.372 -2.9298 -0.9367 -1.1450
   37MOL    H8232554   1.484   7.610   0.149 -0.0080 -1.9683 -0.5103
   37MOL    H8332555   1.745   7.618   0.134 -3.5852 -0.8063 -2.6234
   37MOL    H8432556   1.204   7.582   0.294  0.8974  4.6763  2.1648
   37MOL    H8532557   1.094   7.449   0.102  0.2952  0.6127  2.7077
   37MOL    H8632558   1.199   7.768   8.204  0.3498  0.4407  0.7168
   37MOL    H8732559   1.318   7.894   0.023  1.5782 -1.1766 -3.1520
   37MOL    H8832560   1.083   7.348   8.292 -1.7405  1.4855  1.1446
   37MOL    H8932561   0.964   7.224   8.100 -1.0386  0.1464 -1.0981
   37MOL    H9032562   0.937   7.611   7.903  0.2151  0.2939 -0.3715
   37MOL    H9132563   1.063   7.715   8.089  0.1203 -0.1230 -0.5699
   37MOL    C9232564   0.963   7.301   7.767 -0.0966  0.5470  0.0596
   37MOL    C9332565   0.916   7.193   7.691 -0.0684  0.0662 -0.0294
   37MOL    C9432566   0.990   7.156   7.577 -0.2065  0.1421 -0.3370
   37MOL    C9532567   1.100   7.227   7.534  0.3273 -0.8823 -0.7685
   37MOL    C9632568   1.147   7.334   7.609  0.0284 -0.1809 -0.4428
   37MOL    C9732569   1.086   7.364   7.733  0.1595  0.2182  0.0445
   37MOL    S9832570   1.185   7.177   7.384 -0.4146 -0.0770  0.0614
   37MOL    O9932571   1.304   7.260   7.375 -0.0697  0.0255  0.2660
   37MOL   O10032572   1.096   7.168   7.269  0.4362 -0.3609  0.7175
   37MOL   C10132573   1.252   7.017   7.416 -0.6484  0.7883  0.5527
   37MOL   C10232574   1.319   6.995   7.532 -0.8947 -0.4831  0.2063
   37MOL   C10332575   1.379   6.866   7.551 -0.2127  0.5005 -0.0793
   37MOL   C10432576   1.386   6.768   7.445 -0.0621  0.0607  0.0038
   37MOL   C10532577   1.325   6.796   7.322  0.0132 -0.5093  0.9549
   37MOL   C10632578   1.252   6.919   7.314  0.3844  0.5158  1.4918
   37MOL   O10732579   1.454   6.647   7.470 -0.3170 -0.8101  0.3239
   37MOL   C10832580   1.392   6.529   7.505 -0.0375  0.2270  0.0274
   37MOL   C10932581   1.252   6.519   7.528  0.5617  0.4362 -0.2198
   37MOL   C11032582   1.190   6.399   7.573 -0.2323  0.0214 -0.4763
   37MOL   C11132583   1.259   6.276   7.567 -0.2690  0.2070 -0.1525
   37MOL   C11232584   1.398   6.289   7.527 -0.5025 -0.4626 -0.1293
   37MOL   C11332585   1.465   6.409   7.501  0.1478  0.4656  0.4240
   37MOL   C11432586   1.200   6.141   7.584  0.2378 -0.0796 -0.3424
   37MOL   C11532587   1.085   6.119   7.670  1.1163  0.1703 -0.0253
   37MOL   C11632588   1.031   5.991   7.681 -0.7552  0.7079 -0.5776
   37MOL   C11732589   1.078   5.885   7.601  0.2390  1.2744 -0.9668
   37MOL   C11832590   1.182   5.906   7.512 -0.2202  0.3225 -0.8333
   37MOL   C11932591   1.252   6.028   7.516  0.7015  0.4361 -0.3930
   37MOL   O12032592   1.032   5.757   7.610  0.5123 -0.6088 -0.8606
   37MOL   H12132593   0.826   7.142   7.722 -1.0814  1.9437  0.2103
   37MOL   H12232594   0.948   7.083   7.509  0.1687  0.4473 -0.8952
   37MOL   H12332595   1.235   7.382   7.569 -0.3811  0.7929 -0.1938
   37MOL   H12432596   1.122   7.446   7.793 -0.1113  0.4008 -0.0427
   37MOL   H12532597   1.335   7.072   7.606  0.4477  0.7447 -1.3041
   37MOL   H12632598   1.429   6.846   7.645 -2.6552  0.8035  1.3458
   37MOL   H12732599   1.329   6.731   7.236  2.4895  1.3139 -0.4013
   37MOL   H12832600   1.202   6.945   7.222  0.0644  1.6968  1.9908
   37MOL   H12932601   1.202   6.613   7.544  0.2305  0.5330 -1.7935
   37MOL   H13032602   1.088   6.390   7.609 -0.4508 -0.2519 -1.1583
   37MOL   H13132603   1.450   6.198   7.504 -0.2702 -0.0662 -1.1869
   37MOL   H13232604   1.573   6.415   7.491 -0.1781  1.5506 -3.0315
   37MOL   H13332605   1.043   6.199   7.730  0.2194  1.1585 -1.9397
   37MOL   H13432606   0.939   5.981   7.736 -0.6086  1.6310 -0.1655
   37MOL   H13532607   1.218   5.825   7.450 -0.1222  2.2403 -3.3654
   37MOL   H13632608   1.338   6.048   7.453 -0.2945  0.0647 -1.8857
   37MOL   C13732609   1.098   5.677   7.699 -0.5746  0.2813  0.1351
   37MOL   C13832610   1.223   5.609   7.669 -0.3397 -0.2557  0.2060
   37MOL   C13932611   1.297   5.546   7.769 -0.2814  0.1299 -0.4437
   37MOL   C14032612   1.239   5.531   7.892  0.4254  0.2601  0.2416
   37MOL   C14132613   1.113   5.587   7.928 -0.0912  0.0846 -0.8083
   37MOL   C14232614   1.043   5.660   7.829  0.1603  0.0877 -0.7053
   37MOL   S14332615   1.332   5.439   8.014 -0.1145 -0.2233  0.0136
   37MOL   O14432616   1.333   5.512   8.143 -0.3058  0.1482 -0.3976
   37MOL   O14532617   1.460   5.389   7.964 -0.1890  0.2580  0.2260
   37MOL   C14632618   1.226   5.306   8.041  0.2086 -0.2846 -0.0023
   37MOL   C14732619   1.239   5.188   7.959  0.1517  0.2792 -0.1498
   37MOL   C14832620   1.134   5.089   7.960  0.1760 -0.5848 -0.9823
   37MOL   C14932621   1.018   5.117   8.039  0.4354  0.1237  0.0137
   37MOL   C15032622   1.006   5.231   8.120 -0.1921  0.0479  0.3406
   37MOL   C15132623   1.111   5.329   8.122 -0.3662  0.2687 -0.0229
   37MOL   O15232624   0.913   5.027   8.020 -0.6756 -0.1851  0.0273
   37MOL   C15332625   0.859   4.978   8.137  0.8484  0.3135  0.2135
   37MOL   C15432626   0.761   5.038   8.218 -0.0598 -0.0275  0.3133
   37MOL   C15532627   0.721   4.978   8.336  0.5474 -0.3556 -0.6433
   37MOL   C15632628   0.762   4.844   0.008  0.2962  0.1575 -0.1509
   37MOL   C15732629   0.851   4.781   8.282 -0.6470  0.2940  0.4220
   37MOL   C15832630   0.899   4.847   8.171  0.2270 -0.2627  0.0387
   37MOL   C15932631   0.704   4.779   0.125  0.1997  0.2948  0.1560
   37MOL   C16032632   0.703   4.829   0.254 -0.1214  0.2601  0.8172
   37MOL   C16132633   0.640   4.757   0.358  0.2100 -0.3455  0.3286
   37MOL   C16232634   0.594   4.622   0.343 -0.1182  0.5908 -0.3559
   37MOL   C16332635   0.606   4.570   0.209 -0.0110  0.5391 -0.0546
   37MOL   C16432636   0.645   4.651   0.102 -0.6676 -0.0409  0.0482
   37MOL   O16532637   0.548   4.554   0.449  0.6241 -0.1021  0.9207
   37MOL   H16632638   1.259   5.610   7.568 -2.2757  2.9663 -0.5218
   37MOL   H16732639   1.391   5.501   7.739 -0.4782 -0.2578 -0.4798
   37MOL   H16832640   1.066   5.573   8.024 -1.4627 -4.2396 -1.9964
   37MOL   H16932641   0.954   5.707   7.867  1.0610  0.7165  0.6982
   37MOL   H17032642   1.321   5.182   7.889  0.5822 -1.1089  0.4641
   37MOL   H17132643   1.134   5.000   7.899 -2.8963 -0.6188 -1.0518
   37MOL   H17232644   0.913   5.244   8.172 -1.0150 -1.7348 -0.6159
   37MOL   H17332645   1.101   5.415   8.187 -0.8533 -0.3333  0.7056
   37MOL   H17432646   0.727   5.137   8.191 -0.4364 -0.6047 -1.4275
   37MOL   H17532647   0.660   5.035   0.038  1.4562 -1.7440  1.3639
   37MOL   H17632648   0.891   4.682   8.298 -3.9136 -0.9070  1.5643
   37MOL   H17732649   0.960   4.791   8.101  0.4267  0.9153 -0.7584
   37MOL   H17832650   0.731   4.929   0.283 -0.0430  0.2254  0.8596
   37MOL   H17932651   0.633   4.807   0.453 -1.1684  2.0682 -0.9722
   37MOL   H18032652   0.570   4.470   0.189  2.5291 -0.6910  1.4101
   37MOL   H18132653   0.655   4.608   0.004  0.8186  1.9493 -0.7080
   37MOL   C18232654   0.642   4.471   0.499 -0.0994  0.3214 -0.6281
   37MOL   C18332655   0.721   4.506   0.610 -0.2770 -0.6624  0.3412
   37MOL   C18432656   0.829   4.428   0.655  1.3300  0.0410  0.1781
   37MOL   C18532657   0.857   4.304   0.593 -0.0677 -0.2215 -0.4268
   37MOL   C18632658   0.773   4.262   0.491  0.5898 -0.0984  0.1753
   37MOL   C18732659   0.673   4.345   0.437  0.1558  0.0863  0.8256
   37MOL   S18832660   0.988   4.197   0.639  0.2077  0.4956 -0.0572
   37MOL   O18932661   1.052   4.260   0.757 -0.3853 -0.2842  0.3781
   37MOL   O19032662   1.069   4.173   0.516 -0.3705 -0.4446  0.7998
   37MOL   C19132663   0.915   4.041   0.691 -0.4080 -0.1564  0.3029
   37MOL   C19232664   0.877   3.953   0.590  0.0954 -0.0736  0.2769
   37MOL   C19332665   0.826   3.823   0.621  0.4072  0.1825 -0.1855
   37MOL   C19432666   0.818   3.792   0.761 -0.1506 -0.7756  0.0332
   37MOL   C19532667   0.865   3.879   0.859  0.3478 -0.1112 -0.0771
   37MOL   C19632668   0.908   4.006   0.819 -0.0494  0.5391  0.0484
   37MOL   O19732669   0.752   3.684   0.805  0.5577  0.0019  0.3511
   37MOL   C19832670   0.780   3.562   0.756  0.1739  0.1267 -0.1452
   37MOL   C19932671   0.912   3.513   0.732  0.5501 -0.5440 -0.2954
   37MOL   C20032672   0.936   3.379   0.693 -0.0374  0.3895 -0.8738
   37MOL   C20132673   0.826   3.297   0.667  0.3442 -0.1356  0.3624
   37MOL   C20232674   0.695   3.342   0.692  0.0867  0.4084 -0.2911
   37MOL   C20332675   0.673   3.472   0.730  0.0412  0.1961 -0.1397
   37MOL   C20432676   0.840   3.164   0.615  0.7464  1.0146  0.0723
   37MOL   C20532677   0.752   3.059   0.654 -0.2965  0.1694 -0.0184
   37MOL   C20632678   0.766   2.930   0.591 -0.3617 -0.1464 -0.1832
   37MOL   C20732679   0.869   2.898   0.500 -0.6712 -0.4129  0.0865
   37MOL   C20832680   0.948   3.011   0.458  0.2813  0.0511 -0.2678
   37MOL   C20932681   0.928   3.141   0.506  0.0763 -0.3268 -0.4439
   37MOL   O21032682   0.896   2.777   0.455 -0.0990 -0.0585 -0.3266
   37MOL   H21132683   0.703   4.601   0.659  1.7138  0.4868 -1.0904
   37MOL   H21232684   0.895   4.467   0.732  1.3986 -2.1470  1.2492
   37MOL   H21332685   0.786   4.168   0.440 -0.3863 -0.4692  0.5956
   37MOL   H21432686   0.615   4.307   0.355 -0.6986 -2.1047  2.3655
   37MOL   H21532687   0.891   3.986   0.488 -0.1874 -0.6273  0.0568
   37MOL   H21632688   0.806   3.750   0.544 -0.6894 -0.4454  0.6753
   37MOL   H21732689   0.855   3.862   0.965  0.7668  0.7917  0.1141
   37MOL   H21832690   0.936   4.085   0.887  0.3183 -0.2788  0.8596
   37MOL   H21932691   0.992   3.586   0.732 -1.5806  1.8575  0.2434
   37MOL   H22032692   1.033   3.337   0.675  0.8546  1.9926  0.1108
   37MOL   H22132693   0.609   3.280   0.672  0.8113 -0.4793 -0.6578
   37MOL   H22232694   0.575   3.515   0.745 -0.9914 -1.2178 -2.5607
   37MOL   H22332695   0.679   3.067   0.732 -0.4909 -0.0711 -0.1734
   37MOL   H22432696   0.700   2.852   0.626 -0.4396 -0.3888 -0.8653
   37MOL   H22532697   1.016   2.995   0.376  0.6911 -1.3536  0.3280
   37MOL   H22632698   0.982   3.221   0.456  0.7096 -0.3614  0.1756
   37MOL   C22732699   0.863   2.671   0.534  0.6559  0.3408  0.3947
   37MOL   C22832700   0.740   2.607   0.526 -0.2374 -0.4501  0.5466
   37MOL   C22932701   0.709   2.494   0.606  0.0771  1.0248 -0.7554
   37MOL   C23032702   0.803   2.446   0.701  0.1916  0.2392  0.0389
   37MOL   C23132703   0.932   2.503   0.701 -0.4028 -0.5856  0.5899
   37MOL   C23232704   0.963   2.614   0.613  0.1623  0.1413 -0.2702
   37MOL   S23332705   0.758   2.331   0.827 -0.1538  0.2707 -0.1867
   37MOL   O23432706   0.823   2.380   0.947  0.6046  0.3226 -0.3622
   37MOL   O23532707   0.798   2.195   0.781 -0.2716  0.0971  0.0438
   37MOL   C23632708   0.581   2.331   0.843  0.7661  0.0523  0.1171
   37MOL   C23732709   0.523   2.421   0.935  0.4334 -0.7739 -0.2283
   37MOL   C23832710   0.384   2.414   0.958  0.1709  0.0180 -0.6681
   37MOL   C23932711   0.298   2.338   0.883 -0.0401 -0.0220 -0.4615
   37MOL   C24032712   0.355   2.249   0.782  0.2511 -0.1497  0.3995
   37MOL   C24132713   0.498   2.244   0.767  0.5136  0.2780 -0.2895
   37MOL   O24232714   0.166   2.321   0.921 -0.4806  0.3492  0.5993
   37MOL   C24332715   0.145   2.245   1.037  0.4038 -0.1995 -0.4304
   37MOL   C24432716   0.187   2.111   1.036 -0.0648 -0.4011 -0.8472
   37MOL   C24532717   0.165   2.032   1.152 -0.0624 -0.7403 -0.5037
   37MOL   C24632718   0.103   2.082   1.263 -0.6306 -0.8708 -0.3139
   37MOL   C24732719   0.055   2.218   1.257  0.3528  0.0368 -0.5090
   37MOL   C24832720   0.079   2.297   1.147 -0.9238 -0.1694  0.0844
   37MOL   C24932721   0.081   1.998   1.393 -0.8179  0.1297  0.5187
   37MOL   C25032722   0.169   1.897   1.418  0.6354 -0.1087 -0.4884
   37MOL   C25132723   0.156   1.816   1.533  1.1218  0.0258 -0.6676
   37MOL   C25232724   0.052   1.842   1.631 -0.5726 -0.7612  0.0790
   37MOL   C25332725   8.328   1.944   1.600  0.6448  0.5452 -0.2956
   37MOL   C25432726   8.344   2.024   1.482 -0.1174  0.0658 -0.5868
   37MOL   O25532727   0.039   1.765   1.746 -0.1403 -0.0054 -0.7654
   37MOL   H25632728   0.665   2.640   0.456 -0.3540 -0.2001  0.7922
   37MOL   H25732729   0.608   2.457   0.601  0.6131 -0.5760 -0.1833
   37MOL   H25832730   1.002   2.469   0.776 -1.0918 -1.5907  0.7840
   37MOL   H25932731   1.060   2.663   0.616  0.2570  0.1566 -2.8963
   37MOL   H26032732   0.584   2.486   0.996 -1.1822  0.2634  0.3202
   37MOL   H26132733   0.347   2.475   1.038 -0.3601 -1.4042  0.1904
   37MOL   H26232734   0.293   2.180   0.726 -0.4742  1.0404 -0.2773
   37MOL   H26332735   0.532   2.175   0.691 -0.6459 -0.4603 -0.1525
   37MOL   H26432736   0.240   2.061   0.957 -0.8948 -2.1400 -0.3366
   37MOL   H26532737   0.202   1.931   1.159 -2.4179 -1.5213  1.5356
   37MOL   H26632738   0.010   2.257   1.347  0.9453 -2.8024  1.0787
   37MOL   H26732739   0.045   2.399   1.158 -1.2690 -0.4949  2.1289
   37MOL   H26832740   0.253   1.875   1.353  0.2658 -1.6181 -0.4644
   37MOL   H26932741   0.223   1.731   1.535  3.3764  1.7520  4.0733
   37MOL   H27032742   8.239   1.965   1.657  0.0402  1.7252 -1.6199
   37MOL   H27132743   8.270   2.099   1.455 -2.0603 -0.6007  2.5656
   37MOL   C27232744   0.100   1.802   1.860 -0.2823  0.1204 -0.1187
   37MOL   C27332745   0.238   1.781   1.874  0.2865 -0.0795 -0.2087
   37MOL   C27432746   0.297   1.804   1.999 -0.3953 -0.5609 -0.2329
   37MOL   C27532747   0.220   1.848   2.113  0.2962  0.0332 -0.0577
   37MOL   C27632748   0.082   1.872   2.096 -0.5188  0.2476  0.2707
   37MOL   C27732749   0.021   1.848   1.971 -0.0235 -0.3995 -0.2348
   37MOL   S27832750   0.294   1.879   2.271  0.1962  0.4322  0.3233
   37MOL   O27932751   0.183   1.892   2.365  0.1420 -0.1938  0.0690
   37MOL   O28032752   0.387   1.988   2.242  0.0395 -0.1090 -0.2369
   37MOL   C28132753   0.401   1.744   2.320  0.4670 -0.2296  0.0123
   37MOL   C28232754   0.524   1.713   2.251 -0.2073  0.0020 -0.2653
   37MOL   C28332755   0.608   1.603   2.300  0.4103 -1.2256  0.0860
   37MOL   C28432756   0.568   1.527   2.410  0.1453 -0.0307 -0.4029
   37MOL   C28532757   0.453   1.571   2.480 -0.3340 -0.1430 -0.4031
   37MOL   C28632758   0.370   1.676   2.442  0.6026 -0.0852  0.1134
   37MOL   O28732759   0.629   1.411   2.434 -0.1872 -0.2334 -0.0942
   37MOL   C28832760   0.674   1.390   2.561  0.4727 -0.0258  0.3296
   37MOL   C28932761   0.637   1.274   2.625  0.8777 -0.2823 -0.3035
   37MOL   C29032762   0.696   1.233   2.746 -0.0829  0.3334  0.8230
   37MOL   C29132763   0.780   1.323   2.810  0.5183 -0.3629 -0.1605
   37MOL   C29232764   0.820   1.440   2.740 -0.0721 -0.0638  1.2511
   37MOL   C29332765   0.769   1.477   2.613  0.7057  0.6480  0.3199
   37MOL   C29432766   0.825   1.296   2.947  0.5311 -0.1227  0.1111
   37MOL   C29532767   0.905   1.179   2.964 -0.9310  0.3207 -0.1401
   37MOL   C29632768   0.943   1.146   3.098  0.3749 -0.3961  0.2747
   37MOL   C29732769   0.896   1.222   3.211 -0.5796 -0.5839 -0.4777
   37MOL   C29832770   0.828   1.344   3.181  0.2294  0.3974  0.5410
   37MOL   C29932771   0.793   1.377   3.055  0.0216 -0.1522  1.2030
   37MOL   O30032772   0.943   1.189   3.340  0.4171 -0.0740  0.1804
   37MOL   H30132773   0.295   1.736   1.795  0.1127  0.0827 -0.4254
   37MOL   H30232774   0.402   1.787   2.015 -0.7939 -0.4858  2.8363
   37MOL   H30332775   0.013   1.893   2.177 -0.0005 -1.3527  1.1441
   37MOL   H30432776   8.279   1.855   1.960 -0.3649 -1.7601  2.0338
   37MOL   H30532777   0.554   1.775   2.168  0.5585  0.6990  0.5154
   37MOL   H30632778   0.694   1.577   2.240  0.3491 -1.2615  0.0136
   37MOL   H30732779   0.426   1.517   2.570 -0.3652  0.2350 -0.1859
   37MOL   H30832780   0.290   1.716   2.501  0.0057  2.0849 -2.0804
   37MOL   H30932781   0.565   1.210   2.576  1.6804 -1.4922  0.0640
   37MOL   H31032782   0.650   1.151   2.799  1.0742 -0.5789  0.4464
   37MOL   H31132783   0.887   1.509   2.789  1.1798 -1.1517  1.0987
   37MOL   H31232784   0.805   1.565   2.562 -1.5973  1.2513 -0.3219
   37MOL   H31332785   0.938   1.116   2.883 -0.2219  0.6865 -0.1386
   37MOL   H31432786   0.992   1.051   3.115 -0.1737 -0.8088 -0.4679
   37MOL   H31532787   0.803   1.406   3.267 -1.1101  0.8959 -0.1981
   37MOL   H31632788   0.732   1.464   3.033 -2.1585 -1.5408  1.5844
   37MOL   C31732789   0.864   1.215   3.451  0.0757  0.0986 -0.8581
   37MOL   C31832790   0.720   1.218   3.450 -0.6965 -0.2214  0.1870
   37MOL   C31932791   0.647   1.232   3.570  0.5266  0.5365  0.2335
   37MOL   C32032792   0.715   1.249   3.696 -0.3401 -0.0622 -0.0022
   37MOL   C32132793   0.854   1.263   3.694 -0.0832 -0.4808 -0.9105
   37MOL   C32232794   0.927   1.238   3.579 -0.3689 -0.2920  0.6436
   37MOL   S32332795   0.628   1.284   3.845 -0.2194 -0.0830 -0.2056
   37MOL   O32432796   0.721   1.246   3.952  0.5589 -0.0574  0.3392
   37MOL   O32532797   0.500   1.209   3.841  0.3957  0.4718 -0.2942
   37MOL   C32632798   0.598   1.451   3.853 -0.5794  0.1917  0.0756
   37MOL   C32732799   0.540   1.525   3.745  0.1637 -0.4707 -0.7210
   37MOL   C32832800   0.524   1.665   3.761 -0.0575  0.3964  0.1274
   37MOL   C32932801   0.573   1.734   3.875 -0.5444 -0.2169 -0.3800
   37MOL   C33032802   0.634   1.657   3.976  0.7193  0.4296 -0.6156
   37MOL   C33132803   0.648   1.519   3.967  0.2134  0.4008  0.4363
   37MOL   O33232804   0.571   1.868   3.865  0.4069  0.1398  0.5552
   37MOL   C33332805   0.640   1.958   3.953  0.1070  0.8513  0.4779
   37MOL   C33432806   0.571   2.017   4.060  0.2651 -0.0560  0.0916
   37MOL   C33532807   0.626   2.103   4.153 -0.4304 -0.6266  0.0974
   37MOL   C33632808   0.758   2.149   4.127  0.4852 -0.1816  0.2819
   37MOL   C33732809   0.828   2.095   4.023  0.1166  0.1742  0.3704
   37MOL   C33832810   0.775   1.993   3.935  0.3799 -0.0244  0.3388
   37MOL   C33932811   0.812   2.248   4.215  0.4823  0.2660  0.4253
   37MOL   C34032812   0.876   2.361   4.171  0.1727 -0.6391 -0.3341
   37MOL   C34132813   0.941   2.453   4.255 -0.4103  0.3963 -0.6638
   37MOL   C34232814   0.932   2.438   4.393  0.1959 -0.3758  0.3050
   37MOL   C34332815   0.862   2.325   4.442  0.1684 -0.6453 -0.6665
   37MOL   C34432816   0.795   2.231   4.357 -0.6024 -0.3130  0.1418
   37MOL   O34532817   0.988   2.519   4.486  0.2195  0.3565  0.8208
   37MOL   H34632818   0.666   1.194   3.359  0.0803 -2.3474  0.2400
   37MOL   H34732819   0.539   1.229   3.568  0.5540 -0.2259 -1.9959
   37MOL   H34832820   0.899   1.299   3.785 -1.5311 -1.0416  0.0494
   37MOL   H34932821   1.034   1.224   3.588 -0.3541 -1.3741 -0.8347
   37MOL   H35032822   0.510   1.476   3.654 -1.6809 -0.9479  0.1202
   37MOL   H35132823   0.482   1.722   3.679  1.4279  2.3272  0.6915
   37MOL   H35232824   0.672   1.703   4.066 -0.0016  0.1662 -0.1659
   37MOL   H35332825   0.690   1.464   4.050  0.0400 -0.3356  0.0464
   37MOL   H35432826   0.464   2.000   4.067  0.1692 -0.2957 -1.6246
   37MOL   H35532827   0.562   2.137   4.234  0.7907 -0.6566  1.0905
   37MOL   H35632828   0.925   2.139   4.002 -0.3928 -0.0597 -2.7250
   37MOL   H35732829   0.828   1.956   3.848 -0.1197 -0.7058  0.3136
   37MOL   H35832830   0.886   2.376   4.065 -0.9311 -0.2249 -0.3809
   37MOL   H35932831   0.995   2.531   4.203  2.1685  0.6020  2.1457
   37MOL   H36032832   0.856   2.317   4.550 -0.3779 -0.8417 -0.7102
   37MOL   H36132833   0.734   2.149   4.394 -0.2027  0.6527  3.0453
   37MOL   C36232834   0.976   2.655   4.478 -0.1693  0.3153  0.0048
   37MOL   C36332835   1.094   2.737   4.481  0.4266  0.6753 -0.2648
   37MOL   C36432836   1.087   2.877   4.454 -0.4567  0.1955  0.1721
   37MOL   C36532837   0.960   2.936   4.457 -0.0224  0.2929 -0.0049
   37MOL   C36632838   0.843   2.861   4.462 -0.1282 -0.1575  0.5278
   37MOL   C36732839   0.852   2.720   4.468 -0.3165 -0.1538  0.4698
   37MOL   S36832840   0.933   3.121   4.459 -0.1046 -0.3300 -0.0606
   37MOL   O36932841   1.060   3.175   4.515 -0.3454  0.3594  0.2261
   37MOL   O37032842   0.806   3.161   4.522 -0.1334  0.6794  0.3461
   37MOL   C37132843   0.928   3.178   4.291  0.5053 -0.2010 -0.0414
   37MOL   C37232844   0.966   3.309   4.262 -0.2199 -0.3091 -0.3652
   37MOL   C37332845   0.971   3.357   4.135 -0.1844  0.1736  0.1152
   37MOL   C37432846   0.943   3.273   4.027  0.8691 -0.0512 -0.1854
   37MOL   C37532847   0.916   3.140   4.055 -0.4942 -0.3241  0.3805
   37MOL   C37632848   0.894   3.089   4.187  0.2031 -0.1999  0.0965
   37MOL   O37732849   0.941   3.311   3.892  0.3189  0.4773  0.0332
   37MOL   C37832850   1.054   3.357   3.833  0.7706  0.0251 -0.3609
   37MOL   C37932851   1.045   3.442   3.716 -0.2648 -0.7415 -0.3413
   37MOL   C38032852   1.161   3.488   3.645  0.4514  0.8502  0.0651
   37MOL   C38132853   1.291   3.448   3.688  0.3218 -0.4047 -0.4056
   37MOL   C38232854   1.293   3.357   3.799  0.0931 -0.0228 -1.1230
   37MOL   C38332855   1.180   3.317   3.876  0.1326 -0.5288  0.1746
   37MOL   C38432856   1.407   3.486   3.620  0.1180 -0.1597  0.2118
   37MOL   C38532857   1.506   3.385   3.602 -0.6172  0.3541  0.1008
   37MOL   C38632858   1.621   3.395   3.529 -0.2004  0.0841 -0.1868
   37MOL   C38732859   1.643   3.519   3.468 -0.5506  0.1089  0.1759
   37MOL   C38832860   1.556   3.624   3.490 -0.0794 -0.0135 -0.2904
   37MOL   C38932861   1.436   3.610   3.558  0.5336 -0.2626  0.4272
   37MOL   O39032862   1.750   3.532   3.379 -0.3055  0.1001 -0.4698
   37MOL   H39132863   1.188   2.686   4.499  0.0700  0.1456  0.1020
   37MOL   H39232864   1.175   2.939   4.445  0.1210 -0.6440 -0.0159
   37MOL   H39332865   0.749   2.916   4.463  0.3448  0.7338 -1.2487
   37MOL   H39432866   0.759   2.665   4.474 -1.3927  1.6809  1.6499
   37MOL   H39532867   0.986   3.371   4.348 -0.7758  0.4596 -0.7800
   37MOL   H39632868   0.998   3.460   4.121 -2.2730  0.9798  1.8389
   37MOL   H39732869   0.893   3.072   3.974 -1.2578 -0.1367  0.4291
   37MOL   H39832870   0.868   2.986   4.210 -0.1004 -0.3723 -0.9943
   37MOL   H39932871   0.947   3.463   3.677 -0.4142  1.3956  1.0767
   37MOL   H40032872   1.155   3.556   3.562  1.4988  2.8624  1.5899
   37MOL   H40132873   1.393   3.330   3.830  0.2952  1.9333  0.0272
   37MOL   H40232874   1.210   3.249   3.955 -1.7909 -1.3910  0.1765
   37MOL   H40332875   1.490   3.293   3.654 -1.1930  0.6009  0.3689
   37MOL   H40432876   1.693   3.315   3.525 -1.2378 -0.7442 -3.0290
   37MOL   H40532877   1.582   3.721   3.448  1.3610  0.7591  2.3044
   37MOL   H40632878   1.372   3.695   3.578  0.3615  0.2011 -1.9557
   37MOL   C40732879   1.844   3.628   3.407  0.2019  1.2736 -0.1653
   37MOL   C40832880   1.863   3.722   3.307 -0.3050 -1.0098  0.0168
   37MOL   C40932881   1.960   3.821   3.322 -0.5535 -0.3711 -0.3184
   37MOL   C41032882   2.041   3.811   3.437 -0.1931 -0.1241  0.0615
   37MOL   C41132883   2.025   3.715   3.539  0.3243 -0.1084 -0.4445
   37MOL   C41232884   1.920   3.629   3.523  0.0685  0.0339 -0.1643
   37MOL   S41332885   2.182   3.930   3.440  0.0209 -0.3140 -0.1353
   37MOL   O41432886   2.153   4.028   3.547 -0.3262 -0.4782 -0.5822
   37MOL   O41532887   2.199   3.981   3.303  0.1252  0.2206 -0.0639
   37MOL   C41632888   2.331   3.839   3.485 -0.7357  0.3743 -0.3226
   37MOL   C41732889   2.427   3.805   3.385 -0.3029 -0.7911 -0.1677
   37MOL   C41832890   2.543   3.736   3.413 -0.7180 -0.5814 -0.4281
   37MOL   C41932891   2.572   3.703   3.545 -0.0348 -0.2643 -0.3427
   37MOL   C42032892   2.476   3.726   3.648 -0.5758  0.7040 -0.0282
   37MOL   C42132893   2.359   3.796   3.619 -0.1098  0.4139 -0.3721
   37MOL   O42232894   2.683   3.625   3.587 -0.4121 -0.4939 -0.2845
   37MOL   C42332895   2.797   3.697   3.608  0.7219  0.1671  0.1604
   37MOL   C42432896   2.890   3.718   3.503  0.3430 -0.3501 -0.5098
   37MOL   C42532897   3.010   3.788   3.538  0.8065 -0.0724  0.7798
   37MOL   C42632898   3.025   3.853   3.660  0.5300 -0.3855 -0.0417
   37MOL   C42732899   2.927   3.831   3.760 -0.0891  0.4878 -0.6562
   37MOL   C42832900   2.811   3.758   3.733 -0.1577 -1.1312  0.2732
   37MOL   C42932901   3.151   3.930   3.691  0.3935 -0.6368  0.1527
   37MOL   C43032902   3.147   4.064   3.647 -0.0489  0.5324  0.5514
   37MOL   C43132903   3.251   4.149   3.687  0.0181 -0.5420 -0.3402
   37MOL   C43232904   3.359   4.103   3.759 -0.3422  0.2563 -0.1153
   37MOL   C43332905   3.372   3.968   3.783 -0.2123  1.0515  0.2632
   37MOL   C43432906   3.266   3.884   3.756 -0.1807 -0.8243  0.6957
   37MOL   O43532907   3.452   4.194   3.805 -0.4014 -0.3022  0.3865
   37MOL   H43632908   1.788   3.712   3.229 -0.8810 -0.5679  0.5066
   37MOL   H43732909   1.977   3.897   3.246  0.4972  2.6126  2.7686
   37MOL   H43832910   2.094   3.709   3.622 -0.9285  0.5986  0.6557
   37MOL   H43932911   1.903   3.546   3.589 -0.1344  0.2955  0.1134
   37MOL   H44032912   2.402   3.834   3.284 -2.8964 -0.7876  0.4443
   37MOL   H44132913   2.607   3.700   3.334  0.5456 -1.1879  0.8617
   37MOL   H44232914   2.484   3.675   3.743  0.8800  1.0490  0.0362
   37MOL   H44332915   2.285   3.812   3.695 -0.7319 -2.2973 -0.3602
   37MOL   H44432916   2.868   3.667   3.411 -0.0699  0.4849 -0.8772
   37MOL   H44532917   3.088   3.802   3.465  0.4023 -0.4690  0.2764
   37MOL   H44632918   2.934   3.879   3.856 -1.6430  0.0003 -0.2940
   37MOL   H44732919   2.734   3.747   3.808 -1.1535 -1.6560 -0.8103
   37MOL   H44832920   3.077   4.093   3.569 -0.3341 -0.7467  0.3241
   37MOL   H44932921   3.253   4.246   3.639 -3.7068  0.6797  1.7529
   37MOL   H45032922   3.464   3.925   3.820 -0.2603 -1.2471 -2.1249
   37MOL   H45132923   3.274   3.777   3.769 -2.0817 -1.1542 -0.7112
   37MOL   C45232924   3.411   4.310   3.865 -0.1758  0.2375  0.7492
   37MOL   C45332925   3.496   4.423   3.841 -0.3012 -0.5555  0.1537
   37MOL   C45432926   3.464   4.537   3.917  0.3017 -0.3979  0.2773
   37MOL   C45532927   3.354   4.552   4.003 -0.5890 -0.3255 -0.3471
   37MOL   C45632928   3.274   4.437   4.023  0.3126 -0.5838 -0.1089
   37MOL   C45732929   3.304   4.320   3.954 -0.0213  0.7888  0.4541
   37MOL   S45832930   3.346   4.689   4.115 -0.0904  0.2402 -0.1841
   37MOL   O45932931   3.242   4.653   4.215 -0.7205 -0.2076  0.0440
   37MOL   O46032932   3.330   4.812   4.040 -0.5344 -0.4288 -0.5765
   37MOL   C46132933   3.506   4.701   4.196 -1.0196 -0.0566 -0.1307
   37MOL   C46232934   3.559   4.602   4.284 -0.1758  0.6298 -0.0001
   37MOL   C46332935   3.693   4.621   4.334  1.2683 -0.5824 -0.2060
   37MOL   C46432936   3.767   4.728   4.299 -0.3431 -0.1372  0.3555
   37MOL   C46532937   3.715   4.826   4.211  0.0036  0.3023 -0.1880
   37MOL   C46632938   3.587   4.809   4.165  0.0626 -0.5460 -0.7139
   37MOL   O46732939   3.889   4.744   4.356 -0.0224 -0.6745  0.1410
   37MOL   C46832940   3.998   4.693   4.295  0.6635 -0.4515 -0.1470
   37MOL   C46932941   4.028   4.562   4.321  0.1309  0.2141  0.2758
   37MOL   C47032942   4.136   4.506   4.252 -0.4238 -0.6568  1.0348
   37MOL   C47132943   4.222   4.583   4.166 -0.3213  0.1755  0.6284
   37MOL   C47232944   4.181   4.712   4.137 -0.3362 -0.7309 -0.1187
   37MOL   C47332945   4.069   4.761   4.199 -0.2586  0.2691  0.3401
   37MOL   C47432946   4.340   4.523   4.099  0.1774 -0.0889 -0.6211
   37MOL   C47532947   4.351   4.539   3.960 -0.2270 -0.6089 -0.1154
   37MOL   C47632948   4.446   4.469   3.895  0.2232  0.9496 -0.0368
   37MOL   C47732949   4.535   4.376   3.956 -0.2773  0.1063 -0.8560
   37MOL   C47832950   4.531   4.365   4.099 -0.8050  0.7078  0.1831
   37MOL   C47932951   4.426   4.428   4.163 -0.5990 -0.2601 -0.0695
   37MOL   O48032952   4.630   4.313   3.872  0.2041 -0.0932  0.0990
   37MOL   H48132953   3.585   4.415   3.781  0.2162  0.7366  0.7245
   37MOL   H48232954   3.526   4.620   3.886 -1.8156  1.2417  0.3489
   37MOL   H48332955   3.192   4.433   4.092  1.3609 -2.6812  1.0637
   37MOL   H48432956   3.260   4.226   3.985  4.4119 -0.7742  2.5058
   37MOL   H48532957   3.502   4.511   4.298 -0.1308  0.5914 -0.0667
   37MOL   H48632958   3.714   4.551   4.414 -1.9452 -0.2529  0.9996
   37MOL   H48732959   3.773   4.917   4.203  1.4402 -0.4755  1.1321
   37MOL   H48832960   3.555   4.881   4.091  1.6408  1.9992  1.0245
   37MOL   H48932961   3.974   4.501   4.392 -1.0342 -1.3279 -1.8979
   37MOL   H49032962   4.136   4.400   4.272  0.3072 -0.6883  0.9083
   37MOL   H49132963   4.228   4.776   4.064 -0.6391  0.3058  0.5911
   37MOL   H49232964   4.043   4.865   4.188 -0.5244  0.2367  0.6314
   37MOL   H49332965   4.288   4.601   3.898 -0.8997 -0.2605  0.9163
   37MOL   H49432966   4.457   4.470   3.787 -0.8684 -1.3020 -0.1875
   37MOL   H49532967   4.595   4.297   4.153 -1.2497  1.0386  1.1286
   37MOL   H49632968   4.411   4.411   4.269  0.2086 -2.3736 -0.2613
   37MOL   C49732969   4.625   4.173   3.861  0.1898 -0.1543 -0.1064
   37MOL   C49832970   4.509   4.101   3.826 -0.1132  0.3081  0.7437
   37MOL   C49932971   4.516   3.957   3.806  0.3079 -0.5375  0.4032
   37MOL   C50032972   4.643   3.894   3.805  0.2165  0.5232  0.4914
   37MOL   C50132973   4.758   3.967   3.846  0.4170  0.7208  0.2904
   37MOL   C50232974   4.744   4.099   3.879 -0.2715  0.9724  0.2896
   37MOL   S50332975   4.641   3.710   3.774  0.4451  0.1512  0.0682
   37MOL   O50432976   4.778   3.661   3.753  0.3613 -0.2674 -0.6173
   37MOL   O50532977   4.531   3.665   3.690 -0.3165 -0.2987  0.3074
   37MOL   C50632978   4.586   3.648   3.937  0.5452 -0.6090  0.3100
   37MOL   C50732979   4.450   3.657   3.971 -0.1713  0.4069 -0.2104
   37MOL   C50832980   4.407   3.613   4.097 -0.1871 -0.4697 -0.2095
   37MOL   C50932981   4.507   3.558   4.185 -0.1801 -0.3971  0.1938
   37MOL   C51032982   4.641   3.547   4.151  0.0536  0.4665  0.4791
   37MOL   C51132983   4.687   3.594   4.024 -0.4677 -0.4438 -0.5577
   37MOL   O51232984   4.469   3.508   4.305  0.2710  0.3344  0.1751
   37MOL   C51332985   4.391   3.395   4.310 -0.3674 -0.6235  0.1661
   37MOL   C51432986   4.297   3.370   4.415 -0.5895 -0.0288  1.1208
   37MOL   C51532987   4.238   3.251   4.440  0.0059  0.3566  0.0092
   37MOL   C51632988   4.252   3.143   4.352  0.1811 -0.2322  0.6151
   37MOL   C51732989   4.347   3.164   4.246 -0.7878 -0.0185  0.3512
   37MOL   C51832990   4.421   3.284   4.226  0.7479 -0.0034  0.1495
   37MOL   C51932991   4.163   3.029   4.354 -0.2461 -0.0117  0.1213
   37MOL   C52032992   4.108   2.967   4.240 -0.1285  0.3623 -0.1550
   37MOL   C52132993   4.039   2.846   4.237 -0.6639  0.3891 -0.7038
   37MOL   C52232994   4.007   2.784   4.363 -0.0851  0.0730  0.5094
   37MOL   C52332995   4.049   2.847   4.483 -0.1078  0.1284 -0.0983
   37MOL   C52432996   4.132   2.961   4.471 -0.2559 -0.1641 -0.0545
   37MOL   O52532997   3.941   2.667   4.371 -0.4302  0.0438  0.7539
   37MOL   H52632998   4.420   4.159   3.811 -0.2578 -0.5839 -2.0100
   37MOL   H52732999   4.428   3.902   3.777 -0.4800 -0.1129  1.9788
   37MOL   H52833000   4.854   3.921   3.862  0.3684  1.1941  2.0356
   37MOL   H52933001   4.836   4.155   3.892  0.5124 -0.4530  0.9954
   37MOL   H53033002   4.386   3.706   3.899 -0.2717 -0.1267 -0.4859
   37MOL   H53133003   4.304   3.613   4.128  0.1201 -1.4540  0.8822
   37MOL   H53233004   4.704   3.495   4.221  0.1369 -0.0964 -0.0092
   37MOL   H53333005   4.788   3.570   3.993 -0.2631 -2.2790  1.4249
   37MOL   H53433006   4.276   3.451   4.484 -1.6423  1.6423 -1.1266
   37MOL   H53533007   4.180   3.242   4.531 -2.4559 -1.0671 -1.6725
   37MOL   H53633008   4.358   3.085   4.172 -0.1154  1.0918 -0.7507
   37MOL   H53733009   4.497   3.292   4.150 -0.8131 -0.9264 -1.5377
   37MOL   H53833010   4.126   3.020   4.147 -0.1428  2.2762  0.9176
   37MOL   H53933011   4.001   2.827   4.138 -0.1544 -1.9791 -0.4818
   37MOL   H54033012   4.018   2.814   4.581 -1.9421  0.8547 -0.4079
   37MOL   H54133013   4.173   3.007   4.559  0.1702 -1.8793  0.6621
   37MOL   C54233014   3.805   2.664   4.328  0.1671 -0.2621 -0.1129
   37MOL   C54333015   3.699   2.649   4.421 -0.0987 -0.4091  0.4277
   37MOL   C54433016   3.568   2.646   4.380  0.4506 -0.8619  0.3553
   37MOL   C54533017   3.540   2.650   4.238  0.5970 -0.5718  0.3065
   37MOL   C54633018   3.639   2.653   4.140 -0.0830 -0.0514 -0.2652
   37MOL   C54733019   3.771   2.660   4.189 -0.1810  0.3918 -0.6259
   37MOL   S54833020   3.377   2.643   4.180 -0.0805  0.1510 -0.0694
   37MOL   O54933021   3.375   2.738   4.070  0.0430  0.0488 -0.7699
   37MOL   O55033022   3.284   2.659   4.289  0.0894  1.0651 -0.0654
   37MOL   C55133023   3.335   2.480   4.111  0.2577 -0.5117 -0.0283
   37MOL   C55233024   3.273   2.388   4.192  0.8210 -0.1154  0.5510
   37MOL   C55333025   3.263   2.251   4.149  0.5940 -0.1882  0.3993
   37MOL   C55433026   3.298   2.217   4.016  0.7476  0.1296  0.3684
   37MOL   C55533027   3.369   2.315   3.937  0.1974 -0.5363  0.5057
   37MOL   C55633028   3.397   2.446   3.988  0.0077  0.0768  0.6227
   37MOL   O55733029   3.247   2.097   3.964  0.5699 -0.2761 -0.0446
   37MOL   C55833030   3.242   2.082   3.832 -0.3562 -0.4369 -0.3213
   37MOL   C55933031   3.135   2.140   3.754 -0.6395 -0.4127  0.5818
   37MOL   C56033032   3.144   2.147   3.616 -0.1961 -0.4191  0.1171
   37MOL   C56133033   3.260   2.100   3.557  0.0178 -0.2176 -0.6231
   37MOL   C56233034   3.365   2.048   3.633 -0.4127  0.7631  0.8557
   37MOL   C56333035   3.358   2.032   3.770  0.4509  0.1243 -0.2110
   37MOL   C56433036   3.287   2.114   3.414  0.2973  0.1094 -0.5062
   37MOL   C56533037   3.293   2.248   3.360 -0.3968  1.2189 -0.0358
   37MOL   C56633038   3.329   2.262   3.225  0.0657  0.1303  0.7289
   37MOL   C56733039   3.364   2.153   3.144 -0.1775 -0.2190  0.0472
   37MOL   C56833040   3.346   2.028   3.200 -0.2533 -0.5607 -0.5299
   37MOL   C56933041   3.313   2.004   3.335  0.4145  0.1406  0.2034
   37MOL   O57033042   3.412   2.167   3.016  0.7907  0.0618 -0.3327
   37MOL   H57133043   3.723   2.638   4.526 -1.2697  0.1085  0.7608
   37MOL   H57233044   3.494   2.628   4.456 -0.3092 -1.8778 -0.6081
   37MOL   H57333045   3.625   2.661   4.033  0.9276 -0.3685 -0.4302
   37MOL   H57433046   3.855   2.658   4.121  0.3717  0.0487  0.0642
   37MOL   H57533047   3.230   2.416   4.286 -0.8225 -1.5892  0.2790
   37MOL   H57633048   3.229   2.175   4.219  3.9546 -1.7408  0.4416
   37MOL   H57733049   3.400   2.298   3.835  0.4750 -2.5291  0.9152
   37MOL   H57833050   3.441   2.523   3.927  0.7863 -0.5166  0.4201
   37MOL   H57933051   3.052   2.189   3.804 -0.0730  1.4001 -0.2223
   37MOL   H58033052   3.059   2.175   3.556  1.3674  0.4196 -1.7560
   37MOL   H58133053   3.446   2.010   3.573 -1.6139  1.9443 -1.5752
   37MOL   H58233054   3.441   1.997   3.829 -0.1384  0.4351  0.8158
   37MOL   H58333055   3.264   2.331   3.422 -1.0116  0.2328  1.0219
   37MOL   H58433056   3.346   2.366   3.199  0.3367  0.6320  2.7991
   37MOL   H58533057   3.382   1.938   3.153 -0.4280 -1.9603  1.9388
   37MOL   H58633058   3.310   1.901   3.368 -2.1719  0.1424  0.0959
   37MOL   C58733059   3.348   2.111   2.908 -0.1240  0.3559  1.1349
   37MOL   C58833060   3.211   2.066   2.920 -0.3520 -0.1638  0.3291
   37MOL   C58933061   3.137   1.998   2.820 -0.0378  0.0004  0.2234
   37MOL   C59033062   3.209   1.969   2.706 -0.4100 -0.3848 -0.7260
   37MOL   C59133063   3.343   2.010   2.688  0.5261 -0.6590  0.0092
   37MOL   C59233064   3.410   2.080   2.787 -0.0684 -0.0557 -1.0143
   37MOL   S59333065   3.116   1.894   2.572 -0.3463 -0.2560 -0.2023
   37MOL   O59433066   3.030   1.788   2.624 -0.2154 -0.5072 -0.0375
   37MOL   O59533067   3.207   1.862   2.458  0.9935 -0.4494 -0.2804
   37MOL   C59633068   3.016   2.027   2.513  0.4606 -0.1407  0.3768
   37MOL   C59733069   3.081   2.151   2.477  0.1029  0.1426  0.2494
   37MOL   C59833070   3.003   2.256   2.414 -0.1081  0.5291 -0.5108
   37MOL   C59933071   2.863   2.235   2.399  0.4983  0.1134  0.5644
   37MOL   C60033072   2.804   2.112   2.436  1.0464  0.0352  0.2473
   37MOL   C60133073   2.880   2.008   2.498 -0.5402 -0.5323  0.2664
   37MOL   O60233074   2.788   2.344   2.352 -0.0275  0.1400  0.7259
   37MOL   C60333075   2.756   2.334   2.219  1.0592 -0.3957 -0.1275
   37MOL   C60433076   2.848   2.377   2.123 -0.4094 -0.0159  0.4867
   37MOL   C60533077   2.835   2.327   1.990 -0.0125  0.5412 -0.1900
   37MOL   C60633078   2.731   2.233   1.957 -0.3412 -0.1595 -0.0523
   37MOL   C60733079   2.621   2.217   2.056 -0.4711 -0.0608  0.2957
   37MOL   C60833080   2.640   2.263   2.185 -0.6464  0.2327  0.3212
   37MOL   C60933081   2.732   2.166   1.829 -0.1564  0.3263  0.8954
   37MOL   C61033082   2.673   2.037   1.811 -0.1617  0.2550  0.3893
   37MOL   C61133083   2.669   1.970   1.686 -0.0403  0.3194  0.4404
   37MOL   C61233084   2.736   2.028   1.574  0.3041 -0.1214 -0.5141
   37MOL   C61333085   2.805   2.148   1.588 -0.0130 -0.0759 -0.3717
   37MOL   C61433086   2.795   2.218   1.714  0.1983  0.0307  0.0023
   37MOL   O61533087   2.739   1.974   1.444 -0.2242 -0.0450 -0.5168
   37MOL   H61633088   3.158   2.084   3.013  1.6935 -0.1181  1.5037
   37MOL   H61733089   3.038   1.956   2.826  0.6566 -1.5735  0.9664
   37MOL   H61833090   3.400   1.990   2.598  1.0764 -2.0430  0.6464
   37MOL   H61933091   3.513   2.101   2.761  1.0956 -0.5822  2.8753
   37MOL   H62033092   3.189   2.158   2.480  0.0567  0.7974  0.5749
   37MOL   H62133093   3.054   2.347   2.390  1.9124 -0.7543 -1.2021
   37MOL   H62233094   2.703   2.081   2.414  1.3566 -0.3442 -0.6775
   37MOL   H62333095   2.838   1.910   2.514 -0.7556 -0.2628  1.3834
   37MOL   H62433096   2.930   2.442   2.148  0.9625 -1.4871 -0.0646
   37MOL   H62533097   2.913   2.353   1.919  3.0034 -3.6072  1.4184
   37MOL   H62633098   2.534   2.160   2.026  0.2216 -0.7815 -0.3824
   37MOL   H62733099   2.567   2.221   2.252 -1.5421 -0.4842 -1.0793
   37MOL   H62833100   2.624   1.985   1.893 -0.2437  1.4679  1.1215
   37MOL   H62933101   2.612   1.880   1.671  0.7862 -0.4150  1.5946
   37MOL   H63033102   2.862   2.196   1.510 -1.1786 -1.0189 -1.8280
   37MOL   H63133103   2.836   2.318   1.707 -1.8128  0.9152  0.6540
   37MOL   C63233104   2.660   1.874   1.399  0.2099 -0.1947  0.0332
   37MOL   C63333105   2.719   1.755   1.353  0.1276 -0.3890  0.4385
   37MOL   C63433106   2.634   1.651   1.310 -0.8474  0.1130 -0.1602
   37MOL   C63533107   2.497   1.656   1.324  0.2634 -0.4896  0.0658
   37MOL   C63633108   2.438   1.772   1.373  0.1365 -0.1327 -0.3687
   37MOL   C63733109   2.525   1.878   1.410  0.6423 -0.1575  0.2583
   37MOL   S63833110   2.390   1.531   1.274 -0.0633 -0.1355 -0.2971
   37MOL   O63933111   2.309   1.561   1.156  0.4169 -0.6568 -0.3591
   37MOL   O64033112   2.326   1.489   1.398 -0.3047  0.4816 -0.5639
   37MOL   C64133113   2.498   1.393   1.219  0.5552  0.1902  0.4231
   37MOL   C64233114   2.550   1.392   1.086 -0.3675  0.2088 -0.3442
   37MOL   C64333115   2.613   1.280   1.032 -0.4065 -0.9099  0.3549
   37MOL   C64433116   2.645   1.172   1.118  0.1426 -0.1560  0.1633
   37MOL   C64533117   2.604   1.171   1.249 -0.1529 -0.2031 -0.1370
   37MOL   C64633118   2.529   1.281   1.303  0.1887  0.4419  0.7485
   37MOL   O64733119   2.696   1.057   1.066  0.1592 -0.2248  0.2717
   37MOL   C64833120   2.834   1.062   1.049  0.9146  0.4984 -0.3858
   37MOL   C64933121   2.927   1.116   1.149 -0.9436 -0.4656  0.3392
   37MOL   C65033122   3.062   1.095   1.129  0.4361 -0.9427 -0.1167
   37MOL   C65133123   3.116   1.027   1.020  0.2267 -0.8164  0.5040
   37MOL   C65233124   3.026   0.984   0.921 -0.0930 -0.0755 -0.3922
   37MOL   C65333125   2.891   1.001   0.935 -1.2967  0.0617  0.6906
   37MOL   C65433126   3.257   1.008   0.997 -0.0048 -0.1885  0.2543
   37MOL   C65533127   3.358   1.110   0.981 -0.4907  0.6405  0.4813
   37MOL   C65633128   3.493   1.077   0.960 -0.1353 -0.0889 -0.0575
   37MOL   C65733129   3.530   0.945   0.937  0.0316  0.3663 -0.5831
   37MOL   C65833130   3.431   0.844   0.947 -0.2549  0.5171 -0.1428
   37MOL   C65933131   3.303   0.874   0.993 -0.3580  0.1588  1.2301
   37MOL   O66033132   3.657   0.926   0.891 -0.2448 -0.4793  0.5530
   37MOL   H66133133   2.822   1.731   1.330 -0.4356 -0.7452 -1.8565
   37MOL   H66233134   2.679   1.558   1.277  0.3457 -0.6173  3.3473
   37MOL   H66333135   2.330   1.780   1.381  0.1522 -0.1831 -0.1040
   37MOL   H66433136   2.466   1.956   1.458  0.2691 -0.3681  0.1438
   37MOL   H66533137   2.523   1.480   1.030  2.2437  1.4035  0.2051
   37MOL   H66633138   2.660   1.292   0.936 -1.1699  0.1469  0.1029
   37MOL   H66733139   2.607   1.084   1.313 -0.1225  1.3171  1.9676
   37MOL   H66833140   2.503   1.279   1.408 -0.1249  1.0574  0.6847
   37MOL   H66933141   2.893   1.164   1.240 -0.2473 -1.7342  1.2902
   37MOL   H67033142   3.120   1.153   1.199 -0.4337  1.9619 -1.7153
   37MOL   H67133143   3.059   0.952   0.823 -0.0191  2.4737 -1.2370
   37MOL   H67233144   2.830   0.971   0.851 -0.7313  0.1052  0.2647
   37MOL   H67333145   3.349   1.217   0.990  0.0364  0.6192  1.2318
   37MOL   H67433146   3.568   1.153   0.946  0.4190 -0.8339 -1.2038
   37MOL   H67533147   3.466   0.748   0.914  1.8168  0.6836  1.4381
   37MOL   H67633148   3.235   0.790   0.998 -0.7852  0.3706 -0.5053
   37MOL   C67733149   3.746   0.845   0.959 -0.3391  0.1845 -0.6232
   37MOL   C67833150   3.818   0.738   0.896 -0.2197 -0.9645  0.6365
   37MOL   C67933151   3.910   0.661   0.968 -0.0869 -0.2138 -0.6683
   37MOL   C68033152   3.933   0.690   1.108 -0.3076 -0.1752 -0.1286
   37MOL   C68133153   3.885   0.810   1.164  0.3652 -0.5418 -0.4740
   37MOL   C68233154   3.784   0.882   1.091 -0.3389 -0.0614 -0.3453
   37MOL   S68333155   4.057   0.587   1.192 -0.6300 -0.2813  0.2675
   37MOL   O68433156   4.043   0.451   1.138 -0.3536  0.3220 -0.0972
   37MOL   O68533157   4.049   0.609   1.340  0.0608 -0.6239 -0.1593
   37MOL   C68633158   4.204   0.659   1.130 -0.4418 -0.3373  0.4448
   37MOL   C68733159   4.283   0.596   1.032  0.6930 -0.1894  0.3035
   37MOL   C68833160   4.395   0.663   0.980  0.4730  0.5837  0.4169
   37MOL   C68933161   4.435   0.789   1.032 -0.0011 -0.1122  0.4028
   37MOL   C69033162   4.357   0.849   1.132 -0.6686  0.1778  0.0721
   37MOL   C69133163   4.241   0.788   1.180  0.2312 -0.3617  0.1463
   37MOL   O69233164   4.553   0.844   0.989  0.1160 -0.6603 -0.0046
   37MOL   C69333165   4.549   0.942   0.898 -0.2615 -0.2733 -0.1489
   37MOL   C69433166   4.473   0.934   0.781 -0.0016 -0.0957 -0.9575
   37MOL   C69533167   4.463   1.045   0.692  0.7567  0.1648 -0.1564
   37MOL   C69633168   4.545   1.159   0.715  0.2280 -0.0225  0.5694
   37MOL   C69733169   4.626   1.164   0.825  0.0308 -0.1359  0.3608
   37MOL   C69833170   4.633   1.055   0.915  0.2334 -0.0113 -0.1773
   37MOL   C69933171   4.532   1.271   0.623 -0.2241 -0.0977 -0.0743
   37MOL   C70033172   4.655   1.334   0.574 -0.0020 -0.0006 -0.4165
   37MOL   C70133173   4.643   1.453   0.506  0.5775 -0.1740  1.0225
   37MOL   C70233174   4.516   1.514   0.486 -0.4682  0.0380 -0.1403
   37MOL   C70333175   4.394   1.448   0.518  0.2594 -0.1112  0.2019
   37MOL   C70433176   4.404   1.322   0.585 -0.1047 -1.2378 -0.1790
   37MOL   O70533177   4.517   1.646   0.444 -0.1501 -0.1967 -0.4435
   37MOL   H70633178   3.808   0.722   0.789  0.0175 -0.1391  0.4893
   37MOL   H70733179   3.957   0.578   0.917  0.1631  0.0521 -0.8756
   37MOL   H70833180   3.905   0.837   1.267  0.1593  0.5569 -0.7098
   37MOL   H70933181   3.740   0.968   1.137 -2.0814  0.1371 -2.2937
   37MOL   H71033182   4.258   0.497   0.997 -2.6327  0.6785  0.0440
   37MOL   H71133183   4.451   0.615   0.902 -0.4656  0.3742 -0.1450
   37MOL   H71233184   4.388   0.942   1.177 -1.4703  0.1007  0.7953
   37MOL   H71333185   4.191   0.843   1.258 -1.1484  0.6844 -1.4463
   37MOL   H71433186   4.401   0.857   0.758 -1.2454  0.7057  0.1570
   37MOL   H71533187   4.391   1.030   0.612 -0.7242 -1.2381  1.4043
   37MOL   H71633188   4.683   1.254   0.844 -0.8003  0.4294  0.1831
   37MOL   H71733189   4.694   1.069   1.003 -0.9281 -0.2432  0.6779
   37MOL   H71833190   4.757   1.300   0.590  0.2723  0.8468 -0.3423
   37MOL   H71933191   4.739   1.499   0.489 -0.0087  0.2026 -1.3916
   37MOL   H72033192   4.298   1.493   0.496 -0.6559 -0.1005  3.8903
   37MOL   H72133193   4.311   1.278   0.618  1.3682 -4.2835  0.0550
   37MOL   C72233194   4.423   1.729   0.499 -0.0670 -0.1877  0.1853
   37MOL   C72333195   4.407   1.752   0.638 -0.3047  0.7163 -0.5742
   37MOL   C72433196   4.300   1.829   0.687  0.3585 -0.3227 -0.3200
   37MOL   C72533197   4.206   1.887   0.601  0.1536  0.0090  0.0148
   37MOL   C72633198   4.228   1.872   0.465 -0.1001 -0.3966 -0.1889
   37MOL   C72733199   4.334   1.792   0.411 -0.0807 -0.2909  0.7523
   37MOL   S72833200   4.057   1.970   0.665  0.0019  0.2835  0.0231
   37MOL   O72933201   4.095   2.006   0.802 -0.5595 -0.2062  0.2113
   37MOL   O73033202   3.941   1.880   0.644 -0.0263 -0.0938  0.3352
   37MOL   C73133203   4.034   2.125   0.578 -0.6906  0.1120 -0.3677
   37MOL   C73233204   4.124   2.233   0.602 -0.1051 -0.4270  0.1623
   37MOL   C73333205   4.125   2.351   0.524  0.1714 -0.7485  0.3023
   37MOL   C73433206   4.036   2.360   0.422 -0.0226  0.8429 -0.4871
   37MOL   C73533207   3.943   2.258   0.391 -0.2479 -0.5404 -0.7902
   37MOL   C73633208   3.936   2.140   0.472 -0.0733  0.6311  0.0571
   37MOL   O73733209   4.024   2.475   0.345  0.0944 -0.3393 -0.8448
   37MOL   C73833210   4.031   2.597   0.404 -1.2158  0.6838 -0.3811
   37MOL   C73933211   4.139   2.681   0.386  0.4602  0.2155  0.2307
   37MOL   C74033212   4.159   2.793   0.476  0.3138 -0.3054  0.0079
   37MOL   C74133213   4.065   2.828   0.579  0.2998  0.0338 -0.4385
   37MOL   C74233214   3.953   2.749   0.589  0.2392  0.0114  0.8881
   37MOL   C74333215   3.938   2.637   0.502  0.3957  0.0984 -0.2896
   37MOL   C74433216   4.097   2.941   0.654  0.6051 -1.1145 -0.2759
   37MOL   C74533217   4.218   2.963   0.724  0.2953  0.0604  1.3176
   37MOL   C74633218   4.241   3.080   0.794  0.4597 -0.3171  0.1936
   37MOL   C74733219   4.139   3.180   0.810  0.7882  0.1658  0.3348
   37MOL   C74833220   4.013   3.163   0.744 -0.5433 -0.4670  0.2299
   37MOL   C74933221   3.994   3.039   0.671 -0.3805 -0.2253 -0.7963
   37MOL   O75033222   4.161   3.292   0.883  0.8829  0.3089  0.5622
   37MOL   H75133223   4.478   1.709   0.706  0.2966  1.4248 -0.7442
   37MOL   H75233224   4.277   1.834   0.792  0.3411  0.6209 -0.3624
   37MOL   H75333225   4.159   1.917   0.396 -2.8727 -0.6914  2.2565
   37MOL   H75433226   4.340   1.779   0.304  0.3711 -1.6337  0.9225
   37MOL   H75533227   4.206   2.229   0.673 -1.4627  2.2493  1.9957
   37MOL   H75633228   4.206   2.422   0.539 -0.5322  0.1087  0.0893
   37MOL   H75733229   3.886   2.260   0.299 -1.4077  2.5167 -0.0680
   37MOL   H75833230   3.861   2.066   0.448  0.7065  0.1798 -0.9988
   37MOL   H75933231   4.215   2.653   0.314  0.1526  0.9341 -0.3853
   37MOL   H76033232   4.248   2.846   0.446  0.2700  0.0298  0.4556
   37MOL   H76133233   3.880   2.774   0.665 -1.2187  1.9282 -1.0949
   37MOL   H76233234   3.855   2.572   0.523  0.9020 -0.1900  0.8205
   37MOL   H76333235   4.293   2.887   0.712  0.1998  0.3748 -1.4115
   37MOL   H76433236   4.338   3.095   0.838  0.9200 -0.5862 -0.7292
   37MOL   H76533237   3.931   3.231   0.763 -1.1325 -0.6464 -1.6048
   37MOL   H76633238   3.896   3.029   0.627 -1.1470  3.9936 -0.2772
   37MOL   C76733239   4.270   3.359   0.842 -0.2817  0.3324 -0.7585
   37MOL   C76833240   4.391   3.342   0.910  0.2670  1.0758  0.1361
   37MOL   C76933241   4.502   3.393   0.849 -0.1496  0.1099  0.0626
   37MOL   C77033242   4.497   3.462   0.725 -0.2560  0.8153 -0.4782
   37MOL   C77133243   4.376   3.491   0.668  0.6407  0.0642 -0.2515
   37MOL   C77233244   4.266   3.439   0.729  1.0645  0.4381  0.7285
   37MOL   S77333245   4.650   3.520   0.653  0.0070  0.0010 -0.2057
   37MOL   O77433246   4.627   3.518   0.509 -0.5018 -0.5118 -0.1120
   37MOL   O77533247   4.767   3.458   0.712 -0.2104  0.2092  0.0922
   37MOL   C77633248   4.672   3.700   0.688  0.2739  0.0026 -0.7165
   37MOL   C77733249   4.805   3.750   0.708  0.1960  0.2775 -0.3877
   37MOL   C77833250   4.827   3.885   0.735 -0.7447 -0.5698 -0.5092
   37MOL   C77933251   4.720   3.976   0.733  0.4579 -0.1199 -0.5094
   37MOL   C78033252   4.589   3.927   0.722 -0.0249 -0.3751  0.2922
   37MOL   C78133253   4.563   3.793   0.704  0.2743  0.3047 -0.3544
   37MOL   O78233254   4.741   4.107   0.754  0.1778 -0.3666  0.0721
   37MOL   C78333255   4.771   4.186   0.647  0.2362  0.0787 -0.2363
   37MOL   C78433256   4.669   4.252   0.583  0.5808  0.2607 -0.4664
   37MOL   C78533257   4.694   4.324   0.465  0.5872  0.5508  0.4065
   37MOL   C78633258   4.830   4.354   0.429  0.1588  0.0159  0.5158
   37MOL   C78733259   4.934   4.289   0.494 -0.0820  0.2321  0.2855
   37MOL   C78833260   4.906   4.200   0.604 -0.1035 -0.5489 -0.1756
   37MOL   C78933261   4.866   4.429   0.305  0.0964 -0.2268  0.3164
   37MOL   C79033262   4.945   4.379   0.198  0.6921  0.4968  0.2838
   37MOL   C79133263   4.944   4.447   0.074  0.0733 -0.3838 -0.0768
   37MOL   C79233264   4.898   4.581   0.066 -0.5689 -0.5454  0.7231
   37MOL   C79333265   4.822   4.630   0.169  0.3148 -0.3841  0.1009
   37MOL   C79433266   4.800   4.555   0.284  0.2487  0.8480 -0.1568
   37MOL   O79533267   4.905   4.647   8.311  0.1858  0.0692 -0.2484
   37MOL   H79633268   4.395   3.296   1.007  0.9424 -2.9041 -1.7116
   37MOL   H79733269   4.591   3.385   0.910 -0.4612  1.9862  0.8051
   37MOL   H79833270   4.362   3.559   0.585  0.3484 -2.5860 -2.4622
   37MOL   H79933271   4.166   3.446   0.691  1.8518 -0.4584 -1.5582
   37MOL   H80033272   4.888   3.681   0.700 -0.5259 -0.7092  0.5085
   37MOL   H80133273   4.926   3.927   0.744 -0.3769 -1.0291 -2.3364
   37MOL   H80233274   4.504   3.993   0.730 -1.3591 -1.7995 -1.6202
   37MOL   H80333275   4.465   3.749   0.709 -0.0834  0.9199 -1.6318
   37MOL   H80433276   4.566   4.239   0.613  1.6140 -0.8890  2.7415
   37MOL   H80533277   4.616   4.360   0.399 -0.7321 -0.1928  1.5624
   37MOL   H80633278   5.037   4.308   0.470 -0.0653  1.2083  1.1131
   37MOL   H80733279   4.979   4.149   0.665 -1.0676 -0.7175  0.8492
   37MOL   H80833280   4.996   4.283   0.196 -0.6931 -0.2342 -1.2248
   37MOL   H80933281   4.980   4.395   8.352  1.9835 -0.8435  0.9567
   37MOL   H81033282   4.781   4.730   0.170 -1.7163 -1.1649 -1.9325
   37MOL   H81133283   4.733   4.598   0.358 -0.0460 -1.4941  0.9899
   37MOL   C81233284   4.809   4.614   8.216 -0.6025  0.1010 -0.2213
   37MOL   C81333285   4.830   4.507   8.126  0.8055 -0.1640  0.3841
   37MOL   C81433286   4.720   4.466   8.045  0.0666  0.6347  0.3426
   37MOL   C81533287   4.600   4.543   8.046  0.3261  0.1882  0.0551
   37MOL   C81633288   4.583   4.654   8.127  0.7970 -0.6007 -0.8199
   37MOL   C81733289   4.689   4.680   8.222 -0.0169  0.0212  0.4949
   37MOL   S81833290   4.482   4.516   7.909  0.4677 -0.2377  0.0933
   37MOL   O81933291   4.372   4.619   7.905  0.5530  0.5805  0.5983
   37MOL   O82033292   4.450   4.371   7.904  0.1031  0.3639 -0.2201
   37MOL   C82133293   4.581   4.556   7.764 -0.3381 -0.0529  0.2828
   37MOL   C82233294   4.668   4.666   7.770  0.0022  1.0941  0.1046
   37MOL   C82333295   4.737   4.704   7.652  0.3321 -0.3530 -0.2811
   37MOL   C82433296   4.722   4.632   7.529 -0.1108  0.0989 -0.2915
   37MOL   C82533297   4.644   4.514   7.534 -0.2541 -0.1280 -0.4775
   37MOL   C82633298   4.577   4.476   7.645  0.2362 -0.5165  0.1249
   37MOL   O82733299   4.788   4.674   7.416 -0.1664 -0.1296  0.0737
   37MOL   C82833300   4.901   4.599   7.384  0.6319 -0.1318 -0.6713
   37MOL   C82933301   5.012   4.599   7.466 -0.0669  0.1595 -0.0176
   37MOL   C83033302   5.115   4.510   7.433 -0.7207 -0.1469 -0.2286
   37MOL   C83133303   5.120   4.444   7.308  0.5293  0.2602 -0.6765
   37MOL   C83233304   5.003   4.450   7.227 -0.2523 -0.5508 -0.2479
   37MOL   C83333305   4.893   4.534   7.260  0.4687  0.1254  0.0268
   37MOL   C83433306   5.231   4.347   7.271 -0.0334 -1.0600 -0.3125
   37MOL   C83533307   5.312   4.289   7.374  0.7827 -0.0846 -0.9685
   37MOL   C83633308   5.407   4.193   7.338  0.1710  0.4093 -0.1498
   37MOL   C83733309   5.426   4.154   7.202 -0.6862  0.1880 -0.6798
   37MOL   C83833310   5.368   4.225   7.101 -0.3351  0.1019 -0.1818
   37MOL   C83933311   5.261   4.312   7.136 -0.4237  0.4820  0.1826
   37MOL   O84033312   5.526   4.063   7.181  0.7106 -0.5107  0.3142
   37MOL   H84133313   4.914   4.440   8.131  2.4969  1.5654 -3.1618
   37MOL   H84233314   4.729   4.378   7.984 -0.2907 -1.6246  3.4584
   37MOL   H84333315   4.494   4.714   8.117  0.2990 -1.4569 -1.5785
   37MOL   H84433316   4.669   4.757   8.296  1.8053  0.3157  0.7122
   37MOL   H84533317   4.686   4.720   7.862  0.2339 -0.2608  0.8697
   37MOL   H84633318   4.801   4.791   7.657  0.3379 -0.2789 -1.4136
   37MOL   H84733319   4.644   4.456   7.442 -2.1503  0.4339 -0.8381
   37MOL   H84833320   4.514   4.388   7.648  0.0017 -0.4122 -1.4514
   37MOL   H84933321   5.012   4.664   7.552 -0.6856  0.6059 -0.3594
   37MOL   H85033322   5.197   4.518   7.502 -0.6005  0.2864 -0.4159
   37MOL   H85133323   4.998   4.397   7.133 -0.2437  1.2240 -1.2674
   37MOL   H85233324   4.797   4.528   7.210 -0.2795  1.4885  1.2533
   37MOL   H85333325   5.307   4.321   7.477 -1.0966  0.0912 -1.0863
   37MOL   H85433326   5.457   4.144   7.420 -0.2613  0.0335 -0.1140
   37MOL   H85533327   5.389   4.207   6.997  1.7308  0.4017  0.1629
   37MOL   H85633328   5.210   4.356   7.052  1.9597  2.2299 -0.4087
   37MOL   C85733329   5.490   3.942   7.122  0.3663 -0.0380  0.3574
   37MOL   C85833330   5.436   3.843   7.201 -0.2675  0.0505  0.4815
   37MOL   C85933331   5.400   3.717   7.146  0.2761 -0.0398 -0.0982
   37MOL   C86033332   5.418   3.696   7.008 -0.3583  0.9595 -0.4981
   37MOL   C86133333   5.459   3.796   6.925 -0.1587  0.0171  0.3877
   37MOL   C86233334   5.496   3.920   6.982 -0.2528 -0.0631 -0.0059
   37MOL   S86333335   5.398   3.526   6.951 -0.0509  0.0991  0.1241
   37MOL   O86433336   5.481   3.431   7.025 -0.6047  0.6356 -0.6844
   37MOL   O86533337   5.401   3.520   6.804 -0.1972 -0.0812  0.2887
   37MOL   C86633338   5.223   3.485   6.990  0.9850  0.3447  0.3749
   37MOL   C86733339   5.188   3.351   7.031  0.0326 -0.0925 -0.3539
   37MOL   C86833340   5.055   3.329   7.064 -0.2482 -0.6280 -0.1893
   37MOL   C86933341   4.958   3.430   7.059  0.0750  0.1630 -0.7129
   37MOL   C87033342   4.984   3.554   7.001  0.2390 -0.1800  0.3755
   37MOL   C87133343   5.122   3.584   6.972 -0.1575  0.0834 -0.3922
   37MOL   O87233344   4.836   3.405   7.116  0.3243  0.2815  0.2977
   37MOL   C87333345   4.755   3.322   7.041 -0.3384  0.9715  0.1538
   37MOL   C87433346   4.753   3.182   7.062 -0.1401 -0.8346 -0.3486
   37MOL   C87533347   4.669   3.101   6.987 -0.1513 -0.3590 -0.1347
   37MOL   C87633348   4.577   3.154   6.893 -0.0874 -0.1266  0.2447
   37MOL   C87733349   4.571   3.294   6.891 -0.4811  0.3706  0.7562
   37MOL   C87833350   4.654   3.376   6.964 -0.2960 -0.5269 -0.4346
   37MOL   C87933351   4.497   3.075   6.794 -0.5422 -0.6148 -0.2329
   37MOL   C88033352   4.464   3.126   6.666  0.0377  0.4631  0.6231
   37MOL   C88133353   4.380   3.049   6.583  0.6793 -0.5881 -0.6549
   37MOL   C88233354   4.347   2.916   6.616 -1.0008  0.1145  0.2982
   37MOL   C88333355   4.386   2.860   6.745 -0.4288 -0.0347 -0.2954
   37MOL   C88433356   4.465   2.943   6.830 -0.1837  0.8013  0.4126
   37MOL   O88533357   4.289   2.828   6.535  0.5492 -0.4426  0.3598
   37MOL   H88633358   5.435   3.850   7.309  1.2196 -1.4603  0.6219
   37MOL   H88733359   5.366   3.633   7.206 -0.5754  1.0439  0.9555
   37MOL   H88833360   5.488   3.769   6.824 -0.7470 -0.3637  0.3195
   37MOL   H88933361   5.548   3.993   6.922 -0.9035  1.3579  1.1177
   37MOL   H89033362   5.261   3.272   7.044 -1.0555 -0.6708  2.3920
   37MOL   H89133363   5.040   3.232   7.108 -0.5424 -0.9976 -1.0821
   37MOL   H89233364   4.905   3.628   7.000 -0.5032 -0.9443  1.2077
   37MOL   H89333365   5.161   3.681   6.949 -0.2606  0.1322 -0.3623
   37MOL   H89433366   4.818   3.136   7.135 -0.6437  0.7726  1.1350
   37MOL   H89533367   4.687   2.996   7.000  1.0503  0.0610  1.9397
   37MOL   H89633368   4.503   3.353   6.831  1.0580 -0.1166 -1.5436
   37MOL   H89733369   4.636   3.482   6.960  1.1098 -0.3121 -1.2433
   37MOL   H89833370   4.499   3.218   6.622 -1.8217  1.7522  1.7498
   37MOL   H89933371   4.350   3.086   6.487 -1.4492  0.0188  0.2207
   37MOL   H90033372   4.363   2.757   6.768  1.8214 -0.5199 -0.1744
   37MOL   H90133373   4.488   2.905   6.929 -2.1851  1.5556  1.1862
   37MOL   H90233374   4.330   2.743   6.545 -1.4887 -1.4294  0.4594
   38MOL     C133375   6.562   7.368   4.220  0.0160  0.3994  0.2646
   38MOL     C233376   6.474   7.368   4.333 -0.1389 -0.5069  0.4814
   38MOL     C333377   6.365   7.281   4.341 -0.1454  0.2394  0.1362
   38MOL     C433378   6.341   7.194   4.240  0.2503 -0.3988 -0.1792
   38MOL     C533379   6.423   7.185   4.128  0.1636 -0.3266  0.4689
   38MOL     C633380   6.532   7.272   4.118  0.6509 -0.2378 -0.2272
   38MOL     S733381   6.195   7.085   4.262 -0.3265 -0.0342  0.0567
   38MOL     O833382   6.163   7.027   4.130  0.6304 -0.2872  0.1839
   38MOL     O933383   6.090   7.157   4.334  1.0304  0.0230 -0.2964
   38MOL    C1033384   6.253   6.950   4.362  0.0784  0.3325  0.6831
   38MOL    C1133385   6.378   6.882   4.334  0.4024  0.4997 -0.0608
   38MOL    C1233386   6.406   6.760   4.407 -0.2559 -0.6333  0.5456
   38MOL    C1333387   6.326   6.723   4.511  1.1486  1.6153  0.4249
   38MOL    C1433388   6.206   6.798   4.542  0.7123  0.1621  0.1749
   38MOL    C1533389   6.170   6.911   4.464  0.1577 -0.1663 -1.2739
   38MOL    O1633390   6.352   6.613   4.585  0.0595  0.6884 -0.8390
   38MOL    C1733391   6.394   6.500   4.522  0.5100  0.6403  0.0114
   38MOL    C1833392   6.483   6.410   4.591 -0.1490  0.5295 -0.4446
   38MOL    C1933393   6.516   6.290   4.530  0.3415  0.2733  0.0104
   38MOL    C2033394   6.472   6.256   4.401 -0.4476  0.9286  0.0562
   38MOL    C2133395   6.387   6.345   4.332 -0.0973 -0.2395 -0.8246
   38MOL    C2233396   6.340   6.460   4.399 -0.0248 -0.1269 -0.0006
   38MOL    C2333397   6.515   6.130   4.333 -0.8638 -0.6215 -0.2152
   38MOL    C2433398   6.582   6.139   4.210  0.0554 -0.3854  0.6587
   38MOL    C2533399   6.622   6.020   4.137 -0.0356 -0.1788 -0.2470
   38MOL    C2633400   6.615   5.897   4.202 -0.1216 -0.5067 -0.0573
   38MOL    C2733401   6.554   5.889   4.326  0.0881 -0.4300 -0.8651
   38MOL    C2833402   6.495   6.006   4.392  0.4428  0.5353  0.4237
   38MOL    O2933403   6.674   5.787   4.145  0.3648  0.3641 -0.2356
   38MOL    H3033404   6.485   7.433   4.418 -0.4324 -0.5190  0.5302
   38MOL    H3133405   6.296   7.291   4.423  1.6861  0.0762  1.7098
   38MOL    H3233406   6.391   7.117   4.051 -0.6499  0.6654 -0.0808
   38MOL    H3333407   6.603   7.253   4.038  1.9393  1.2436  0.5278
   38MOL    H3433408   6.444   6.919   4.257  0.5681  0.3465  0.0080
   38MOL    H3533409   6.492   6.702   4.379  1.5117  1.4230  1.5296
   38MOL    H3633410   6.150   6.774   4.631 -0.1224 -0.4780 -0.5154
   38MOL    H3733411   6.079   6.961   4.493 -0.9843 -2.5900 -0.5604
   38MOL    H3833412   6.523   6.435   4.688 -1.6169  0.2344  0.2375
   38MOL    H3933413   6.578   6.218   4.582 -0.4972 -0.4313  0.0539
   38MOL    H4033414   6.350   6.324   4.233 -2.4623 -1.0433  0.2012
   38MOL    H4133415   6.260   6.518   4.357  0.5131  0.1213 -0.6937
   38MOL    H4233416   6.604   6.239   4.173 -0.3220  0.0783  1.6630
   38MOL    H4333417   6.651   6.014   4.034  2.0782  0.3314  0.2818
   38MOL    H4433418   6.542   5.797   4.383 -1.9460  0.0045 -0.5559
   38MOL    H4533419   6.441   6.013   4.485 -0.2133  1.2582 -0.0107
   38MOL    H4633420   6.641   7.441   4.208  1.3239 -0.5130  2.9300
   38MOL    C4733421   6.612   5.693   4.062 -0.2164 -0.2155 -0.3678
   38MOL    C4833422   6.684   5.588   4.005  0.1202  0.2731  0.0911
   38MOL    C4933423   6.623   5.494   3.927  0.0016 -0.6073  0.2929
   38MOL    C5033424   6.482   5.513   3.897 -0.4439  0.2422  0.5156
   38MOL    C5133425   6.416   5.626   3.942  0.3827  0.0417  0.3838
   38MOL    C5233426   6.478   5.720   4.030  0.2416 -0.0455 -0.8857
   38MOL    S5333427   6.403   5.396   3.782 -0.4152  0.0690  0.4026
   38MOL    O5433428   6.506   5.355   3.684 -0.5223 -0.1997 -0.0084
   38MOL    O5533429   6.278   5.460   3.731 -0.1834 -0.1546 -0.4675
   38MOL    C5633430   6.356   5.249   3.868 -0.3531 -0.4441  0.2274
   38MOL    C5733431   6.386   5.224   4.007 -0.0166 -0.6116  0.2028
   38MOL    C5833432   6.342   5.105   4.064  0.0236 -0.2445  0.5907
   38MOL    C5933433   6.277   5.007   3.986  0.2956  0.1055 -0.8944
   38MOL    C6033434   6.265   5.025   3.847 -0.1979 -0.2959  0.3407
   38MOL    C6133435   6.302   5.149   3.787  0.7113  0.0453  0.0282
   38MOL    O6233436   6.261   4.877   4.040  0.6407 -0.6130  0.6949
   38MOL    C6333437   6.372   4.811   4.077  0.3006  0.3114  0.0408
   38MOL    C6433438   6.379   4.764   4.209  0.0073 -0.4408  0.2059
   38MOL    C6533439   6.492   4.694   4.252 -0.0568 -0.0588  0.8868
   38MOL    C6633440   6.602   4.678   4.165  0.6655 -0.8171 -0.2592
   38MOL    C6733441   6.591   4.729   4.033 -0.4749  0.4166 -0.2738
   38MOL    C6833442   6.477   4.788   3.983 -0.6639  0.5573  0.2991
   38MOL    C6933443   6.729   4.625   4.216 -0.1483 -0.0622  0.7133
   38MOL    C7033444   6.771   4.496   4.188 -0.1444 -0.6851  0.1084
   38MOL    C7133445   6.892   4.444   4.242  0.0484 -0.2661 -0.3783
   38MOL    C7233446   6.974   4.532   4.319  0.2490  0.5800 -0.8113
   38MOL    C7333447   6.924   4.656   4.351 -0.4046  0.2426 -0.2132
   38MOL    C7433448   6.804   4.705   4.296 -0.4326  0.0922 -0.3319
   38MOL    O7533449   7.107   4.502   4.356 -0.3908  0.7577  0.1131
   38MOL    H7633450   6.790   5.585   4.023  0.5565  2.6429 -1.7637
   38MOL    H7733451   6.668   5.408   3.882 -2.0989  0.0757 -3.3282
   38MOL    H7833452   6.315   5.648   3.909  0.5969 -0.1348 -0.4080
   38MOL    H7933453   6.414   5.803   4.057 -2.0547 -0.3273 -4.9313
   38MOL    H8033454   6.436   5.300   4.065 -2.8941 -0.1421  2.1985
   38MOL    H8133455   6.364   5.086   4.168  2.4452 -1.4091 -0.0850
   38MOL    H8233456   6.216   4.944   3.794  1.7056 -2.3315  1.5919
   38MOL    H8333457   6.282   5.168   3.682  0.6173 -0.7584 -0.0981
   38MOL    H8433458   6.297   4.759   4.279 -0.6552 -3.1908 -0.7323
   38MOL    H8533459   6.495   4.654   4.352  0.1043 -2.5047 -0.0553
   38MOL    H8633460   6.672   4.704   3.966  0.6244  0.1022  1.1574
   38MOL    H8733461   6.479   4.819   3.879  1.3467  0.7973  0.4036
   38MOL    H8833462   6.718   4.428   4.123 -1.0189 -0.0225  0.1150
   38MOL    H8933463   6.916   4.342   4.213  0.1800 -0.4585  0.4010
   38MOL    H9033464   6.982   4.727   4.409 -1.3760  0.2074  0.8094
   38MOL    H9133465   6.767   4.803   4.321 -1.9297 -0.3999 -0.5427
   38MOL    C9233466   7.193   4.421   4.277  0.4520  1.0061 -0.2850
   38MOL    C9333467   7.174   4.284   4.285  0.6606  0.3872 -0.3795
   38MOL    C9433468   7.242   4.199   4.204 -0.1925 -0.0788  0.0002
   38MOL    C9533469   7.347   4.245   4.123  0.4992 -0.6935 -0.1357
   38MOL    C9633470   7.364   4.390   4.122  0.1842  0.3930  0.3081
   38MOL    C9733471   7.292   4.478   4.194  0.5141 -0.1841  0.0486
   38MOL    S9833472   7.431   4.132   4.013  0.0958  0.1379 -0.3722
   38MOL    O9933473   7.483   4.207   3.897 -0.0751 -0.0023  0.1083
   38MOL   O10033474   7.341   4.018   3.992  0.1649  0.4036 -0.5368
   38MOL   C10133475   7.567   4.071   4.100 -0.6631  0.7979  0.3560
   38MOL   C10233476   7.700   4.122   4.078  0.1118  0.0222 -0.3899
   38MOL   C10333477   7.803   4.071   4.164 -0.6763 -0.6306  0.2383
   38MOL   C10433478   7.779   3.974   4.265  0.2045 -0.2102 -0.2168
   38MOL   C10533479   7.649   3.922   4.281  0.0183 -0.0183 -0.0674
   38MOL   C10633480   7.545   3.969   4.199 -0.5932 -0.0795 -0.2182
   38MOL   O10733481   7.875   3.942   4.354 -0.2913  0.1668  0.0937
   38MOL   C10833482   7.957   3.834   4.316 -0.2693 -0.0880  0.2437
   38MOL   C10933483   7.908   3.706   4.337 -0.0604  0.4163 -0.0147
   38MOL   C11033484   7.985   3.593   4.311 -0.2344 -0.3111 -0.0346
   38MOL   C11133485   8.111   3.607   4.240  0.1575  0.2028 -0.2780
   38MOL   C11233486   8.157   3.740   4.220 -0.8488 -0.6618 -0.1202
   38MOL   C11333487   8.084   3.858   4.255 -0.3988  0.1610  0.4174
   38MOL   C11433488   8.195   3.496   4.196 -0.0669 -0.3052  0.2873
   38MOL   C11533489   8.340   3.509   4.189 -0.5366  0.5033 -0.2835
   38MOL   C11633490   0.043   3.402   4.125 -1.4590 -0.0618 -0.2720
   38MOL   C11733491   8.350   3.290   4.074 -0.0880  0.0738  0.6830
   38MOL   C11833492   8.209   3.276   4.091  0.1638  0.2829 -0.2485
   38MOL   C11933493   8.134   3.382   4.153 -0.1281 -0.3926  0.1793
   38MOL   O12033494   0.043   3.193   3.998  0.5684 -0.1010  0.1174
   38MOL   H12133495   7.102   4.247   4.356  1.1843  0.4198  0.1700
   38MOL   H12233496   7.240   4.091   4.204  4.1079 -0.3082 -2.8089
   38MOL   H12333497   7.440   4.437   4.062  1.2557  0.0906  1.3920
   38MOL   H12433498   7.308   4.585   4.185 -2.6753  0.5302  1.8266
   38MOL   H12533499   7.720   4.195   4.001 -1.9328  1.8748  0.7740
   38MOL   H12633500   7.898   4.121   4.147 -0.3012 -2.0791 -2.2962
   38MOL   H12733501   7.641   3.838   4.348 -0.6064  1.0745  1.2437
   38MOL   H12833502   7.445   3.930   4.215 -0.7097  0.0864 -0.5516
   38MOL   H12933503   7.812   3.683   4.381  0.3481 -0.4201  0.4501
   38MOL   H13033504   7.958   3.490   4.331 -0.9484 -0.3029 -0.9243
   38MOL   H13133505   8.255   3.756   4.177  0.1712 -2.8547  1.2359
   38MOL   H13233506   8.106   3.962   4.236 -1.7672  0.4432  0.3362
   38MOL   H13333507   0.030   3.593   4.228 -1.7393  1.3258 -0.3095
   38MOL   H13433508   0.149   3.416   4.108 -0.9377 -2.1988  0.9997
   38MOL   H13533509   8.160   3.185   4.058 -0.3422  0.6269 -0.4529
   38MOL   H13633510   8.027   3.372   4.144 -0.0512 -0.5488 -0.5746
   38MOL   C13733511   0.151   3.138   4.050  1.0306  0.0666  0.6229
   38MOL   C13833512   0.262   3.116   3.966  0.0669 -0.4859  0.0557
   38MOL   C13933513   0.366   3.037   4.009  0.0600 -0.0470  0.8442
   38MOL   C14033514   0.369   2.991   4.138 -0.0929  0.3974  0.0449
   38MOL   C14133515   0.265   3.019   4.227 -0.6076  0.0737 -0.2931
   38MOL   C14233516   0.150   3.088   4.179 -0.1806  0.5680 -0.3429
   38MOL   S14333517   0.516   2.897   4.188 -0.0831  0.3263 -0.2141
   38MOL   O14433518   0.562   2.974   4.306  0.1370  0.1480 -0.1902
   38MOL   O14533519   0.609   2.883   4.081  0.0225  0.0900  0.7605
   38MOL   C14633520   0.473   2.730   4.239  0.9221 -0.5141  0.0241
   38MOL   C14733521   0.341   2.697   4.271  0.4810 -0.0913 -0.2072
   38MOL   C14833522   0.302   2.566   4.316  0.3040 -0.7361  0.0788
   38MOL   C14933523   0.399   2.469   4.332  0.4281  0.5312 -0.1283
   38MOL   C15033524   0.531   2.501   4.284  0.2053  0.0669  0.5021
   38MOL   C15133525   0.567   2.630   4.240  0.5463 -0.0105  0.8859
   38MOL   O15233526   0.371   2.351   4.392 -0.3674 -0.0374  0.6326
   38MOL   C15333527   0.327   2.238   4.331  0.1881  0.0020  0.4872
   38MOL   C15433528   0.275   2.124   4.401  0.6398 -0.2428 -0.0526
   38MOL   C15533529   0.218   2.017   4.329  0.1328 -0.1512  0.7100
   38MOL   C15633530   0.216   2.012   4.186  0.5157  0.1510  0.4596
   38MOL   C15733531   0.260   2.124   4.120  0.6925  1.0376  0.3350
   38MOL   C15833532   0.311   2.233   4.190 -0.3631 -0.7063 -0.4758
   38MOL   C15933533   0.170   1.888   4.117 -0.5348 -0.1694  0.6588
   38MOL   C16033534   0.235   1.845   4.005 -0.3464 -0.3377  0.2104
   38MOL   C16133535   0.199   1.723   3.944 -0.2723 -0.7376  0.1879
   38MOL   C16233536   0.090   1.651   3.990 -0.1603  0.5705  1.1572
   38MOL   C16333537   0.015   1.701   4.095 -0.2275 -0.9080 -1.2669
   38MOL   C16433538   0.060   1.811   4.170  0.2687 -0.4303  0.0676
   38MOL   O16533539   0.048   1.532   3.932 -0.5720 -0.2251 -0.5705
   38MOL   H16633540   0.273   3.168   3.872  1.2641  0.5104  0.7306
   38MOL   H16733541   0.448   3.015   3.944  0.5033  0.7666  1.1215
   38MOL   H16833542   0.265   2.981   4.328  0.9832  1.4259  0.2375
   38MOL   H16933543   0.058   3.093   4.236 -2.2376  0.7739 -3.5628
   38MOL   H17033544   0.263   2.770   4.266 -0.7453 -1.3902 -0.3063
   38MOL   H17133545   0.201   2.548   4.351  0.9088 -5.1736 -0.1430
   38MOL   H17233546   0.604   2.422   4.272 -0.7532 -0.6283 -0.9371
   38MOL   H17333547   0.671   2.644   4.212  0.6374  0.4505  1.4457
   38MOL   H17433548   0.273   2.126   4.509 -0.9431 -1.3114 -0.0440
   38MOL   H17533549   0.184   1.929   4.384 -0.9477  0.5831  1.2388
   38MOL   H17633550   0.267   2.112   4.013  0.0413  0.1157  0.3940
   38MOL   H17733551   0.358   2.318   4.142  1.7859 -0.6500  1.6309
   38MOL   H17833552   0.309   1.903   3.952 -1.9717  2.8810  1.3183
   38MOL   H17933553   0.259   1.712   3.856  1.2840 -1.0387  1.2627
   38MOL   H18033554   8.295   1.648   4.132  0.6115  0.8722  3.6443
   38MOL   H18133555   0.002   1.835   4.258  1.7942  1.5943  0.5598
   38MOL   C18233556   0.065   1.419   4.000  0.0634 -0.4628 -0.3461
   38MOL   C18333557   0.173   1.335   3.969  0.4210  0.5241 -0.0859
   38MOL   C18433558   0.191   1.206   4.029  0.0026 -0.7861  0.1401
   38MOL   C18533559   0.105   1.173   4.137  0.2194 -0.1610  0.3603
   38MOL   C18633560   8.361   1.259   4.171 -0.2355  0.3406  0.0762
   38MOL   C18733561   8.340   1.376   4.104  0.1626  0.3192 -0.3156
   38MOL   S18833562   0.126   1.037   4.243 -0.0690 -0.2564 -0.2263
   38MOL   O18933563   0.103   1.086   4.379  0.0481 -0.3081 -0.2180
   38MOL   O19033564   0.253   0.967   4.211 -0.4011 -0.3463  0.3833
   38MOL   C19133565   8.360   0.917   4.213 -0.6896 -0.3229  0.2218
   38MOL   C19233566   8.240   0.942   4.136 -0.0136  0.8316 -0.9922
   38MOL   C19333567   8.146   0.838   4.119  0.1300  0.0568 -0.8001
   38MOL   C19433568   8.167   0.710   4.180 -0.4630 -0.5836 -0.0365
   38MOL   C19533569   8.277   0.690   4.270  0.4932 -0.8907 -0.3795
   38MOL   C19633570   8.363   0.796   4.285  0.8908 -1.3314  0.3975
   38MOL   O19733571   8.077   0.614   4.152  0.0194  0.0161 -0.3046
   38MOL   C19833572   8.101   0.536   4.039 -0.1086  0.3054  0.2155
   38MOL   C19933573   8.235   0.487   4.012 -0.0398 -0.1404 -0.8558
   38MOL   C20033574   8.263   0.416   3.889  0.8158 -0.5691  0.0313
   38MOL   C20133575   8.156   0.382   3.801 -0.2997 -0.2203  0.0089
   38MOL   C20233576   8.027   0.431   3.823  0.5744  0.0778 -0.4086
   38MOL   C20333577   8.002   0.510   3.942 -0.1952  0.0403  0.6345
   38MOL   C20433578   8.186   0.308   3.679 -0.2054 -0.1150 -0.7824
   38MOL   C20533579   8.295   0.335   3.599  0.2316 -0.2108  0.1481
   38MOL   C20633580   8.323   0.266   3.479 -0.0751  0.3028 -0.3315
   38MOL   C20733581   8.228   0.175   3.440 -0.4952 -0.1047  0.6229
   38MOL   C20833582   8.121   0.135   3.522 -0.5426 -0.4294  0.6967
   38MOL   C20933583   8.095   0.205   3.642  0.0631 -0.2648  0.1207
   38MOL   O21033584   8.239   0.116   3.321  0.1793  0.3855 -0.3410
   38MOL   H21133585   0.232   1.364   3.884  0.8448 -1.8269 -0.6064
   38MOL   H21233586   0.263   1.135   3.990 -0.0140 -1.5587  1.4714
   38MOL   H21333587   8.295   1.229   4.251  0.0192 -0.5881 -0.0540
   38MOL   H21433588   8.249   1.430   4.127 -0.2769 -0.5124 -0.1095
   38MOL   H21533589   8.235   1.041   4.092 -0.2317  1.4700  0.4522
   38MOL   H21633590   8.049   0.852   4.074 -1.4118  0.1633  2.4460
   38MOL   H21733591   8.288   0.594   4.318 -2.9541 -1.3697 -0.4516
   38MOL   H21833592   0.074   0.776   4.358 -0.3157 -0.5426  1.9432
   38MOL   H21933593   8.315   0.498   4.083 -1.0280 -0.0350  0.2576
   38MOL   H22033594   8.360   0.376   3.865  0.2070 -1.0361 -1.7325
   38MOL   H22133595   7.946   0.417   3.753  0.0127 -1.0825  0.4686
   38MOL   H22233596   7.904   0.549   3.965 -0.4472 -1.9442  3.1288
   38MOL   H22333597   0.000   0.412   3.624  1.0005 -0.7285 -0.4396
   38MOL   H22433598   0.047   0.278   3.421  0.3237  0.3311  0.2865
   38MOL   H22533599   8.048   0.061   3.489 -0.6849 -1.3479  2.9581
   38MOL   H22633600   8.004   0.189   3.699 -0.0431 -0.6765 -0.1660
   38MOL   C22733601   8.315   0.002   3.302  0.2876 -0.0738  0.4022
   38MOL   C22833602   0.090   0.000   3.312  0.2156 -0.3703  0.4043
   38MOL   C22933603   0.164   8.248   3.292 -0.3687  0.0161 -0.4140
   38MOL   C23033604   0.093   8.132   3.252 -0.9868  0.0706  0.3316
   38MOL   C23133605   8.317   8.133   3.238 -1.0341 -0.6364  0.2074
   38MOL   C23233606   8.244   8.253   3.256 -0.6703  0.3741 -0.0335
   38MOL   S23333607   0.192   7.977   3.245  0.3604 -0.3907  0.0368
   38MOL   O23433608   0.152   7.922   3.373  0.1312  0.1678 -0.0728
   38MOL   O23533609   0.330   8.011   3.214  0.1158 -0.4364 -0.6242
   38MOL   C23633610   0.132   7.878   3.102  0.0950 -0.7326 -0.0304
   38MOL   C23733611   0.163   7.743   3.094  0.0970  0.2947 -0.5355
   38MOL   C23833612   0.094   7.652   3.011 -0.5890 -0.1307  0.2529
   38MOL   C23933613   0.007   7.707   2.910  0.3509  0.4938 -0.3937
   38MOL   C24033614   8.346   7.842   2.911  0.7961 -0.4757  0.2395
   38MOL   C24133615   0.036   7.927   3.005 -0.6643  0.0204  0.2765
   38MOL   O24233616   8.327   7.617   2.817 -0.1999  0.5054 -0.1089
   38MOL   C24333617   8.190   7.619   2.784  0.3982  0.4016 -0.8475
   38MOL   C24433618   8.155   7.645   2.652  0.5008  0.5276  0.1762
   38MOL   C24533619   8.021   7.660   2.612 -0.1008  0.6245 -0.7985
   38MOL   C24633620   7.922   7.646   2.708 -0.3164  0.1560  0.1554
   38MOL   C24733621   7.960   7.618   2.839  0.1978 -0.0816 -0.2317
   38MOL   C24833622   8.091   7.604   2.885 -0.1081  0.2125 -0.2704
   38MOL   C24933623   7.778   7.671   2.672 -0.1710  0.2970 -0.4046
   38MOL   C25033624   7.725   7.628   2.555  0.4435  0.0956  0.5390
   38MOL   C25133625   7.592   7.638   2.525  0.5626  0.7819  0.8320
   38MOL   C25233626   7.495   7.680   2.625 -0.5547 -0.0267 -0.0006
   38MOL   C25333627   7.546   7.723   2.747  0.6421 -0.1459 -0.3354
   38MOL   C25433628   7.686   7.722   2.769 -0.5749 -0.1031 -0.3566
   38MOL   O25533629   7.359   7.688   2.601 -0.3774  0.3363  0.3656
   38MOL   H25633630   0.146   0.089   3.338 -0.7787  0.6008 -0.6798
   38MOL   H25733631   0.271   8.245   3.302 -0.1129  2.0002 -2.2741
   38MOL   H25833632   8.265   8.046   3.201 -0.8200  0.6240 -3.2427
   38MOL   H25933633   8.136   8.256   3.247 -0.7753 -2.0643  0.2126
   38MOL   H26033634   0.235   7.702   3.163 -3.2227 -0.1219  2.8433
   38MOL   H26133635   0.112   7.545   3.012  0.0290 -0.0927 -3.1081
   38MOL   H26233636   8.282   7.879   2.832 -1.3577 -2.2075  1.1117
   38MOL   H26333637   0.007   8.031   2.998  1.1442  0.4546 -1.2120
   38MOL   H26433638   8.230   7.665   2.577 -0.9421 -1.0595 -1.7397
   38MOL   H26533639   8.005   7.685   2.508  0.6728 -0.4494 -1.1816
   38MOL   H26633640   7.880   7.616   2.913 -0.2410 -0.9414 -0.7154
   38MOL   H26733641   8.115   7.606   2.990  1.8002  1.6644 -0.7085
   38MOL   H26833642   7.791   7.581   2.484 -0.1004 -1.6138  1.1560
   38MOL   H26933643   7.552   7.605   2.430  2.0952 -0.3320  0.5484
   38MOL   H27033644   7.484   7.754   2.830 -0.3350 -2.0422 -0.3222
   38MOL   H27133645   7.708   7.736   2.873  0.6573  1.2899 -0.7771
   38MOL   C27233646   7.269   7.628   2.681 -0.4675 -0.6051 -0.3294
   38MOL   C27333647   7.207   7.701   2.783 -0.4576 -0.6371 -0.7946
   38MOL   C27433648   7.112   7.643   2.871 -0.4523  0.0616 -0.6435
   38MOL   C27533649   7.088   7.505   2.863 -0.2688 -0.9416 -0.4154
   38MOL   C27633650   7.150   7.428   2.763  0.3006 -0.6889 -0.6236
   38MOL   C27733651   7.240   7.488   2.673  0.0288 -0.6712  0.1004
   38MOL   S27833652   6.962   7.425   2.964  0.2356  0.1349 -0.0815
   38MOL   O27933653   7.036   7.328   3.048 -0.4972  0.6645 -0.1652
   38MOL   O28033654   6.864   7.376   2.864  0.2137  0.0390  0.2276
   38MOL   C28133655   6.886   7.547   3.069  0.6095  0.1720  0.3751
   38MOL   C28233656   6.816   7.651   3.011  0.0119 -0.1770 -0.1281
   38MOL   C28333657   6.747   7.741   3.096  0.4384  0.3742 -0.0067
   38MOL   C28433658   6.745   7.721   3.233 -0.5507  0.6559 -0.3532
   38MOL   C28533659   6.820   7.611   3.288  0.3995  0.8588  0.1048
   38MOL   C28633660   6.895   7.528   3.203  0.2892  0.0177 -0.0898
   38MOL   O28733661   6.660   7.791   3.314 -0.4093  0.1160  0.5317
   38MOL   C28833662   6.630   7.917   3.273  0.3325  0.1799  0.1984
   38MOL   C28933663   6.729   8.019   3.265 -0.4777 -0.1376  0.1227
   38MOL   C29033664   6.700   8.156   3.247  0.6028  0.2743  0.2557
   38MOL   C29133665   6.563   8.193   3.228  0.5195 -0.2751  0.1591
   38MOL   C29233666   6.466   8.093   3.241  0.9758  0.1476  0.0169
   38MOL   C29333667   6.498   7.957   3.260  0.1062 -0.3094 -0.0517
   38MOL   C29433668   6.530   8.331   3.187  0.2579 -0.2536 -0.3985
   38MOL   C29533669   6.594   0.036   3.085  0.1351  0.2781 -0.4746
   38MOL   C29633670   6.563   0.171   3.057 -0.0016  0.5117 -0.4811
   38MOL   C29733671   6.457   0.239   3.134  0.1960 -0.2234  0.3083
   38MOL   C29833672   6.396   0.170   3.236  0.5738  0.1113 -0.2066
   38MOL   C29933673   6.432   0.034   3.257  0.1825  0.1513  0.0690
   38MOL   O30033674   6.415   0.366   3.104  0.3168 -0.8001  0.1099
   38MOL   H30133675   7.248   7.800   2.793  1.0213 -1.4947  2.5376
   38MOL   H30233676   7.069   7.696   2.954 -0.6731 -0.8098 -0.1872
   38MOL   H30333677   7.114   7.327   2.746 -1.3296 -0.1252 -0.5906
   38MOL   H30433678   7.289   7.431   2.595  2.4269  1.7957 -0.3099
   38MOL   H30533679   6.813   7.665   2.904  0.4663  0.0151 -0.1167
   38MOL   H30633680   6.683   7.812   3.046  0.6885  0.8139  0.2892
   38MOL   H30733681   6.807   7.584   3.392  1.0741  0.7588  0.1637
   38MOL   H30833682   6.954   7.448   3.245  1.2523  0.4968 -0.5363
   38MOL   H30933683   6.833   7.990   3.270 -0.4374  0.0578  0.4159
   38MOL   H31033684   6.776   8.231   3.236 -0.9983  1.6224 -2.0479
   38MOL   H31133685   6.364   8.124   3.225  1.6521  2.7582  0.5449
   38MOL   H31233686   6.423   7.880   3.265  0.7072 -0.8691  0.6107
   38MOL   H31333687   6.668   0.003   3.014  1.2961 -1.7830  1.6228
   38MOL   H31433688   6.614   0.219   2.975  0.0107  1.2317 -0.0557
   38MOL   H31533689   6.319   0.223   3.290  1.1343 -0.6171  1.3522
   38MOL   H31633690   6.377   8.348   3.335  1.2828 -1.2809 -0.0876
   38MOL   C31733691   6.465   0.473   3.175 -0.3061 -0.1408 -0.0682
   38MOL   C31833692   6.578   0.468   3.265  0.1074 -0.1734  0.4258
   38MOL   C31933693   6.616   0.583   3.339 -0.0869 -0.1681  0.4241
   38MOL   C32033694   6.536   0.702   3.332  0.1901  0.7974  0.9185
   38MOL   C32133695   6.420   0.705   3.252 -0.8763 -0.5229  0.2245
   38MOL   C32233696   6.381   0.587   3.178 -0.2182 -0.0047  0.0710
   38MOL   S32333697   6.594   0.856   3.400  0.0700 -0.1466 -0.2132
   38MOL   O32433698   6.690   0.827   3.512  0.0371 -0.1085 -0.0144
   38MOL   O32533699   6.476   0.940   3.428 -0.1490 -0.1829 -0.1521
   38MOL   C32633700   6.691   0.938   3.277  0.0569 -0.6762 -0.7223
   38MOL   C32733701   6.670   1.077   3.266  0.1718 -0.0916 -0.3973
   38MOL   C32833702   6.752   1.152   3.180  0.0181 -0.3328  0.0261
   38MOL   C32933703   6.851   1.082   3.107  0.3884 -0.6945  0.5307
   38MOL   C33033704   6.867   0.942   3.113  0.2795 -0.1132 -0.4222
   38MOL   C33133705   6.789   0.871   3.204  0.0563  0.6683 -0.4949
   38MOL   O33233706   6.923   1.154   3.012  0.1754 -0.0914  0.3429
   38MOL   C33333707   7.027   1.230   3.066 -0.4480 -0.1603 -0.7558
   38MOL   C33433708   7.059   1.351   2.996 -0.0419  0.0577 -0.3637
   38MOL   C33533709   7.157   1.435   3.037  0.8881  0.3102  0.0873
   38MOL   C33633710   7.243   1.404   3.145  0.3077 -0.3921  0.8121
   38MOL   C33733711   7.215   1.286   3.223 -0.6543  0.2045 -0.1800
   38MOL   C33833712   7.112   1.198   3.179 -0.4267  0.0608  0.4076
   38MOL   C33933713   7.348   1.501   3.178 -0.3135  0.2895  0.1982
   38MOL   C34033714   7.315   1.633   3.200  0.0693  0.9781 -0.4146
   38MOL   C34133715   7.418   1.726   3.235  0.2707 -0.0134 -0.1661
   38MOL   C34233716   7.555   1.677   3.238  0.6039 -0.8542 -0.4463
   38MOL   C34333717   7.589   1.538   3.222 -0.0587 -0.7739  0.9489
   38MOL   C34433718   7.479   1.456   3.183  0.2130  0.2164 -0.3881
   38MOL   O34533719   7.655   1.769   3.253  1.2363 -0.0996  0.2996
   38MOL   H34633720   6.633   0.376   3.277 -0.1492 -0.3752  0.0575
   38MOL   H34733721   6.707   0.584   3.397 -0.2975  1.8466  0.7569
   38MOL   H34833722   6.362   0.795   3.236 -3.4239 -1.7814  2.0954
   38MOL   H34933723   6.288   0.596   3.123 -0.0697  0.4866 -0.1070
   38MOL   H35033724   6.612   1.130   3.340  2.4336  1.4139  0.3442
   38MOL   H35133725   6.747   1.260   3.180  2.3690 -0.1810  2.1757
   38MOL   H35233726   6.944   0.899   3.050  0.1527  1.3931 -1.6484
   38MOL   H35333727   6.812   0.765   3.212 -1.5460  0.1401 -2.3477
   38MOL   H35433728   7.000   1.364   2.906 -1.6227 -2.6969  0.1944
   38MOL   H35533729   7.176   1.528   2.985 -0.0015  0.6822  0.4119
   38MOL   H35633730   7.284   1.261   3.302 -0.6405  0.7280 -0.0200
   38MOL   H35733731   7.098   1.100   3.220  0.2593 -0.9096 -1.5774
   38MOL   H35833732   7.213   1.667   3.206  0.5528  2.6962 -1.3857
   38MOL   H35933733   7.399   1.830   3.256  1.1917  0.1882 -0.3113
   38MOL   H36033734   7.692   1.508   3.231  0.0499 -0.6492  0.1212
   38MOL   H36133735   7.508   1.355   3.158 -0.2607  0.0323 -0.1918
   38MOL   C36233736   7.751   1.748   3.348  0.3621  0.1320  0.3683
   38MOL   C36333737   7.879   1.697   3.308 -0.0764  0.4164 -0.5168
   38MOL   C36433738   7.980   1.691   3.406 -0.3851  0.2226  0.6399
   38MOL   C36533739   7.955   1.726   3.542  0.3785 -0.4820  0.9057
   38MOL   C36633740   7.834   1.774   3.580  0.8451  0.0138 -0.5149
   38MOL   C36733741   7.730   1.783   3.484  0.1824 -0.3116  0.2579
   38MOL   S36833742   8.088   1.702   3.666  0.0242 -0.1031 -0.3954
   38MOL   O36933743   8.215   1.672   3.591 -0.5066 -0.1521 -0.2252
   38MOL   O37033744   8.045   1.609   3.772 -0.2767 -0.5107 -0.1984
   38MOL   C37133745   8.101   1.869   3.740  0.3538 -0.4503 -0.0955
   38MOL   C37233746   8.109   1.880   3.879  0.4403 -0.1990 -0.2844
   38MOL   C37333747   8.114   2.010   3.940  0.9889  0.0260  0.1932
   38MOL   C37433748   8.102   2.127   3.861 -0.0847  0.3831 -0.1029
   38MOL   C37533749   8.086   2.112   3.718 -0.0481 -0.4392 -1.1759
   38MOL   C37633750   8.097   1.984   3.660 -0.1574 -0.1982 -0.5157
   38MOL   O37733751   8.093   2.255   3.915 -0.7408 -1.0284 -0.2746
   38MOL   C37833752   8.184   2.348   3.877 -0.1179 -0.3405  0.1617
   38MOL   C37933753   8.151   2.454   3.790  0.5093 -0.4436 -0.1704
   38MOL   C38033754   8.245   2.557   3.760  0.1339  0.1478 -0.2068
   38MOL   C38133755   0.017   2.547   3.797 -0.3988  0.2935 -0.3169
   38MOL   C38233756   0.050   2.434   3.882 -0.1087  0.1047  0.3494
   38MOL   C38333757   8.325   2.332   3.911  0.4663  0.4673  0.4619
   38MOL   C38433758   0.115   2.649   3.762  0.5208 -0.0180  0.2260
   38MOL   C38533759   0.105   2.714   3.635  0.1548  0.8274  0.0817
   38MOL   C38633760   0.194   2.813   3.594  0.5661 -0.2368  0.4246
   38MOL   C38733761   0.306   2.836   3.673 -0.0049  0.5525 -0.2144
   38MOL   C38833762   0.330   2.765   3.787  0.4529 -0.3409 -0.2184
   38MOL   C38933763   0.231   2.678   3.836  0.1969  0.1335  0.6458
   38MOL   O39033764   0.401   2.924   3.645  0.0730 -1.0212 -0.5354
   38MOL   H39133765   7.893   1.660   3.208  0.6610 -0.4276 -0.1083
   38MOL   H39233766   8.079   1.654   3.386 -1.0504 -1.6529  0.7516
   38MOL   H39333767   7.818   1.795   3.685 -2.4419  0.3198 -1.0074
   38MOL   H39433768   7.635   1.823   3.517 -0.3023 -1.3761  0.1697
   38MOL   H39533769   8.128   1.791   3.938  1.9474 -0.6243 -1.3925
   38MOL   H39633770   8.145   2.036   4.040  1.2595 -2.0502  0.6716
   38MOL   H39733771   8.088   2.191   3.645  0.9479 -0.4037 -1.1056
   38MOL   H39833772   8.097   1.972   3.553  0.5499  0.9823 -0.6637
   38MOL   H39933773   8.044   2.465   3.778  0.6652 -1.6789 -3.1013
   38MOL   H40033774   8.200   2.641   3.709 -1.6281 -1.0829 -0.7080
   38MOL   H40133775   0.150   2.414   3.918  0.3648 -1.3333 -1.7019
   38MOL   H40233776   8.355   2.239   3.958  0.6431  0.5765  0.5635
   38MOL   H40333777   0.024   2.682   3.571  0.2836 -0.7788  0.7195
   38MOL   H40433778   0.177   2.860   3.498 -3.7226  1.6207  1.9928
   38MOL   H40533779   0.416   2.797   3.845 -0.2117  0.2559  0.4495
   38MOL   H40633780   0.240   2.624   3.929 -1.3735 -1.4425 -0.0845
   38MOL   C40733781   0.398   2.988   3.522  1.0962 -0.2007  0.2603
   38MOL   C40833782   0.486   2.948   3.417 -0.3927 -0.4929 -0.2699
   38MOL   C40933783   0.499   3.025   3.301  0.4885  0.2010 -0.0670
   38MOL   C41033784   0.433   3.147   3.287  0.0595  0.2052  0.5372
   38MOL   C41133785   0.340   3.187   3.387  0.0459  1.3028  0.4236
   38MOL   C41233786   0.322   3.104   3.502 -0.0928 -0.2871  0.5748
   38MOL   S41333787   0.468   3.243   3.137  0.1683 -0.0761 -0.5981
   38MOL   O41433788   0.503   3.146   3.026  0.6064 -0.4514 -0.3012
   38MOL   O41533789   0.568   3.347   3.175 -0.1624  0.3768 -0.0492
   38MOL   C41633790   0.310   3.315   3.105 -0.2158 -0.2546  1.1610
   38MOL   C41733791   0.225   3.236   3.031 -0.2351  0.0233  0.2206
   38MOL   C41833792   0.103   3.295   2.991 -0.1866  0.3492  0.3836
   38MOL   C41933793   0.068   3.422   3.041  0.0331  1.4676  0.0773
   38MOL   C42033794   0.157   3.491   3.129  0.2515  0.2695 -0.3068
   38MOL   C42133795   0.282   3.437   3.157 -0.4053  0.1975 -0.8933
   38MOL   O42233796   8.328   3.491   2.992 -0.2026  0.2438  0.2811
   38MOL   C42333797   8.215   3.432   2.943  0.5838  0.4586 -0.8670
   38MOL   C42433798   8.109   3.401   3.026 -0.6599  0.3047 -0.1726
   38MOL   C42533799   7.995   3.343   2.969 -0.3648 -0.1717 -0.3448
   38MOL   C42633800   7.977   3.314   2.829  0.4714  0.6905  0.2207
   38MOL   C42733801   8.089   3.351   2.749  0.7085 -0.0119  0.0110
   38MOL   C42833802   8.212   3.389   2.804  0.4409  0.1496 -0.3440
   38MOL   C42933803   7.845   3.265   2.777  0.9102  0.0948 -0.2575
   38MOL   C43033804   7.841   3.194   2.654 -0.1451  0.5110 -0.3624
   38MOL   C43133805   7.720   3.146   2.603  0.7514 -0.3924  0.7583
   38MOL   C43233806   7.597   3.186   2.651 -0.2122 -0.6432  0.5888
   38MOL   C43333807   7.604   3.272   2.762  0.0871 -0.8471  0.1751
   38MOL   C43433808   7.726   3.307   2.827 -0.2813 -0.5810  0.0917
   38MOL   O43533809   7.481   3.135   2.597 -0.4331  0.5170  0.1341
   38MOL   H43633810   0.533   2.851   3.425  1.6086  0.3633 -1.1356
   38MOL   H43733811   0.574   2.997   3.228 -0.7575 -0.3668 -1.1446
   38MOL   H43833812   0.293   3.283   3.368 -3.1219  0.0715  1.7197
   38MOL   H43933813   0.251   3.129   3.580  0.1937 -2.2875  1.5124
   38MOL   H44033814   0.256   3.158   2.963 -1.2249 -0.5201  0.3798
   38MOL   H44133815   0.039   3.238   2.926  2.2274 -0.5319 -1.2822
   38MOL   H44233816   0.146   3.597   3.146 -0.5344  0.2960 -0.9303
   38MOL   H44333817   0.347   3.488   3.226  0.2261 -2.6802  0.7278
   38MOL   H44433818   8.111   3.410   3.134 -1.5007  2.2135 -0.2989
   38MOL   H44533819   7.914   3.326   3.038  1.0579  1.8305  1.9312
   38MOL   H44633820   8.085   3.345   2.641 -1.2910  0.1673  0.0555
   38MOL   H44733821   8.290   3.419   2.734  0.3044 -0.1382 -0.6189
   38MOL   H44833822   7.930   3.164   2.601 -0.1120  0.6079 -0.3629
   38MOL   H44933823   7.716   3.093   2.509 -0.8682 -1.0622  1.1836
   38MOL   H45033824   7.514   3.316   2.804  0.3759 -2.2986  2.3756
   38MOL   H45133825   7.732   3.373   2.913 -0.7177  0.5148 -0.7113
   38MOL   C45233826   7.380   3.221   2.588  0.8004 -0.0473  0.1801
   38MOL   C45333827   7.369   3.282   2.459  0.2955 -0.4601 -0.4246
   38MOL   C45433828   7.257   3.365   2.440 -0.7118 -0.1802 -0.2796
   38MOL   C45533829   7.164   3.384   2.540 -0.2274 -0.4497 -1.1577
   38MOL   C45633830   7.175   3.317   2.662  0.1468  0.2595 -0.6702
   38MOL   C45733831   7.286   3.238   2.689 -0.0224 -0.0502  0.7664
   38MOL   S45833832   7.018   3.481   2.518  0.0256 -0.1855 -0.2626
   38MOL   O45933833   6.904   3.389   2.556  0.4051 -0.4622  0.8203
   38MOL   O46033834   7.030   3.546   2.390  0.2485 -0.1695 -0.1054
   38MOL   C46133835   7.034   3.601   2.649  1.1571 -0.1254  0.4008
   38MOL   C46233836   7.001   3.572   2.779  0.5481 -0.0245  0.0152
   38MOL   C46333837   7.026   3.665   2.883  0.7132  0.0827  0.1823
   38MOL   C46433838   7.090   3.785   2.856  0.4751 -0.6668 -0.4686
   38MOL   C46533839   7.126   3.816   2.724 -0.6880  0.6151 -0.4440
   38MOL   C46633840   7.104   3.717   2.620  0.2229 -0.7076 -0.2057
   38MOL   O46733841   7.121   3.872   2.956 -0.0744 -0.0080  0.1348
   38MOL   C46833842   7.238   3.843   3.032 -1.1837  0.2874 -0.1615
   38MOL   C46933843   7.255   3.718   3.097 -0.1182 -0.0043  0.1387
   38MOL   C47033844   7.365   3.695   3.177 -0.6302 -0.8690 -0.2256
   38MOL   C47133845   7.463   3.794   3.189  0.7704  0.0556  0.0125
   38MOL   C47233846   7.440   3.922   3.137  0.5575 -0.0241 -0.1514
   38MOL   C47333847   7.326   3.947   3.060  0.1392  0.0755 -0.3155
   38MOL   C47433848   7.587   3.766   3.262 -0.7300 -0.5783  0.2529
   38MOL   C47533849   7.690   3.694   3.189 -0.5959  0.0362  0.6398
   38MOL   C47633850   7.802   3.665   3.267  0.1088 -0.0508 -0.1399
   38MOL   C47733851   7.815   3.693   3.405 -0.7376 -0.1135 -0.0357
   38MOL   C47833852   7.711   3.756   3.469  0.3287 -0.7947 -0.3799
   38MOL   C47933853   7.592   3.788   3.404  0.1082  0.2924  0.3426
   38MOL   O48033854   7.940   3.683   3.463  0.4909 -0.8461  0.0729
   38MOL   H48133855   7.448   3.283   2.385  0.5430  0.5312 -0.1606
   38MOL   H48233856   7.240   3.416   2.347 -1.1606  1.6544  0.7820
   38MOL   H48333857   7.087   3.315   2.724  0.4929 -1.5203 -0.2124
   38MOL   H48433858   7.302   3.185   2.782  4.1831  0.5300  0.4702
   38MOL   H48533859   6.953   3.479   2.807  0.2096  0.4314  0.9918
   38MOL   H48633860   6.996   3.650   2.986 -0.1695  1.7724  0.1930
   38MOL   H48733861   7.170   3.913   2.704  1.1214  0.8828  4.2497
   38MOL   H48833862   7.142   3.750   2.525 -0.2261  0.1751 -0.0852
   38MOL   H48933863   7.183   3.638   3.094  0.1279 -0.2150 -0.1216
   38MOL   H49033864   7.369   3.594   3.213 -0.7473 -0.3669  1.2184
   38MOL   H49133865   7.514   3.996   3.164  1.1207 -0.6576  0.0277
   38MOL   H49233866   7.309   4.046   3.022 -0.8656 -0.6441 -1.8086
   38MOL   H49333867   7.683   3.665   3.086  1.8103  2.1568 -0.1933
   38MOL   H49433868   7.890   3.624   3.219 -0.8748 -1.1274 -1.0585
   38MOL   H49533869   7.730   3.783   3.571  0.8753 -0.4358 -0.5725
   38MOL   H49633870   7.504   3.830   3.450 -0.1803  2.0546 -1.7447
   38MOL   C49733871   8.055   3.743   3.418  0.7052  0.2117 -0.3964
   38MOL   C49833872   8.070   3.882   3.402 -0.0323 -0.6921  0.2036
   38MOL   C49933873   8.194   3.943   3.372 -0.0416 -0.2270  0.0354
   38MOL   C50033874   8.315   3.864   3.356  0.1739 -0.1089 -0.3574
   38MOL   C50133875   8.294   3.724   3.369 -0.2739  0.5402  0.7024
   38MOL   C50233876   8.170   3.667   3.399 -0.2022 -0.4506  0.9568
   38MOL   S50333877   0.109   3.930   3.327  0.0295  0.1787 -0.1032
   38MOL   O50433878   0.204   3.817   3.321  0.2881  0.7342 -0.3176
   38MOL   O50533879   0.132   4.037   3.419 -0.3715  0.2742  0.1012
   38MOL   C50633880   0.105   3.997   3.160  0.0993  0.9865  0.0233
   38MOL   C50733881   0.171   4.117   3.132  0.2282  0.2367 -0.3840
   38MOL   C50833882   0.176   4.173   3.005  0.1728 -0.0796 -0.3471
   38MOL   C50933883   0.111   4.105   2.893  0.3050  0.0086  0.3014
   38MOL   C51033884   0.046   3.980   2.923 -0.9320 -0.5627 -0.3730
   38MOL   C51133885   0.044   3.929   3.052  0.1691  0.2531  0.0178
   38MOL   O51233886   0.116   4.161   2.766  0.3491 -0.7139  0.0097
   38MOL   C51333887   0.118   4.083   2.654  0.3900 -0.2272 -0.8727
   38MOL   C51433888   0.001   4.060   2.579  0.3578  0.9803 -0.2006
   38MOL   C51533889   0.007   3.964   2.476  0.1732  0.3284  0.7724
   38MOL   C51633890   0.121   3.889   2.445  0.3232  0.1439  0.8121
   38MOL   C51733891   0.236   3.909   2.525 -0.0840 -0.6112 -0.2677
   38MOL   C51833892   0.237   4.009   2.627  0.4979  0.0465 -0.9896
   38MOL   C51933893   0.123   3.803   2.331  0.0834  0.7036 -0.0247
   38MOL   C52033894   0.172   3.836   2.208  0.6784 -0.1403 -0.3792
   38MOL   C52133895   0.142   3.754   2.098  0.3278 -0.0985  0.3490
   38MOL   C52233896   0.076   3.633   2.110 -0.2817 -0.1574 -0.2831
   38MOL   C52333897   0.037   3.590   2.238 -0.5655  0.6844 -0.5008
   38MOL   C52433898   0.062   3.678   2.347  0.0182  0.2235  0.0119
   38MOL   O52533899   0.060   3.547   2.001 -0.5874  0.0973  0.2072
   38MOL   H52633900   7.984   3.947   3.407 -0.7975 -1.5140 -1.8316
   38MOL   H52733901   8.192   4.050   3.353 -0.4449 -0.1540  0.4775
   38MOL   H52833902   0.011   3.658   3.353 -0.4615  0.6258 -0.7713
   38MOL   H52933903   8.161   3.560   3.405 -0.5152 -0.5405 -0.6638
   38MOL   H53033904   0.217   4.174   3.211 -0.0914  0.4234 -0.3335
   38MOL   H53133905   0.237   4.261   2.995 -0.8049  1.0983  3.3856
   38MOL   H53233906   0.016   3.929   2.833  1.2612 -1.0644 -0.8407
   38MOL   H53333907   0.001   3.830   3.061 -1.4273  0.7721 -1.6342
   38MOL   H53433908   8.276   4.112   2.607  0.3965  0.1140  1.6145
   38MOL   H53533909   8.290   3.957   2.406 -1.0523 -1.4539  2.3485
   38MOL   H53633910   0.322   3.846   2.510 -0.7003 -1.2685 -1.0919
   38MOL   H53733911   0.322   4.023   2.692  0.2503  0.2921 -0.7173
   38MOL   H53833912   0.218   3.931   2.184 -0.1780  0.2762 -0.3857
   38MOL   H53933913   0.165   3.770   1.994  0.6839 -1.2276  0.2445
   38MOL   H54033914   8.361   3.492   2.255  0.1553 -0.0391 -2.6790
   38MOL   H54133915   0.040   3.643   2.446 -0.6847  0.0593 -0.1982
   38MOL   C54233916   8.307   3.491   1.966  0.2768 -0.4200  0.1541
   38MOL   C54333917   8.194   3.577   1.953  0.1227  0.2729 -0.1648
   38MOL   C54433918   8.063   3.525   1.929 -0.2491 -0.2808  0.1367
   38MOL   C54533919   8.055   3.387   1.925  0.1391  0.2684 -0.3908
   38MOL   C54633920   8.165   3.302   1.935  0.0979  0.4986  0.0918
   38MOL   C54733921   8.289   3.349   1.964  0.6628 -0.1161 -0.2511
   38MOL   S54833922   7.899   3.312   1.893  0.1133  0.1660  0.3459
   38MOL   O54933923   7.797   3.407   1.938  0.2950 -0.7052 -0.2956
   38MOL   O55033924   7.896   3.175   1.947 -0.0321  0.2294 -0.4008
   38MOL   C55133925   7.878   3.314   1.716  0.1525  0.4371  0.2300
   38MOL   C55233926   7.971   3.376   1.626  0.0706 -0.0525 -0.0790
   38MOL   C55333927   7.945   3.381   1.489  0.0570  0.6902  0.4954
   38MOL   C55433928   7.835   3.317   1.434  0.8445 -0.3732  0.3129
   38MOL   C55533929   7.744   3.250   1.517  0.2377  0.2342  0.2416
   38MOL   C55633930   7.760   3.255   1.656 -0.3728  0.7683 -0.6643
   38MOL   O55733931   7.793   3.332   1.306  0.1122 -0.2448  0.1219
   38MOL   C55833932   7.885   3.333   1.213  0.5382 -0.5397  0.3693
   38MOL   C55933933   7.915   3.449   1.145  0.3655  0.0219 -0.3391
   38MOL   C56033934   8.022   3.457   1.051  0.0436  0.3280  0.1085
   38MOL   C56133935   8.083   3.336   1.015  0.4675  0.6500  0.1686
   38MOL   C56233936   8.055   3.216   1.083 -0.1112  0.5503 -0.1754
   38MOL   C56333937   7.957   3.217   1.186  0.3099  0.0293 -0.4490
   38MOL   C56433938   8.186   3.334   0.908  0.7310  0.5683 -0.4660
   38MOL   C56533939   8.308   3.404   0.922  0.1759  0.9397  0.1790
   38MOL   C56633940   0.042   3.394   0.819  0.1767 -0.9059 -0.5870
   38MOL   C56733941   0.024   3.308   0.710 -0.2394  0.7070 -0.3889
   38MOL   C56833942   8.272   3.232   0.702 -0.1950  0.8703 -0.2899
   38MOL   C56933943   8.169   3.254   0.794  0.3796  1.0136 -0.0077
   38MOL   O57033944   0.127   3.295   0.620  0.2369 -0.0542  0.0868
   38MOL   H57133945   8.203   3.684   1.953  0.1834  0.2705  0.2709
   38MOL   H57233946   7.985   3.596   1.908  0.1484 -0.4625 -2.1720
   38MOL   H57333947   8.147   3.196   1.930  1.4981  0.2479  0.2267
   38MOL   H57433948   0.008   3.282   1.965 -0.5572 -1.6609  0.9500
   38MOL   H57533949   8.065   3.420   1.655  0.9839 -1.5937 -0.6696
   38MOL   H57633950   8.012   3.440   1.427 -1.6541  2.0219 -0.1400
   38MOL   H57733951   7.656   3.205   1.474  0.1766 -1.2732  1.8594
   38MOL   H57833952   7.681   3.212   1.716  1.8772 -1.7652  0.6103
   38MOL   H57933953   7.850   3.534   1.162 -2.4989 -1.6921 -2.1806
   38MOL   H58033954   8.047   3.547   0.996  2.6030  0.3578  1.2758
   38MOL   H58133955   8.103   3.123   1.060 -2.1900 -0.8016  0.8083
   38MOL   H58233956   7.942   3.131   1.250 -4.2233  1.4538  0.6051
   38MOL   H58333957   8.308   3.466   1.010 -0.7144  1.1376  0.0371
   38MOL   H58433958   0.135   3.449   0.824 -0.1595 -0.3905  0.0383
   38MOL   H58533959   8.262   3.160   0.621  1.0089 -0.1029  0.4007
   38MOL   H58633960   8.072   3.208   0.781 -0.5780  2.5226  1.6488
   38MOL   C58733961   0.193   3.177   0.628 -0.6368 -0.2759 -0.6116
   38MOL   C58833962   0.264   3.143   0.746  0.0455  0.1024 -0.0624
   38MOL   C58933963   0.315   3.012   0.767 -0.5691 -0.6680 -0.1011
   38MOL   C59033964   0.313   2.923   0.664 -0.0563 -0.5605 -0.0955
   38MOL   C59133965   0.248   2.953   0.542  0.2206  0.3875  0.0617
   38MOL   C59233966   0.178   3.080   0.527  0.2420 -0.1130 -0.4033
   38MOL   S59333967   0.375   2.755   0.666 -0.3121 -0.2310 -0.4974
   38MOL   O59433968   0.465   2.759   0.782 -0.2968  0.0841 -0.3134
   38MOL   O59533969   0.430   2.714   0.538  0.2529 -0.4770 -0.5467
   38MOL   C59633970   0.217   2.667   0.696  0.9975 -0.5141 -0.6700
   38MOL   C59733971   0.176   2.558   0.624 -0.7025  0.3372  0.4319
   38MOL   C59833972   0.047   2.501   0.627  0.2241  0.1482 -0.3711
   38MOL   C59933973   8.314   2.563   0.702 -0.5355  0.5091  0.5778
   38MOL   C60033974   8.350   2.672   0.776 -0.0690  0.1380 -0.0809
   38MOL   C60133975   0.116   2.724   0.779 -0.0712  0.8404  0.2247
   38MOL   O60233976   8.182   2.513   0.696 -0.0205 -0.5673 -0.5223
   38MOL   C60333977   8.082   2.553   0.788  0.3489  0.2055  0.2897
   38MOL   C60433978   8.026   2.455   0.875  0.2918  0.3210  0.5997
   38MOL   C60533979   7.935   2.499   0.970 -0.6060  1.2939 -0.4248
   38MOL   C60633980   7.887   2.628   0.974 -0.2103  0.1044 -0.5959
   38MOL   C60733981   7.937   2.723   0.886  0.3386 -0.1629  0.4681
   38MOL   C60833982   8.035   2.686   0.794  0.4102  0.0881  0.0156
   38MOL   C60933983   7.782   2.665   1.061  0.0510  1.0792  0.1983
   38MOL   C61033984   7.791   2.775   1.141 -0.0051 -0.3004 -0.2898
   38MOL   C61133985   7.690   2.803   1.238  0.0774  0.7970 -0.5395
   38MOL   C61233986   7.578   2.719   1.249 -0.0075  0.0748  0.1826
   38MOL   C61333987   7.571   2.608   1.167  0.6786  0.1331 -1.0209
   38MOL   C61433988   7.667   2.580   1.068  0.0988 -0.0984  0.4512
   38MOL   O61533989   7.486   2.739   1.352  0.2991  0.2579  0.8917
   38MOL   H61633990   0.267   3.214   0.827 -0.7368  1.9262 -1.5974
   38MOL   H61733991   0.363   2.977   0.858  0.6966 -0.6446 -0.7431
   38MOL   H61833992   0.242   2.883   0.460 -0.5272  0.1765  0.3018
   38MOL   H61933993   0.117   3.106   0.442  0.5690  2.0552  0.0024
   38MOL   H62033994   0.244   2.504   0.559 -2.6189 -1.8268  0.1704
   38MOL   H62133995   0.019   2.424   0.556  0.3003 -0.8792  0.6910
   38MOL   H62233996   8.279   2.721   0.840  0.9502  2.5741 -0.7561
   38MOL   H62333997   0.138   2.812   0.839 -1.3552  1.5636 -0.3456
   38MOL   H62433998   8.057   2.352   0.867 -1.2007 -0.0555 -0.4915
   38MOL   H62533999   7.901   2.415   1.029 -0.9964  1.2265 -0.7399
   38MOL   H62634000   7.895   2.822   0.895  3.0521  1.1162 -0.4147
   38MOL   H62734001   8.087   2.748   0.723  0.1252  1.9914  1.4299
   38MOL   H62834002   7.871   2.849   1.140 -1.2059  1.0125 -0.4855
   38MOL   H62934003   7.702   2.885   1.307 -0.1354 -0.1579  0.6511
   38MOL   H63034004   7.488   2.540   1.182 -0.8241  2.3593  1.1553
   38MOL   H63134005   7.658   2.498   0.997  0.6583  0.5482 -0.3662
   38MOL   C63234006   7.531   2.699   1.473 -0.4364 -0.4643  0.4757
   38MOL   C63334007   7.508   2.570   1.521  0.5281  0.1162 -0.1420
   38MOL   C63434008   7.563   2.536   1.646 -0.2644 -0.2168 -1.3385
   38MOL   C63534009   7.632   2.634   1.720  0.1791  0.2627  0.3611
   38MOL   C63634010   7.652   2.762   1.677 -0.1430  0.1700  0.3373
   38MOL   C63734011   7.600   2.797   1.549 -0.8684  0.4456 -0.5887
   38MOL   S63834012   7.683   2.587   1.886 -0.1497 -0.4090 -0.0910
   38MOL   O63934013   7.684   2.441   1.904 -0.0504  0.0993 -0.4613
   38MOL   O64034014   7.605   2.669   1.985  0.1603  0.0430 -0.4993
   38MOL   C64134015   7.849   2.645   1.893 -0.6783 -1.1596  0.3889
   38MOL   C64234016   7.953   2.570   1.829  0.8737 -0.2642 -0.1723
   38MOL   C64334017   8.087   2.610   1.836 -0.4890 -0.3366 -1.0770
   38MOL   C64434018   8.125   2.730   1.890 -0.6642  0.2299 -0.2524
   38MOL   C64534019   8.025   2.804   1.954 -0.0490  0.7033 -0.0851
   38MOL   C64634020   7.892   2.764   1.962  0.3969  0.2282 -0.0384
   38MOL   O64734021   8.257   2.776   1.862  0.1968 -0.1402 -0.9238
   38MOL   C64834022   8.265   2.888   1.780 -0.1498 -0.6389 -0.0213
   38MOL   C64934023   8.182   2.902   1.669 -0.1391 -0.6634 -0.4184
   38MOL   C65034024   8.195   3.014   1.583 -0.0799  0.4798 -0.4241
   38MOL   C65134025   8.291   3.114   1.601  0.1650 -0.2273 -0.0086
   38MOL   C65234026   0.020   3.088   1.710 -0.5325 -0.1281 -0.0221
   38MOL   C65334027   0.007   2.974   1.792  0.6115  0.1569  0.0520
   38MOL   C65434028   8.305   3.240   1.524  0.1131 -0.0386  1.0215
   38MOL   C65534029   8.327   3.364   1.585  0.0411  0.0719 -0.5443
   38MOL   C65634030   8.336   3.486   1.509  0.2257 -0.3201  0.1186
   38MOL   C65734031   8.311   3.486   1.371 -0.1241 -0.0181  0.1595
   38MOL   C65834032   8.287   3.362   1.306 -0.4526  0.0252 -0.5781
   38MOL   C65934033   8.286   3.239   1.379  0.3344  0.0193 -1.2381
   38MOL   O66034034   8.308   3.601   1.299 -0.7129  0.0816  0.1304
   38MOL   H66134035   7.452   2.495   1.466 -0.6345 -0.3908  1.6813
   38MOL   H66234036   7.540   2.446   1.702 -1.4721  0.2306 -1.1012
   38MOL   H66334037   7.697   2.839   1.738 -0.2788 -0.9953  1.9202
   38MOL   H66434038   7.617   2.895   1.507 -1.1343  2.0184  2.8256
   38MOL   H66534039   7.932   2.484   1.768  2.2790 -0.4068 -0.4776
   38MOL   H66634040   8.158   2.565   1.769  1.0995  0.6955 -0.1200
   38MOL   H66734041   8.054   2.901   1.991 -0.5822  0.8945 -0.1759
   38MOL   H66834042   7.817   2.822   2.014  0.7531 -0.2335  1.0174
   38MOL   H66934043   8.099   2.835   1.653  0.4539 -1.4773 -0.1286
   38MOL   H67034044   8.123   3.026   1.503  0.0827  0.2645 -0.6044
   38MOL   H67134045   0.094   3.163   1.733  0.0629 -0.3541 -1.1564
   38MOL   H67234046   0.075   2.956   1.874 -1.3351 -1.8270  1.2841
   38MOL   H67334047   8.346   3.379   1.690 -1.3036 -0.0344 -0.2753
   38MOL   H67434048   0.016   3.576   1.548  1.3237 -1.0013  0.4200
   38MOL   H67534049   8.280   3.368   1.199  2.4331 -0.2238 -0.8091
   38MOL   H67634050   8.278   3.144   1.329 -0.0328  0.5296 -2.1661
   38MOL   C67734051   0.055   3.646   1.228 -0.1163  0.2111  0.1349
   38MOL   C67834052   0.038   3.722   1.108 -0.0021  0.1332 -0.1129
   38MOL   C67934053   0.151   3.748   1.023 -0.1681  0.8485 -0.0992
   38MOL   C68034054   0.280   3.715   1.062 -0.1129 -0.2027  0.0316
   38MOL   C68134055   0.297   3.645   1.181  0.0782  0.7443  0.0632
   38MOL   C68234056   0.184   3.608   1.262  0.8718 -0.3425  0.4126
   38MOL   S68334057   0.421   3.753   0.957  0.0227  0.1638 -0.4154
   38MOL   O68434058   0.382   3.712   0.820  0.0689  0.1942  0.6713
   38MOL   O68534059   0.540   3.689   1.016  0.1284 -0.2018 -1.2478
   38MOL   C68634060   0.448   3.933   0.959 -0.0881  0.7793  0.2289
   38MOL   C68734061   0.365   4.017   1.043  0.0472  0.2604  1.0663
   38MOL   C68834062   0.394   4.159   1.046  0.2979  0.2051 -0.1800
   38MOL   C68934063   0.507   4.206   0.977  0.1233  0.5239  0.2664
   38MOL   C69034064   0.586   4.118   0.899  0.4945 -0.4658  0.0802
   38MOL   C69134065   0.554   3.984   0.886  0.2964  0.4935 -0.6997
   38MOL   O69234066   0.550   4.338   0.989 -0.1839  0.2370 -0.1097
   38MOL   C69334067   0.470   4.439   0.936  0.1860 -0.3098 -0.0685
   38MOL   C69434068   0.418   4.431   0.807  0.1651 -0.0399 -0.4460
   38MOL   C69534069   0.363   4.545   0.744 -0.0358 -1.0183 -0.3115
   38MOL   C69634070   0.359   4.671   0.808 -0.0490 -0.3422 -0.3743
   38MOL   C69734071   0.398   4.671   0.941 -0.2744 -0.2692  0.5302
   38MOL   C69834072   0.446   4.559   1.011  0.2505  0.3782  0.3607
   38MOL   C69934073   0.328   4.798   0.741 -0.0330  0.3767  0.4333
   38MOL   C70034074   0.234   4.883   0.793  0.7109  0.4474 -0.0809
   38MOL   C70134075   0.220   5.013   0.734 -0.1111  0.2007  0.4894
   38MOL   C70234076   0.293   5.049   0.621 -0.1302 -0.6810 -1.0389
   38MOL   C70334077   0.382   4.954   0.561 -0.7798 -0.0868 -0.8803
   38MOL   C70434078   0.399   4.828   0.622  0.3473 -0.4231  0.2408
   38MOL   O70534079   0.269   5.171   0.560  0.1257 -0.4908  0.0084
   38MOL   H70634080   8.304   3.751   1.078  0.1222 -0.6052 -1.2770
   38MOL   H70734081   0.142   3.803   0.931 -2.4111 -1.5125 -1.3560
   38MOL   H70834082   0.396   3.614   1.213  0.7030  1.8602 -0.7613
   38MOL   H70934083   0.206   3.555   1.354 -0.2945  0.8546  1.3948
   38MOL   H71034084   0.280   3.981   1.098 -0.4413 -1.9723 -1.0848
   38MOL   H71134085   0.331   4.232   1.093 -0.4293 -0.1552 -0.5924
   38MOL   H71234086   0.669   4.163   0.846  0.4236  1.4969  1.5424
   38MOL   H71334087   0.599   3.923   0.809 -1.6832 -1.2754 -0.5033
   38MOL   H71434088   0.419   4.337   0.754 -2.3076  1.4008 -3.1577
   38MOL   H71534089   0.329   4.554   0.642 -0.0520  1.5550 -0.1184
   38MOL   H71634090   0.387   4.770   0.984 -1.2837 -0.9259  1.7840
   38MOL   H71734091   0.484   4.572   1.112 -0.5819 -0.2131  0.7586
   38MOL   H71834092   0.171   4.852   0.876 -0.8002  0.3894 -1.2194
   38MOL   H71934093   0.147   5.089   0.755  0.5687  0.5539  1.6155
   38MOL   H72034094   0.434   4.972   0.468 -1.5486 -1.2894 -1.5681
   38MOL   H72134095   0.470   4.759   0.579  1.7908  0.8725  0.5042
   38MOL   C72234096   0.368   5.243   0.497  0.1221 -0.5484  1.0306
   38MOL   C72334097   0.396   5.229   0.359 -0.0162  0.2246  0.2099
   38MOL   C72434098   0.489   5.318   0.296  0.4214  0.0684  0.3519
   38MOL   C72534099   0.543   5.430   0.363  0.3515  0.3329  0.1813
   38MOL   C72634100   0.515   5.442   0.501  0.3845 -0.3640  0.1108
   38MOL   C72734101   0.426   5.350   0.569  0.1656 -0.4320 -0.3037
   38MOL   S72834102   0.642   5.551   0.288 -0.1137  0.1652 -0.1897
   38MOL   O72934103   0.707   5.490   0.169 -0.1673  0.6857 -0.2408
   38MOL   O73034104   0.725   5.601   0.397  0.5357  0.5613 -0.0877
   38MOL   C73134105   0.530   5.683   0.234 -0.0871 -0.1624  0.5931
   38MOL   C73234106   0.468   5.756   0.335  0.3847 -0.5286 -0.0414
   38MOL   C73334107   0.382   5.862   0.299  0.1990 -0.8445 -0.0224
   38MOL   C73434108   0.355   5.896   0.166  0.4359  0.0398  0.0953
   38MOL   C73534109   0.421   5.830   0.063 -0.2700 -0.0378 -0.1976
   38MOL   C73634110   0.512   5.722   0.099  0.5907  0.2986 -0.5315
   38MOL   O73734111   0.274   6.005   0.136  0.0183  0.0292 -0.6109
   38MOL   C73834112   0.217   6.018   0.011 -0.6077  0.0348  0.5238
   38MOL   C73934113   0.289   6.067   8.263  0.0301 -0.2346  0.2595
   38MOL   C74034114   0.220   6.069   8.137  0.0409  0.6288  0.6779
   38MOL   C74134115   0.085   6.028   8.118  0.8087  0.1310  0.0652
   38MOL   C74234116   0.016   5.986   8.234  0.0196 -0.2306  0.4006
   38MOL   C74334117   0.081   5.985   8.357  0.2136 -0.2608  0.4347
   38MOL   C74434118   0.014   6.029   7.988 -0.6779 -0.2008 -0.1918
   38MOL   C74534119   8.244   6.056   7.970  0.1301  0.2275 -0.1502
   38MOL   C74634120   8.179   6.053   7.847 -0.0546  0.3294 -0.1060
   38MOL   C74734121   8.260   6.048   7.731 -0.6352  0.5340 -0.0537
   38MOL   C74834122   0.034   6.021   7.747  1.1408  0.3730  0.4355
   38MOL   C74934123   0.088   6.007   7.873 -0.2654  0.4862 -0.0453
   38MOL   O75034124   8.209   6.056   7.605 -0.5832  0.0368 -0.2207
   38MOL   H75134125   0.336   5.164   0.299  0.9563  0.8137 -1.4344
   38MOL   H75234126   0.512   5.305   0.191  2.3803  0.9417  0.6540
   38MOL   H75334127   0.558   5.524   0.556 -1.2949 -0.2890  1.3579
   38MOL   H75434128   0.411   5.354   0.676 -0.3398  1.0751 -0.4061
   38MOL   H75534129   0.487   5.731   0.439 -2.1072 -0.1844  0.5088
   38MOL   H75634130   0.325   5.910   0.377 -0.8091 -2.2505  0.1227
   38MOL   H75734131   0.404   5.850   8.324 -2.6060  1.9659  0.5113
   38MOL   H75834132   0.565   5.669   0.021 -0.4785 -0.2231 -0.9244
   38MOL   H75934133   0.394   6.091   8.269  0.4526 -1.8027 -0.5171
   38MOL   H76034134   0.272   6.109   8.050 -0.0733  0.5586  0.5780
   38MOL   H76134135   8.281   5.947   8.239  0.3575 -1.4853 -2.1787
   38MOL   H76234136   0.019   5.942   0.069 -1.3413  1.1253 -0.0326
   38MOL   H76334137   8.185   6.080   8.057  0.9150  1.2584  0.1013
   38MOL   H76434138   8.072   6.059   7.842 -0.0975  1.4258  1.8523
   38MOL   H76534139   0.088   5.996   7.658 -0.5378  0.2153 -0.5509
   38MOL   H76634140   0.196   5.999   7.884  0.2911  2.5769 -3.3410
   38MOL   C76734141   8.091   6.124   7.590  0.6655 -0.3465 -0.5704
   38MOL   C76834142   7.982   6.073   7.521  0.1777  0.5478  0.2074
   38MOL   C76934143   7.866   6.153   7.489 -0.0484 -0.4774 -0.7407
   38MOL   C77034144   7.864   6.288   7.532 -0.3625 -0.6735 -0.2407
   38MOL   C77134145   7.976   6.339   7.596 -0.2367  0.0106  0.2553
   38MOL   C77234146   8.089   6.261   7.632  0.8147  0.3265 -0.4646
   38MOL   S77334147   7.730   6.399   7.507 -0.3205  0.0673  0.2127
   38MOL   O77434148   7.730   6.485   7.626  0.5309  0.0705  0.5038
   38MOL   O77534149   7.612   6.328   7.459 -0.7393  0.8641 -0.3727
   38MOL   C77634150   7.781   6.508   7.371 -0.2958 -0.1077  0.1220
   38MOL   C77734151   7.729   6.497   7.240 -0.0548  0.0150  0.6358
   38MOL   C77834152   7.776   6.571   7.134 -0.4637 -0.0503  0.1272
   38MOL   C77934153   7.877   6.667   7.156 -0.3191 -0.4849 -0.0074
   38MOL   C78034154   7.933   6.688   7.285  0.3882  0.0055  0.4411
   38MOL   C78134155   7.880   6.610   7.393 -0.6378 -0.5020 -0.5217
   38MOL   O78234156   7.905   6.754   7.053 -0.5542  0.0363  0.1768
   38MOL   C78334157   8.011   6.722   6.965 -0.2020 -0.0392 -0.3021
   38MOL   C78434158   8.044   6.825   6.870 -0.0519  0.8698 -0.4036
   38MOL   C78534159   8.152   6.802   6.785  0.0517 -0.0847 -0.6113
   38MOL   C78634160   8.226   6.685   6.788  0.4846 -0.2122  0.3751
   38MOL   C78734161   8.206   6.597   6.896  0.1033 -0.2593 -0.3618
   38MOL   C78834162   8.095   6.608   6.976 -0.6323  0.7935 -0.3966
   38MOL   C78934163   8.326   6.658   6.687 -0.0256  0.3784 -1.1615
   38MOL   C79034164   0.097   6.663   6.722  0.6206 -0.4709 -0.2515
   38MOL   C79134165   0.187   6.624   6.623 -0.1009  0.0627  0.2531
   38MOL   C79234166   0.143   6.580   6.490 -0.0388  0.3146  0.2014
   38MOL   C79334167   0.009   6.575   6.469  0.3348  0.3513  0.5497
   38MOL   C79434168   8.279   6.615   6.562  0.0328  0.1607 -0.2901
   38MOL   O79534169   0.230   6.528   6.400 -0.0475 -0.6212  0.2631
   38MOL   H79634170   7.997   5.972   7.485  0.5799  0.9161 -0.6855
   38MOL   H79734171   7.779   6.121   7.435  0.1804  0.1597 -1.4906
   38MOL   H79834172   7.972   6.440   7.631  2.0505 -0.7312  2.7609
   38MOL   H79934173   8.175   6.305   7.681  0.1045  2.0103 -0.6793
   38MOL   H80034174   7.650   6.424   7.229  1.6818 -1.6898 -1.1394
   38MOL   H80134175   7.726   6.569   7.039 -1.4685  2.7334  0.5570
   38MOL   H80234176   7.996   6.775   7.297 -0.8387  0.9413  0.2246
   38MOL   H80334177   7.921   6.635   7.490  3.0004  0.7014 -2.3189
   38MOL   H80434178   7.993   6.920   6.867 -3.5423 -0.7093  3.6153
   38MOL   H80534179   8.171   6.877   6.709 -3.7676 -1.1976 -2.7841
   38MOL   H80634180   8.260   6.505   6.909  0.6208  0.0502 -0.2975
   38MOL   H80734181   8.076   6.538   7.057 -0.1048  0.8151 -0.2577
   38MOL   H80834182   0.130   6.704   6.816  1.8108 -2.2114  0.1047
   38MOL   H80934183   0.291   6.626   6.653 -0.3621 -2.6654  1.3907
   38MOL   H81034184   8.340   6.548   6.370  1.8023  1.4688 -0.2958
   38MOL   H81134185   8.173   6.620   6.541  0.4551  1.4087 -2.2878
   38MOL   C81234186   0.278   6.405   6.427  0.0692 -0.1714  0.0497
   38MOL   C81334187   0.189   6.299   6.412  0.7576  0.1041 -0.0613
   38MOL   C81434188   0.228   6.167   6.443 -0.1774 -0.2213  0.1700
   38MOL   C81534189   0.359   6.148   6.490  0.3199 -0.0448  0.0544
   38MOL   C81634190   0.452   6.253   6.514  0.1500 -0.4527 -0.1872
   38MOL   C81734191   0.411   6.387   6.475  0.3171  0.4858  0.0658
   38MOL   S81834192   0.396   5.973   6.528  0.0815 -0.3128 -0.0074
   38MOL   O81934193   0.536   5.953   6.482  0.0727 -0.1480 -0.6937
   38MOL   O82034194   0.283   5.896   6.482 -0.3130  0.0839  0.2079
   38MOL   C82134195   0.396   5.967   6.703 -0.6602  0.1049  0.2638
   38MOL   C82234196   0.279   5.979   6.775  0.0695 -0.1429 -0.8331
   38MOL   C82334197   0.287   5.964   6.918 -0.4440 -0.7683 -0.2591
   38MOL   C82434198   0.413   5.932   6.981 -0.0309  0.6160  0.6380
   38MOL   C82534199   0.531   5.921   6.902  0.4509  0.6737  0.1338
   38MOL   C82634200   0.523   5.948   6.766 -0.5036 -0.6102 -0.1002
   38MOL   O82734201   0.419   5.911   7.115 -0.3071  0.5932  0.1242
   38MOL   C82834202   0.355   5.794   7.159 -0.0467 -0.0765  0.1524
   38MOL   C82934203   0.216   5.784   7.188  0.2183 -0.1712  0.2620
   38MOL   C83034204   0.163   5.656   7.217  0.4068  0.1710 -0.0029
   38MOL   C83134205   0.240   5.541   7.203 -0.0207  0.0895 -0.2367
   38MOL   C83234206   0.376   5.551   7.166  0.6065  0.6125  0.1493
   38MOL   C83334207   0.435   5.673   7.154  0.1051 -0.1075 -0.2149
   38MOL   C83434208   0.177   5.414   7.206  0.1025  0.3578  0.2803
   38MOL   C83534209   0.214   5.319   7.109  0.5942 -0.6533 -0.1395
   38MOL   C83634210   0.155   5.194   7.093  0.2018 -0.0057  0.3478
   38MOL   C83734211   0.047   5.164   7.175 -0.0433 -0.5310 -0.0035
   38MOL   C83834212   8.365   5.259   7.266  0.7882  0.0220 -0.2472
   38MOL   C83934213   0.064   5.380   7.286  0.4921 -0.5378  0.6788
   38MOL   O84034214   8.346   5.042   7.168 -0.1712  0.2474 -0.3573
   38MOL   H84134215   0.086   6.316   6.384  0.3550 -2.3906 -0.2788
   38MOL   H84234216   0.158   6.087   6.423  0.4398 -0.7296  0.0298
   38MOL   H84334217   0.550   6.239   6.556  0.4796  2.6335  0.1595
   38MOL   H84434218   0.479   6.469   6.495 -1.5178  2.3009 -0.9514
   38MOL   H84534219   0.193   6.024   6.730  0.7430  4.6372  2.3112
   38MOL   H84634220   0.197   5.972   6.978 -0.9886  0.0684 -1.1770
   38MOL   H84734221   0.624   5.893   6.948  0.6658  0.5411 -0.3842
   38MOL   H84834222   0.612   5.935   6.706 -1.1581 -1.2606 -0.9602
   38MOL   H84934223   0.159   5.872   7.210  0.0569  0.2232 -1.6516
   38MOL   H85034224   0.058   5.648   7.242  0.1298  0.7583 -0.9356
   38MOL   H85134225   0.426   5.459   7.142  0.5954  0.8598 -0.8382
   38MOL   H85234226   0.540   5.682   7.130 -0.0298  0.9786 -0.4259
   38MOL   H85334227   0.283   5.351   7.032 -0.0997 -1.5652 -1.1586
   38MOL   H85434228   0.172   5.127   7.010  0.0992  0.4950 -0.0815
   38MOL   H85534229   8.276   5.233   7.323  2.3033  0.0388  2.1713
   38MOL   H85634230   0.028   5.453   7.356  1.0987  1.6779 -1.2548
   38MOL   C85734231   0.067   4.936   7.181 -0.4902 -0.8637 -0.7277
   38MOL   C85834232   0.173   4.934   7.276  0.2994 -0.4859  0.2502
   38MOL   C85934233   0.257   4.821   7.288  0.0407  0.0740 -0.1864
   38MOL   C86034234   0.237   4.708   7.200  0.2664 -0.1928 -0.0499
   38MOL   C86134235   0.135   4.718   7.104 -0.1618  0.9792  0.2692
   38MOL   C86234236   0.056   4.834   7.092  1.0462  0.4857 -0.6415
   38MOL   S86334237   0.340   4.563   7.191 -0.1107 -0.3050  0.0811
   38MOL   O86434238   0.417   4.569   7.066  0.3399 -0.3759  0.2895
   38MOL   O86534239   0.251   4.450   7.215  0.2344  0.2173 -0.2398
   38MOL   C86634240   0.452   4.573   7.323  0.0995 -0.3606 -0.0876
   38MOL   C86734241   0.555   4.670   7.321 -0.5895 -0.0676  0.5019
   38MOL   C86834242   0.650   4.681   7.428  1.0051 -0.2744  0.3307
   38MOL   C86934243   0.633   4.595   7.541  0.2620  0.2371  0.2358
   38MOL   C87034244   0.527   4.503   7.540  0.7485 -0.2255 -0.5780
   38MOL   C87134245   0.444   4.487   7.431  0.2793 -0.2432  0.6918
   38MOL   O87234246   0.715   4.598   7.656 -0.0701 -0.8523  0.2402
   38MOL   C87334247   0.846   4.630   7.637  0.3566  0.0938  0.4172
   38MOL   C87434248   0.940   4.535   7.587  0.5160 -0.4612 -0.3852
   38MOL   C87534249   1.076   4.573   7.582  0.1587 -0.4370 -0.7752
   38MOL   C87634250   1.118   4.702   7.625  1.0780 -0.1872  0.5992
   38MOL   C87734251   1.023   4.795   7.674  0.1481 -0.6209  0.0634
   38MOL   C87834252   0.889   4.760   7.673  0.4750 -0.3749 -0.5366
   38MOL   C87934253   1.263   4.733   7.622  0.0884  1.1755 -0.4980
   38MOL   C88034254   1.341   4.716   7.504 -0.1144  0.0514 -0.0708
   38MOL   C88134255   1.479   4.750   7.502 -0.0875  0.1055  1.0463
   38MOL   C88234256   1.537   4.817   7.608 -0.8356  0.7340  0.4855
   38MOL   C88334257   1.461   4.837   7.727 -0.4840  0.5680 -1.1278
   38MOL   C88434258   1.327   4.797   7.732  0.0812 -1.0097  0.1670
   38MOL   O88534259   1.669   4.847   7.600 -0.3862 -0.3791 -0.1368
   38MOL   H88634260   0.202   5.019   7.335  2.2079 -0.3922 -0.7792
   38MOL   H88734261   0.333   4.823   7.364 -0.0057  0.9189 -0.1539
   38MOL   H88834262   0.108   4.629   7.049  1.1004  0.9017 -0.2312
   38MOL   H88934263   8.341   4.819   7.023  1.8082 -0.5091 -1.3411
   38MOL   H89034264   0.560   4.729   7.230 -1.9592 -1.5114 -0.5350
   38MOL   H89134265   0.738   4.743   7.419  1.3342 -0.9542 -1.4427
   38MOL   H89234266   0.500   4.450   7.630 -1.5837 -0.1808 -1.2196
   38MOL   H89334267   0.358   4.422   7.444 -1.1152  1.2284 -0.8335
   38MOL   H89434268   0.906   4.435   7.564 -1.2020  0.0335 -0.0945
   38MOL   H89534269   1.149   4.502   7.549 -0.5974 -1.0058 -1.2284
   38MOL   H89634270   1.056   4.891   7.712 -1.2147  0.7934 -2.2200
   38MOL   H89734271   0.812   4.825   7.713 -1.4155 -3.9303  1.9109
   38MOL   H89834272   1.292   4.672   7.419  1.0237  0.0003 -0.7209
   38MOL   H89934273   1.526   4.748   7.405 -0.3569  0.3142  0.9097
   38MOL   H90034274   1.507   4.885   7.811 -1.4746 -0.4105  0.0070
   38MOL   H90134275   1.269   4.816   7.821  1.2247 -0.7007  0.8512
   38MOL   H90234276   1.678   4.927   7.649 -0.5028 -0.3127 -0.2248
   39MOL     C134277   1.539   3.098   3.943 -0.3736  0.2075 -0.1022
   39MOL     C234278   1.429   3.008   3.965 -0.5792 -0.8994  0.1623
   39MOL     C334279   1.369   2.933   3.863  0.1383  0.5259  0.2870
   39MOL     C434280   1.427   2.947   3.738  0.0315 -0.2218  0.0158
   39MOL     C534281   1.547   3.023   3.715 -0.6400  0.0308  0.0985
   39MOL     C634282   1.600   3.103   3.819 -0.3513  0.4111  0.0564
   39MOL     S734283   1.340   2.858   3.606 -0.5797  0.3479  0.0305
   39MOL     O834284   1.222   2.785   3.654 -0.2889  0.3452 -0.4532
   39MOL     O934285   1.453   2.779   3.544 -0.0549  0.2083  0.0529
   39MOL    C1034286   1.301   2.978   3.491  0.4366  1.3718  0.1540
   39MOL    C1134287   1.248   3.104   3.527 -0.0904 -0.4732 -0.3039
   39MOL    C1234288   1.218   3.206   3.432  0.0343 -0.7662 -0.0255
   39MOL    C1334289   1.224   3.170   3.291 -0.2104 -0.3043 -0.3530
   39MOL    C1434290   1.267   3.038   3.253 -0.7722  0.0967  0.1123
   39MOL    C1534291   1.303   2.944   3.356  0.0101  0.0217  0.0484
   39MOL    O1634292   1.202   3.263   3.195 -0.4852  0.8817  0.3337
   39MOL    C1734293   1.320   3.301   3.137  0.6183 -0.3982  0.2485
   39MOL    C1834294   1.359   3.243   3.016  0.1615  0.2274 -0.5021
   39MOL    C1934295   1.479   3.284   2.954 -0.0942  0.2131 -0.0286
   39MOL    C2034296   1.558   3.383   3.017 -0.3567  0.8071  0.4529
   39MOL    C2134297   1.511   3.444   3.137  0.8182  0.1526 -0.5989
   39MOL    C2234298   1.394   3.408   3.201 -0.8757  0.9034 -0.6256
   39MOL    C2334299   1.698   3.416   2.966 -0.3330  0.2654 -0.9301
   39MOL    C2434300   1.756   3.545   2.989 -0.5556  0.2782 -0.8077
   39MOL    C2534301   1.893   3.570   2.962 -0.1637 -0.0714  0.1076
   39MOL    C2634302   1.973   3.471   2.903  0.8492  0.8340  0.3948
   39MOL    C2734303   1.918   3.343   2.879 -0.0128  0.2404 -0.4469
   39MOL    C2834304   1.782   3.318   2.910  0.4683 -0.3633 -0.5225
   39MOL    O2934305   2.107   3.496   2.883 -0.3460  0.7822 -0.1503
   39MOL    H3034306   1.387   3.001   4.064  0.4014  0.8074  0.7265
   39MOL    H3134307   1.281   2.875   3.883  0.3813 -0.5158 -1.6489
   39MOL    H3234308   1.591   3.031   3.617 -0.9153 -1.3645 -0.1440
   39MOL    H3334309   1.683   3.164   3.784 -1.3982  1.5512 -0.4766
   39MOL    H3434310   1.233   3.135   3.629  1.6580  0.5287 -0.3160
   39MOL    H3534311   1.172   3.300   3.458  1.4740 -0.0587  0.0028
   39MOL    H3634312   1.272   3.020   3.147 -1.1240  1.3716 -0.1374
   39MOL    H3734313   1.343   2.849   3.325  0.1491  0.4252 -1.0139
   39MOL    H3834314   1.301   3.162   2.974 -0.3649 -0.0420  0.7216
   39MOL    H3934315   1.511   3.230   2.866 -0.0418 -0.1133  0.1872
   39MOL    H4034316   1.574   3.504   3.201 -2.6766  1.8438  1.4128
   39MOL    H4134317   1.380   3.450   3.299 -0.5545  1.5584 -0.8571
   39MOL    H4234318   1.700   3.623   3.038  0.0203  0.7359 -0.8720
   39MOL    H4334319   1.923   3.670   2.991 -0.6877  0.0569  0.2073
   39MOL    H4434320   1.977   3.264   2.834  0.5107  1.3427 -1.7141
   39MOL    H4534321   1.739   3.225   2.874  1.3027 -0.5736 -0.9783
   39MOL    H4634322   1.573   3.153   4.029 -0.1434 -0.8176  0.4695
   39MOL    C4734323   2.153   3.620   2.866 -0.7141  0.7024 -0.0455
   39MOL    C4834324   2.121   3.682   2.740 -0.0938 -0.3981  0.6530
   39MOL    C4934325   2.186   3.803   2.710  1.4712  0.3909  0.4296
   39MOL    C5034326   2.271   3.857   2.804 -0.1947  0.4547 -0.1093
   39MOL    C5134327   2.302   3.788   2.926 -0.8108 -0.0139  0.1259
   39MOL    C5234328   2.238   3.675   2.963 -0.2634  0.5983  0.1086
   39MOL    S5334329   2.362   4.008   2.773 -0.2449 -0.2083  0.4078
   39MOL    O5434330   2.343   4.040   2.631 -0.4199 -0.0169 -0.4951
   39MOL    O5534331   2.502   3.992   2.819 -0.2940  0.4440  0.1641
   39MOL    C5634332   2.282   4.130   2.870  0.3248  0.0534  0.8024
   39MOL    C5734333   2.264   4.259   2.812  0.4498 -0.7019 -0.2791
   39MOL    C5834334   2.184   4.351   2.885 -0.5444 -0.2355 -0.9017
   39MOL    C5934335   2.144   4.332   3.018 -0.4697  0.4618  0.2627
   39MOL    C6034336   2.168   4.208   3.081 -0.8008 -0.3093  0.0468
   39MOL    C6134337   2.232   4.103   3.000  0.7609  0.7815 -0.4205
   39MOL    O6234338   2.069   4.435   3.076  0.2331  0.2929  0.5774
   39MOL    C6334339   2.134   4.534   3.144  0.1226  0.3680  0.6003
   39MOL    C6434340   2.147   4.524   3.283 -0.0934 -0.5237 -0.4741
   39MOL    C6534341   2.213   4.625   3.353  0.4864 -0.4169  0.0613
   39MOL    C6634342   2.284   4.721   3.286  0.3871 -0.3433  0.7517
   39MOL    C6734343   2.288   4.725   3.145 -0.0153  0.0386  0.3013
   39MOL    C6834344   2.201   4.637   3.075  0.0126  0.3685 -0.2387
   39MOL    C6934345   2.346   4.835   3.346 -0.6391 -0.0854 -0.0542
   39MOL    C7034346   2.321   4.964   3.295  0.7176  0.3138 -0.3320
   39MOL    C7134347   2.371   5.073   3.363  0.5643 -1.0547  0.2309
   39MOL    C7234348   2.435   5.065   3.487  0.6230  0.1325  0.3384
   39MOL    C7334349   2.461   4.935   3.533  0.0148  0.0878 -0.3596
   39MOL    C7434350   2.409   4.826   3.466  0.2140  0.3852  0.7242
   39MOL    O7534351   2.465   5.182   3.547  0.2421 -0.0414  0.2213
   39MOL    H7634352   2.053   3.628   2.677  0.3922 -1.2566  0.8494
   39MOL    H7734353   2.168   3.853   2.616  0.5340  0.4877  0.6550
   39MOL    H7834354   2.376   3.839   2.987  0.2405  1.3565 -2.2456
   39MOL    H7934355   2.264   3.629   3.057 -0.7426  2.9661  1.4411
   39MOL    H8034356   2.304   4.288   2.717  0.6660  0.6077  0.2085
   39MOL    H8134357   2.161   4.449   2.844 -1.4161  0.3465  0.9088
   39MOL    H8234358   2.127   4.188   3.179  1.4380  1.0041  1.3014
   39MOL    H8334359   2.244   4.002   3.036  1.7089  1.1496  0.3039
   39MOL    H8434360   2.118   4.436   3.339 -1.2970  0.2796  0.1944
   39MOL    H8534361   2.225   4.617   3.460 -1.8130 -0.1193  0.3811
   39MOL    H8634362   2.337   4.806   3.093  1.0280 -0.0499  1.1158
   39MOL    H8734363   2.185   4.631   2.968 -3.9143 -2.4655  0.3892
   39MOL    H8834364   2.261   4.986   3.208 -2.2443  0.9744  1.7988
   39MOL    H8934365   2.361   5.178   3.340  0.4657 -0.9788  0.6085
   39MOL    H9034366   2.515   4.926   3.627 -0.4952 -2.2266 -0.2634
   39MOL    H9134367   2.433   4.728   3.506 -0.6598 -0.1680 -0.0826
   39MOL    C9234368   2.470   5.185   3.680  0.1460  0.3225  0.0290
   39MOL    C9334369   2.593   5.218   3.744 -0.3494  0.2982 -0.1855
   39MOL    C9434370   2.600   5.243   3.881  0.5875 -0.2580 -0.1076
   39MOL    C9534371   2.482   5.223   3.956  0.2492  0.2103 -0.4347
   39MOL    C9634372   2.369   5.171   3.903  0.3469 -0.0844 -0.5178
   39MOL    C9734373   2.359   5.161   3.766 -1.2906 -0.2654 -0.3142
   39MOL    S9834374   2.486   5.250   4.131 -0.0538 -0.3062 -0.2472
   39MOL    O9934375   2.396   5.360   4.152 -0.1359 -0.5369 -0.3695
   39MOL   O10034376   2.625   5.258   4.177 -0.1357  0.6335 -1.0252
   39MOL   C10134377   2.413   5.092   4.202  0.3824  0.6654 -0.5292
   39MOL   C10234378   2.495   4.984   4.230  0.4064  0.0597  0.1154
   39MOL   C10334379   2.444   4.867   4.286  0.2624  0.1360  0.0902
   39MOL   C10434380   2.307   4.863   4.326  0.8544 -0.0748  0.7400
   39MOL   C10534381   2.217   4.962   4.282  0.1482  0.1956  0.3862
   39MOL   C10634382   2.271   5.081   4.225  0.4534  0.0987  0.8756
   39MOL   O10734383   2.258   4.745   4.387 -0.5375 -0.1347 -0.1613
   39MOL   C10834384   2.188   4.767   4.498  0.3879  0.6085  0.8233
   39MOL   C10934385   2.240   4.836   4.605  0.2654  0.1788  0.6901
   39MOL   C11034386   2.159   4.858   4.717  0.0374 -0.2042 -0.6793
   39MOL   C11134387   2.029   4.815   4.718  0.1254  0.1645  0.5532
   39MOL   C11234388   1.975   4.741   4.615  0.6264 -0.2244 -0.0878
   39MOL   C11334389   2.058   4.715   4.502  0.4394  0.0078  0.2667
   39MOL   C11434390   1.938   4.849   4.825 -0.6109  0.3565 -0.2847
   39MOL   C11534391   1.972   4.835   4.961  0.6809  0.0996 -0.0672
   39MOL   C11634392   1.869   4.853   5.061  0.2688 -0.2092  0.4218
   39MOL   C11734393   1.739   4.902   5.024  0.1473  0.4310 -0.4944
   39MOL   C11834394   1.706   4.921   4.886  0.4908 -0.1917  0.2141
   39MOL   C11934395   1.806   4.890   4.792  0.2256 -0.7853  0.0322
   39MOL   O12034396   1.642   4.913   5.121 -0.5614 -0.3573 -0.5481
   39MOL   H12134397   2.675   5.222   3.673 -0.4613  0.3126 -0.3143
   39MOL   H12234398   2.693   5.276   3.927 -0.2523  2.2255 -0.1313
   39MOL   H12334399   2.276   5.167   3.958 -0.0388 -0.5715 -1.1949
   39MOL   H12434400   2.271   5.119   3.719 -0.3775 -2.4599 -0.1547
   39MOL   H12534401   2.595   4.991   4.190 -0.5698 -1.7776 -2.7744
   39MOL   H12634402   2.516   4.788   4.304 -0.1768  0.1394  1.9567
   39MOL   H12734403   2.111   4.941   4.290 -0.5008  2.7246 -1.0587
   39MOL   H12834404   2.202   5.158   4.194  1.7561  0.2295 -1.8199
   39MOL   H12934405   2.341   4.872   4.592 -0.1709  1.2072  0.1283
   39MOL   H13034406   2.186   4.921   4.801 -0.7528 -0.8715  0.0857
   39MOL   H13134407   1.876   4.697   4.618  0.5292  0.0948  1.9148
   39MOL   H13234408   2.027   4.644   4.427  0.7618  0.1338  0.0154
   39MOL   H13334409   2.066   4.787   4.985  0.4058 -0.1809  0.4563
   39MOL   H13434410   1.895   4.825   5.163 -0.8940 -1.4076  0.4111
   39MOL   H13534411   1.615   4.966   4.848 -0.2756 -0.4162  1.7363
   39MOL   H13634412   1.781   4.913   4.689 -0.1197 -3.0434 -0.4329
   39MOL   C13734413   1.556   5.024   5.117 -0.4274 -0.4130  0.2569
   39MOL   C13834414   1.604   5.156   5.124 -0.4487 -0.2578 -0.2413
   39MOL   C13934415   1.506   5.258   5.124 -0.6510 -0.5607  0.4470
   39MOL   C14034416   1.367   5.233   5.106  0.3526  0.4713  0.4464
   39MOL   C14134417   1.322   5.100   5.090 -0.1830  0.6298  0.5223
   39MOL   C14234418   1.420   4.997   5.094  1.3078  0.6249 -0.5437
   39MOL   S14334419   1.244   5.363   5.106  0.3157 -0.0773  0.2412
   39MOL   O14434420   1.323   5.489   5.094 -0.0852 -1.0220 -0.1580
   39MOL   O14534421   1.139   5.352   5.214  0.1706 -0.0583 -0.3379
   39MOL   C14634422   1.153   5.349   4.955 -0.1277 -0.3926  0.4200
   39MOL   C14734423   1.016   5.326   4.952  0.0257  0.2067  0.2065
   39MOL   C14834424   0.949   5.311   4.834 -0.0865 -0.3752  0.1448
   39MOL   C14934425   1.012   5.325   4.713 -0.4140  0.4567 -0.2997
   39MOL   C15034426   1.151   5.357   4.710  0.2486  0.5032 -0.0698
   39MOL   C15134427   1.225   5.367   4.831 -0.3769 -0.0111  0.5551
   39MOL   O15234428   0.936   5.328   4.596  0.2577  0.0467 -0.4117
   39MOL   C15334429   0.971   5.402   4.491 -0.5904 -0.3357  0.2942
   39MOL   C15434430   0.917   5.535   4.475 -0.4869  0.2223 -0.1677
   39MOL   C15534431   0.950   5.609   4.362 -0.2291 -0.1117  0.2404
   39MOL   C15634432   1.030   5.558   4.257  0.7752 -0.2890  0.1934
   39MOL   C15734433   1.080   5.425   4.278  1.0010 -0.4324  0.1026
   39MOL   C15834434   1.046   5.346   4.391 -0.3853  0.6276 -0.2174
   39MOL   C15934435   1.060   5.641   4.141  0.4279 -0.4598 -0.0566
   39MOL   C16034436   1.192   5.690   4.121  0.0103  0.0284  0.0275
   39MOL   C16134437   1.218   5.762   4.003  0.2492 -0.0547 -0.3963
   39MOL   C16234438   1.119   5.785   3.905  0.5633  0.0009 -0.1095
   39MOL   C16334439   0.989   5.741   3.931  0.0555 -0.6434  0.5445
   39MOL   C16434440   0.964   5.674   4.046 -0.0645 -0.2702  0.7404
   39MOL   O16534441   1.140   5.863   3.790 -0.2797  0.3499 -0.2511
   39MOL   H16634442   1.708   5.183   5.130 -0.6305  0.8986 -1.7911
   39MOL   H16734443   1.544   5.358   5.142 -1.4519 -0.2736  0.5589
   39MOL   H16834444   1.216   5.077   5.096 -0.1932  1.4206  4.0968
   39MOL   H16934445   1.391   4.893   5.094  0.7393  0.7483  1.8672
   39MOL   H17034446   0.963   5.329   5.047 -1.3845  0.2148 -0.5734
   39MOL   H17134447   0.843   5.295   4.839  0.0505 -0.8848  1.6438
   39MOL   H17234448   1.203   5.374   4.616 -2.5542 -0.2647 -1.8006
   39MOL   H17334449   1.331   5.387   4.828  0.0344 -1.9401  1.1536
   39MOL   H17434450   0.849   5.590   4.538  0.4725  0.7168  0.4499
   39MOL   H17534451   0.909   5.708   4.350 -2.6107 -1.0011  0.8149
   39MOL   H17634452   1.149   5.390   4.203  1.9503  1.1513  0.2186
   39MOL   H17734453   1.090   5.247   4.394 -1.7390  0.0514  0.9113
   39MOL   H17834454   1.267   5.676   4.198 -1.1967  0.9545  1.3964
   39MOL   H17934455   1.315   5.802   3.978 -0.2085  1.2941 -0.0310
   39MOL   H18034456   0.908   5.765   3.864  0.4940 -0.2030  0.1586
   39MOL   H18134457   0.864   5.637   4.066 -0.2462  0.2150  0.7286
   39MOL   C18234458   1.184   5.777   3.687  0.5092 -0.0312 -0.8448
   39MOL   C18334459   1.320   5.775   3.643 -0.4330 -0.2869 -0.2890
   39MOL   C18434460   1.359   5.692   3.532  0.6582 -0.3919  0.5176
   39MOL   C18534461   1.260   5.611   3.469 -0.0299 -0.3699  0.2433
   39MOL   C18634462   1.126   5.607   3.523  0.1432 -0.3183  0.1781
   39MOL   C18734463   1.094   5.685   3.633 -0.4821  0.9555  0.4278
   39MOL   S18834464   1.308   5.497   3.339  0.0312 -0.4750  0.6540
   39MOL   O18934465   1.442   5.529   3.293  0.2379 -0.3764 -0.0748
   39MOL   O19034466   1.195   5.494   3.242 -0.4501 -0.0764  0.2221
   39MOL   C19134467   1.313   5.336   3.421 -0.5878 -0.4162 -0.1089
   39MOL   C19234468   1.413   5.309   3.512 -0.5437  0.2893 -0.0953
   39MOL   C19334469   1.429   5.176   3.578 -0.0853 -0.0126  0.2005
   39MOL   C19434470   1.341   5.075   3.531  0.1516  0.6753 -0.1599
   39MOL   C19534471   1.251   5.109   3.430  0.3804 -0.6435  0.4166
   39MOL   C19634472   1.235   5.235   3.372 -0.9897  0.8931 -0.1569
   39MOL   O19734473   1.344   4.945   3.572 -0.0032  0.7151 -0.5491
   39MOL   C19834474   1.335   4.920   3.706 -0.2433 -0.2382  0.4258
   39MOL   C19934475   1.442   4.851   3.762 -0.3733 -0.4304 -0.6649
   39MOL   C20034476   1.453   4.827   3.902 -0.3329 -0.4680  0.2514
   39MOL   C20134477   1.345   4.857   3.981 -0.3645 -0.3663 -0.2087
   39MOL   C20234478   1.241   4.934   3.923  0.3609 -0.4531 -0.1626
   39MOL   C20334479   1.235   4.968   3.787  0.3542  0.6691  0.0118
   39MOL   C20434480   1.332   4.817   4.121  0.2693 -0.1263  0.2901
   39MOL   C20534481   1.383   4.696   4.163 -0.0381  0.3847 -0.0315
   39MOL   C20634482   1.386   4.654   4.296  0.3942 -0.3684  0.1351
   39MOL   C20734483   1.330   4.733   4.392  0.0595  0.4458 -0.1407
   39MOL   C20834484   1.274   4.858   4.361 -0.1773  0.3656 -0.1312
   39MOL   C20934485   1.281   4.902   4.223  0.1419 -0.1398 -0.4073
   39MOL   O21034486   1.334   4.685   4.520  0.4631 -0.6692  0.2537
   39MOL   H21134487   1.386   5.844   3.693  1.7756 -0.8454 -2.3902
   39MOL   H21234488   1.456   5.700   3.486  0.2709  0.3736 -0.1709
   39MOL   H21334489   1.049   5.558   3.466  0.5822 -0.2349 -0.4956
   39MOL   H21434490   0.989   5.675   3.658 -0.4187 -1.4246 -0.1483
   39MOL   H21534491   1.480   5.390   3.536 -0.2026  0.1545 -0.5820
   39MOL   H21634492   1.511   5.160   3.647  0.2383 -0.7626 -0.3472
   39MOL   H21734493   1.184   5.028   3.406 -0.6115 -0.4872  2.5125
   39MOL   H21834494   1.154   5.253   3.303 -2.0332  0.6272  0.9738
   39MOL   H21934495   1.519   4.808   3.700 -0.6151 -0.5638 -0.8766
   39MOL   H22034496   1.539   4.776   3.945 -0.5818  0.3253  1.7247
   39MOL   H22134497   1.151   4.957   3.977 -0.1861 -0.3203 -1.1159
   39MOL   H22234498   1.151   5.017   3.740 -0.6810 -1.7970 -0.8294
   39MOL   H22334499   1.434   4.636   4.088  1.3819  0.7786  0.5883
   39MOL   H22434500   1.429   4.557   4.316  1.7793  0.4069  0.9406
   39MOL   H22534501   1.230   4.927   4.432 -1.4586  0.3879 -0.9207
   39MOL   H22634502   1.236   4.997   4.199  1.3913  1.1510  2.0666
   39MOL   C22734503   1.237   4.728   4.609  0.7368  0.5562 -0.4371
   39MOL   C22834504   1.101   4.684   4.602 -0.0427 -0.2682  0.2442
   39MOL   C22934505   1.004   4.742   4.687  0.1546 -0.2939 -0.3898
   39MOL   C23034506   1.032   4.847   4.773 -0.6710 -0.7363 -0.1863
   39MOL   C23134507   1.168   4.884   4.787 -0.1870  1.0063  0.3687
   39MOL   C23234508   1.266   4.830   4.702  0.4105 -0.3178  0.5255
   39MOL   S23334509   0.910   4.914   4.884  0.0563  0.0372  0.2476
   39MOL   O23434510   0.969   5.012   4.973 -0.0416  0.2370 -0.4003
   39MOL   O23534511   0.828   4.804   4.934 -0.6837 -0.4843 -0.1260
   39MOL   C23634512   0.796   5.009   4.785  0.8691 -0.6298  0.0837
   39MOL   C23734513   0.671   5.036   4.843  0.1409  0.4232 -0.1275
   39MOL   C23834514   0.588   5.128   4.770 -1.1077 -0.1236  0.2477
   39MOL   C23934515   0.618   5.174   4.642 -0.5038  0.4050 -0.6835
   39MOL   C24034516   0.730   5.117   4.579  0.1052  0.4891 -0.2005
   39MOL   C24134517   0.821   5.043   4.652 -0.2647 -0.7318  0.2155
   39MOL   O24234518   0.542   5.263   4.579  0.3089  1.0219 -0.0765
   39MOL   C24334519   0.544   5.395   4.602  0.1583 -0.4016 -0.4700
   39MOL   C24434520   0.544   5.487   4.495 -0.2268  0.0080  0.0448
   39MOL   C24534521   0.538   5.629   4.521  1.6899  0.1432  0.1433
   39MOL   C24634522   0.532   5.679   4.652 -0.4365 -0.3752 -0.5368
   39MOL   C24734523   0.534   5.587   4.757  0.3882  0.0055 -0.0151
   39MOL   C24834524   0.526   5.445   4.733  0.4892  0.4278  0.0455
   39MOL   C24934525   0.534   5.825   4.674  1.4357  0.5487  0.9448
   39MOL   C25034526   0.440   5.911   4.610  0.3129 -0.0202 -0.1948
   39MOL   C25134527   0.452   6.048   4.622  0.0761  0.2350  0.5557
   39MOL   C25234528   0.555   6.105   4.699 -0.3440  0.9260 -0.3352
   39MOL   C25334529   0.653   6.025   4.754 -0.5318 -0.5083 -0.2636
   39MOL   C25434530   0.639   5.886   4.746 -0.0416 -0.0606  0.5807
   39MOL   O25534531   0.560   6.236   4.713 -0.4813  0.0688  0.2523
   39MOL   H25634532   1.067   4.601   4.542 -0.3446 -0.7268  1.0323
   39MOL   H25734533   0.902   4.707   4.681 -0.4949  1.0391  2.2848
   39MOL   H25834534   1.201   4.958   4.857  1.1585  0.0720  0.7433
   39MOL   H25934535   1.370   4.860   4.707 -0.2011  2.1183 -0.5031
   39MOL   H26034536   0.654   4.996   4.942  0.6786 -3.0327 -1.3660
   39MOL   H26134537   0.489   5.150   4.809 -0.6469 -0.3295  1.5491
   39MOL   H26234538   0.755   5.136   4.476  1.8647  2.3193  0.5172
   39MOL   H26334539   0.911   5.016   4.600 -0.2411 -0.3181  0.0382
   39MOL   H26434540   0.548   5.452   4.393  0.0776  1.3853 -0.4262
   39MOL   H26534541   0.558   5.686   4.432 -1.8770 -0.4381 -1.0965
   39MOL   H26634542   0.536   5.623   4.859 -1.4610  0.8661 -0.2614
   39MOL   H26734543   0.515   5.379   4.817 -0.5628 -0.9719 -1.1715
   39MOL   H26834544   0.352   5.878   4.556  1.0130 -2.3442  0.0116
   39MOL   H26934545   0.366   6.103   4.585 -0.1439 -1.0139 -0.8030
   39MOL   H27034546   0.743   6.070   4.793 -0.0271 -0.4492 -1.4837
   39MOL   H27134547   0.707   5.820   4.798 -0.1744  0.2652  1.1756
   39MOL   C27234548   0.529   6.289   4.832 -0.5797 -0.6741  0.0658
   39MOL   C27334549   0.591   6.410   4.872 -0.3727  0.4159  0.7554
   39MOL   C27434550   0.532   6.496   4.965 -0.4100 -0.0006  0.0106
   39MOL   C27534551   0.420   6.450   5.040  0.2633  0.0064 -0.3553
   39MOL   C27634552   0.359   6.324   5.010 -0.0156 -0.2319 -0.0822
   39MOL   C27734553   0.413   6.249   4.901  0.4122 -0.1553 -0.7497
   39MOL   S27834554   0.337   6.570   5.147  0.2676 -0.3065 -0.3215
   39MOL   O27934555   0.252   6.653   5.056  0.1603 -0.2265 -0.1207
   39MOL   O28034556   0.442   6.638   5.223  0.4716 -0.4333 -0.4241
   39MOL   C28134557   0.231   6.481   5.265  1.0268 -0.1356 -0.0479
   39MOL   C28234558   0.282   6.386   5.353  0.5728  0.7595 -0.1591
   39MOL   C28334559   0.195   6.315   5.438 -0.5702 -0.2125 -0.3612
   39MOL   C28434560   0.057   6.335   5.426  0.3523  0.2664 -0.5964
   39MOL   C28534561   0.000   6.425   5.329  0.1293  0.3961  0.2773
   39MOL   C28634562   0.093   6.493   5.247  0.0707 -0.5944 -0.2388
   39MOL   O28734563   8.333   6.265   5.503  0.0449 -0.1389 -0.0687
   39MOL   C28834564   8.262   6.167   5.436 -0.6500 -0.2652  0.3603
   39MOL   C28934565   8.319   6.062   5.361  0.0266 -0.6703  0.0470
   39MOL   C29034566   8.243   5.966   5.302  0.3947 -0.0227  0.6310
   39MOL   C29134567   8.108   5.971   5.314  0.2218 -0.2072  0.1724
   39MOL   C29234568   8.044   6.078   5.379  0.0926 -0.5860 -0.3113
   39MOL   C29334569   8.125   6.177   5.437  0.1750 -0.3933 -1.1027
   39MOL   C29434570   8.018   5.864   5.270 -0.4015  0.5346  0.5973
   39MOL   C29534571   8.004   5.750   5.353  0.1086 -0.2951  0.2927
   39MOL   C29634572   7.898   5.660   5.325  0.4712 -0.1357  0.0499
   39MOL   C29734573   7.818   5.675   5.209 -0.1950 -0.5141  0.2403
   39MOL   C29834574   7.830   5.791   5.134  0.1606  0.0446 -0.2568
   39MOL   C29934575   7.932   5.883   5.160 -0.5539  0.6262 -0.7028
   39MOL   O30034576   7.724   5.579   5.190  0.1512  0.2123  0.1485
   39MOL   H30134577   0.672   6.453   4.815  0.9815 -0.0816  2.2773
   39MOL   H30234578   0.573   6.595   4.975  1.9662 -0.8533 -1.0094
   39MOL   H30334579   0.266   6.297   5.057  0.0093 -0.5131 -0.1949
   39MOL   H30434580   0.355   6.166   4.864  0.6124 -1.8100  2.4523
   39MOL   H30534581   0.387   6.365   5.361  0.6017  0.2037 -1.8403
   39MOL   H30634582   0.237   6.235   5.497  0.2658 -1.6055 -2.7845
   39MOL   H30734583   8.260   6.445   5.321  0.0304 -0.6112 -1.0210
   39MOL   H30834584   0.053   6.559   5.171  1.3642 -1.6094 -1.8337
   39MOL   H30934585   0.061   6.067   5.356  0.0574  1.1033  2.0781
   39MOL   H31034586   8.289   5.894   5.237  1.1824  1.1014 -0.0814
   39MOL   H31134587   7.936   6.079   5.377  0.0878 -0.5865 -3.7084
   39MOL   H31234588   8.086   6.252   5.504  1.2684 -2.3939  1.9040
   39MOL   H31334589   8.069   5.722   5.435  2.1025 -0.0790 -1.1670
   39MOL   H31434590   7.882   5.580   5.395  1.8380  1.4874  2.2838
   39MOL   H31534591   7.773   5.795   5.043 -1.2322 -0.5973  0.5842
   39MOL   H31634592   7.944   5.967   5.094  0.4560 -0.1387 -1.5096
   39MOL   C31734593   7.713   5.526   5.063 -0.5698  0.0351 -0.7573
   39MOL   C31834594   7.611   5.573   4.969  0.2818 -0.1795  0.1082
   39MOL   C31934595   7.614   5.538   4.832 -0.5277  0.0833  0.7020
   39MOL   C32034596   7.695   5.429   4.795 -0.8129 -0.3586 -0.5839
   39MOL   C32134597   7.802   5.387   4.880  0.3817  0.5222 -0.2826
   39MOL   C32234598   7.806   5.436   5.012 -0.5040 -0.1152  0.5183
   39MOL   S32334599   7.692   5.371   4.624  0.2092  0.0632  0.0193
   39MOL   O32434600   7.790   5.263   4.599  0.5859 -0.4336  0.7774
   39MOL   O32534601   7.701   5.493   4.549  0.2849 -0.3778  0.1077
   39MOL   C32634602   7.532   5.289   4.620 -0.1531 -0.0503  0.2317
   39MOL   C32734603   7.502   5.163   4.675 -0.1846  0.6345  0.1219
   39MOL   C32834604   7.374   5.108   4.655 -0.2135  0.5244  0.1716
   39MOL   C32934605   7.274   5.186   4.599 -0.1358 -0.1600 -0.0706
   39MOL   C33034606   7.297   5.316   4.551 -0.3450 -0.4283  0.0792
   39MOL   C33134607   7.429   5.361   4.551 -0.2858 -0.0532  0.0455
   39MOL   O33234608   7.157   5.128   4.561  0.5710 -0.1223  0.2519
   39MOL   C33334609   7.054   5.098   4.655  0.5383 -0.2560 -0.4013
   39MOL   C33434610   7.020   5.191   4.758  0.2390  0.3065  0.4152
   39MOL   C33534611   6.912   5.171   4.851 -0.5891 -0.4180 -0.5201
   39MOL   C33634612   6.827   5.060   4.845 -0.5408 -0.0009  0.3615
   39MOL   C33734613   6.855   4.968   4.733 -0.5114 -0.5597 -0.4227
   39MOL   C33834614   6.964   4.988   4.647  0.4323 -0.5265 -0.4396
   39MOL   C33934615   6.718   5.041   4.946 -0.0280  0.3799 -0.3837
   39MOL   C34034616   6.739   5.083   5.082  0.1536  0.0660 -0.7937
   39MOL   C34134617   6.632   5.068   5.177  0.0857 -0.3738  0.0218
   39MOL   C34234618   6.510   5.014   5.132  0.0249  0.8869  0.0295
   39MOL   C34334619   6.495   4.965   4.999  0.2110  0.1245  0.1075
   39MOL   C34434620   6.600   4.981   4.904  0.1748  0.7471  0.0731
   39MOL   O34534621   6.413   4.999   5.228 -0.1878  0.1259  0.4305
   39MOL   H34634622   7.538   5.649   4.992  1.2660  0.8545 -0.1414
   39MOL   H34734623   7.537   5.586   4.772  0.8500 -0.4538 -1.5498
   39MOL   H34834624   7.875   5.311   4.858 -0.5877 -0.4720 -0.1186
   39MOL   H34934625   7.891   5.395   5.066 -0.9028 -3.0839 -1.0128
   39MOL   H35034626   7.576   5.104   4.726  0.5914  0.5309 -1.1124
   39MOL   H35134627   7.345   5.010   4.689  1.7243 -0.3211 -0.5827
   39MOL   H35234628   7.218   5.377   4.510 -0.1447  0.5145  1.0700
   39MOL   H35334629   7.457   5.458   4.514 -0.0875  0.4705  1.5321
   39MOL   H35434630   7.084   5.277   4.774  0.6750  0.0188  0.2192
   39MOL   H35534631   6.916   5.244   4.930  1.2659  1.6222 -2.4446
   39MOL   H35634632   6.794   4.881   4.713  0.7702 -1.7581  0.7532
   39MOL   H35734633   6.973   4.914   4.569  0.5554 -0.9342 -0.0421
   39MOL   H35834634   6.827   5.138   5.112  0.5853  1.2700 -3.9611
   39MOL   H35934635   6.649   5.096   5.280  0.2257  0.7381 -0.2905
   39MOL   H36034636   6.403   4.922   4.964  0.8054  0.5664 -2.0770
   39MOL   H36134637   6.586   4.950   4.802 -1.4789  0.0876  0.4858
   39MOL   C36234638   6.279   5.031   5.191  0.4570 -0.4419  0.9622
   39MOL   C36334639   6.248   5.150   5.123 -0.4262  0.1040  0.3586
   39MOL   C36434640   6.119   5.179   5.082 -0.5653  0.1746  0.0821
   39MOL   C36534641   6.020   5.084   5.108  0.8948  0.1324 -0.3070
   39MOL   C36634642   6.040   4.968   5.187  0.2852  0.3619 -0.1408
   39MOL   C36734643   6.179   4.938   5.225 -0.6588  0.2566 -0.2439
   39MOL   S36834644   5.851   5.115   5.052  0.2506  0.1064  0.3220
   39MOL   O36934645   5.863   5.217   4.948 -0.1637 -0.2427 -0.7042
   39MOL   O37034646   5.761   5.140   5.163  0.4672 -0.0995 -0.8567
   39MOL   C37134647   5.787   4.962   4.969  0.2053  0.1698  0.0930
   39MOL   C37234648   5.730   4.859   5.045  0.2153 -0.1289  0.1004
   39MOL   C37334649   5.655   4.759   4.986 -0.3203 -0.5414  0.1990
   39MOL   C37434650   5.640   4.748   4.846  0.4828 -0.1672  1.2675
   39MOL   C37534651   5.699   4.851   4.764  1.1672  0.6410 -0.4708
   39MOL   C37634652   5.774   4.954   4.823  0.0543 -0.3743  0.6675
   39MOL   O37734653   5.561   4.653   4.787 -0.5183  0.4274  0.6332
   39MOL   C37834654   5.543   4.644   4.656  0.3619 -0.0346  0.5146
   39MOL   C37934655   5.632   4.562   4.583 -0.0842  1.1074 -0.5797
   39MOL   C38034656   5.646   4.588   4.445 -0.3336  1.0416  0.4773
   39MOL   C38134657   5.546   4.669   4.375 -0.6227  0.5105  0.5145
   39MOL   C38234658   5.441   4.726   4.448  1.5096 -0.4381 -0.7287
   39MOL   C38334659   5.438   4.716   4.593 -1.3381  0.3715 -0.7359
   39MOL   C38434660   5.561   4.690   4.228  0.1673 -0.0022 -0.0731
   39MOL   C38534661   5.680   4.744   4.176  0.0212  0.1271 -0.7465
   39MOL   C38634662   5.689   4.769   4.033 -0.0182  0.4907  0.3848
   39MOL   C38734663   5.578   4.752   3.951  0.2899 -0.4643  0.7991
   39MOL   C38834664   5.453   4.702   4.004 -0.5302  0.1542  0.8915
   39MOL   C38934665   5.450   4.666   4.138 -0.3327  0.9131 -0.0175
   39MOL   O39034666   5.588   4.782   3.818 -0.6607 -0.6516 -0.2558
   39MOL   H39134667   6.326   5.225   5.117  1.7210 -2.1112 -0.4173
   39MOL   H39234668   6.102   5.264   5.017  1.1231  2.3031  2.3595
   39MOL   H39334669   5.962   4.896   5.208  0.3292  0.0650 -0.9855
   39MOL   H39434670   6.207   4.849   5.280  3.0687 -0.2042 -2.6616
   39MOL   H39534671   5.734   4.860   5.153  0.4724  0.8245  0.0935
   39MOL   H39634672   5.612   4.686   5.052  1.4170 -1.0763  0.7811
   39MOL   H39734673   5.691   4.856   4.657 -1.8700  1.0949 -0.2700
   39MOL   H39834674   5.810   5.036   4.762 -0.7907  0.3437  1.1240
   39MOL   H39934675   5.712   4.506   4.629 -0.0166 -1.0551 -3.2175
   39MOL   H40034676   5.733   4.547   4.396  0.5682  1.0230  2.0629
   39MOL   H40134677   5.359   4.772   4.395  1.2386  1.4070  1.1890
   39MOL   H40234678   5.361   4.762   4.652 -1.2677  1.2005 -1.2675
   39MOL   H40334679   5.754   4.783   4.245 -0.9251 -0.2709  0.5037
   39MOL   H40434680   5.777   4.819   3.997  0.2939 -0.0270  0.4293
   39MOL   H40534681   5.366   4.718   3.944  0.6692  0.2254 -0.8648
   39MOL   H40634682   5.363   4.617   4.180 -0.0673  0.9961  0.6311
   39MOL   C40734683   5.514   4.878   3.763 -0.6086  0.8868 -0.0519
   39MOL   C40834684   5.483   5.003   3.818  0.5344  0.2513 -0.0084
   39MOL   C40934685   5.390   5.093   3.759 -0.6495 -0.6047  1.0900
   39MOL   C41034686   5.330   5.054   3.634 -0.0923 -0.0410  0.5261
   39MOL   C41134687   5.370   4.933   3.570  0.3728 -0.1972 -0.3694
   39MOL   C41234688   5.466   4.849   3.635  0.5473 -0.1538 -0.0721
   39MOL   S41334689   5.190   5.150   3.562  0.2439  0.6755  0.0602
   39MOL   O41434690   5.068   5.090   3.611  0.3148 -0.1278  0.1083
   39MOL   O41534691   5.214   5.150   3.412 -0.5839  0.0160  0.5796
   39MOL   C41634692   5.197   5.320   3.623  0.3895  0.2739 -0.0677
   39MOL   C41734693   5.129   5.364   3.735  0.3266  0.1523 -0.1545
   39MOL   C41834694   5.125   5.498   3.767 -0.3360 -0.5952  0.1260
   39MOL   C41934695   5.209   5.590   3.703  0.5393  0.0312  0.2182
   39MOL   C42034696   5.289   5.551   3.595  0.6171 -0.0765 -0.1658
   39MOL   C42134697   5.274   5.412   3.554  0.0113  0.0281 -0.1142
   39MOL   O42234698   5.226   5.721   3.741 -0.4015 -0.3432 -0.8055
   39MOL   C42334699   5.119   5.802   3.708  0.2152 -0.7007  0.3919
   39MOL   C42434700   5.042   5.779   3.596 -0.1736  0.7136  0.5339
   39MOL   C42534701   4.944   5.881   3.559  0.3761  0.2960 -0.0925
   39MOL   C42634702   4.916   5.995   3.633  0.0237  0.4009  0.6498
   39MOL   C42734703   4.991   6.013   3.746 -0.5445 -0.0747 -0.8115
   39MOL   C42834704   5.096   5.920   3.783  0.1042  0.6863  0.8014
   39MOL   C42934705   4.806   6.088   3.606 -0.4202 -0.0508 -0.0070
   39MOL   C43034706   4.846   6.218   3.565  0.4269 -0.1252 -0.3578
   39MOL   C43134707   4.749   6.316   3.534  0.9145 -0.9311  0.9272
   39MOL   C43234708   4.612   6.296   3.577 -1.2240 -0.1086  0.2547
   39MOL   C43334709   4.575   6.169   3.625 -0.5432 -0.1036  0.3732
   39MOL   C43434710   4.668   6.064   3.632 -0.0398 -0.4651  0.3104
   39MOL   O43534711   4.515   6.393   3.559  0.4283  0.0068  0.4158
   39MOL   H43634712   5.524   5.031   3.914  0.2947 -0.8714  0.4381
   39MOL   H43734713   5.359   5.182   3.811  2.0670  0.7092  0.5564
   39MOL   H43834714   5.316   4.908   3.480  1.5466 -0.3568 -1.0389
   39MOL   H43934715   5.492   4.760   3.580  0.3995 -0.0778 -0.2652
   39MOL   H44034716   5.074   5.291   3.793  0.1021 -0.9474 -1.7141
   39MOL   H44134717   5.069   5.539   3.850  0.2488 -0.7162  0.5891
   39MOL   H44234718   5.360   5.611   3.540 -0.4717  0.8886 -0.5380
   39MOL   H44334719   5.332   5.363   3.477  0.0790 -1.1029  0.6551
   39MOL   H44434720   5.050   5.691   3.534 -0.6947  0.8056  0.3268
   39MOL   H44534721   4.880   5.857   3.476 -0.6091  0.6763  0.5486
   39MOL   H44634722   4.976   6.097   3.812  1.0468  1.4151 -2.3123
   39MOL   H44734723   5.169   5.942   3.859  0.7394  1.9828 -0.1575
   39MOL   H44834724   4.951   6.240   3.551  1.3861 -2.4540  2.5214
   39MOL   H44934725   4.773   6.406   3.479  0.7219 -1.5090 -0.1166
   39MOL   H45034726   4.468   6.159   3.643 -0.1967 -0.8101  2.2263
   39MOL   H45134727   4.632   5.969   3.669 -0.6639  1.1278  3.9016
   39MOL   C45234728   4.443   6.425   3.671  0.7163  0.5201 -0.5455
   39MOL   C45334729   4.510   6.443   3.797  0.6127  0.4686  0.6302
   39MOL   C45434730   4.439   6.454   3.914  0.0549 -0.2390 -0.6002
   39MOL   C45534731   4.296   6.447   3.913 -0.1993 -0.4354  0.4146
   39MOL   C45634732   4.230   6.432   3.787 -0.2294  0.6001  0.4765
   39MOL   C45734733   4.300   6.420   3.663 -0.6221 -0.2193  0.0538
   39MOL   S45834734   4.201   6.439   4.061 -0.3886  0.1311 -0.1918
   39MOL   O45934735   4.059   6.472   4.031 -0.7518  0.0641  0.5308
   39MOL   O46034736   4.268   6.520   4.170 -0.1347 -0.0972 -0.3765
   39MOL   C46134737   4.206   6.259   4.115 -0.0771 -0.5923  0.2924
   39MOL   C46234738   4.309   6.205   4.190  0.1137 -0.6934  0.4601
   39MOL   C46334739   4.297   6.069   4.225  0.8099  0.8505  0.0573
   39MOL   C46434740   4.191   5.990   4.182  0.0826 -0.9420 -0.1228
   39MOL   C46534741   4.081   6.041   4.109  0.3735 -0.5518 -0.1946
   39MOL   C46634742   4.089   6.175   4.087  0.5696 -0.3371 -0.1477
   39MOL   O46734743   4.181   5.859   4.228 -0.3741 -0.3363  0.2997
   39MOL   C46834744   4.226   5.754   4.145  0.5435 -0.0869  0.5583
   39MOL   C46934745   4.336   5.683   4.185  0.5716  0.2331 -0.0312
   39MOL   C47034746   4.372   5.559   4.130  0.4741  0.1911  0.4775
   39MOL   C47134747   4.301   5.512   4.016 -0.3538  0.2736  0.5439
   39MOL   C47234748   4.204   5.605   3.958 -0.4719 -0.0077  0.7653
   39MOL   C47334749   4.166   5.722   4.025  0.2820 -0.6627  0.0653
   39MOL   C47434750   4.335   5.377   3.959  0.3924 -0.7834 -0.8689
   39MOL   C47534751   4.342   5.345   3.820 -0.0050 -0.4902 -0.3682
   39MOL   C47634752   4.370   5.215   3.770  0.1457 -0.2289  0.2267
   39MOL   C47734753   4.383   5.106   3.855 -0.0743 -0.0120  0.0111
   39MOL   C47834754   4.365   5.132   3.995 -0.5995 -0.5544  0.1974
   39MOL   C47934755   4.349   5.266   4.040 -0.2265  0.1126 -0.3309
   39MOL   O48034756   4.404   4.982   3.806  0.0084 -0.4512  0.1635
   39MOL   H48134757   4.618   6.431   3.798  0.6150  0.1327 -1.5781
   39MOL   H48234758   4.492   6.461   4.008  0.2094  1.2732 -0.7994
   39MOL   H48334759   4.123   6.417   3.776  0.3538 -2.5093 -1.6141
   39MOL   H48434760   4.253   6.401   3.568  1.4301  0.2507 -1.0845
   39MOL   H48534761   4.396   6.259   4.225 -0.1955 -1.0932  1.8653
   39MOL   H48634762   4.376   6.017   4.277  1.8484  0.4399 -1.8684
   39MOL   H48734763   3.993   5.981   4.093  0.9938 -1.6910  0.5283
   39MOL   H48834764   4.003   6.231   4.054  2.1122  3.0953  1.4357
   39MOL   H48934765   4.378   5.714   4.280  2.5540  0.1452 -0.8610
   39MOL   H49034766   4.452   5.501   4.173 -0.5450 -0.9296  0.8782
   39MOL   H49134767   4.143   5.576   3.874 -1.3346  1.2496  0.9476
   39MOL   H49234768   4.075   5.768   3.990 -0.4140 -2.0303  0.0315
   39MOL   H49334769   4.322   5.425   3.752  1.0996 -0.2204 -0.3852
   39MOL   H49434770   4.378   5.214   3.662  2.2389  2.6743  0.3008
   39MOL   H49534771   4.385   5.051   4.063 -0.4276 -1.0139 -0.4050
   39MOL   H49634772   4.348   5.273   4.148 -0.2863 -1.8090 -0.1978
   39MOL   C49734773   4.526   4.934   3.838 -0.9733 -0.1470  0.1222
   39MOL   C49834774   4.638   4.986   3.772  0.5730 -1.1466 -0.3650
   39MOL   C49934775   4.769   4.950   3.809 -0.7906 -0.2508 -0.8511
   39MOL   C50034776   4.781   4.852   3.909 -0.4213 -0.6514  0.0417
   39MOL   C50134777   4.671   4.796   3.968 -0.3239 -0.0364  0.9050
   39MOL   C50234778   4.542   4.839   3.940  0.6188  0.6478  0.1790
   39MOL   S50334779   4.950   4.790   3.947  0.1312  0.0612  0.1007
   39MOL   O50434780   4.962   4.793   4.093  0.8826  0.0661 -0.3064
   39MOL   O50534781   5.049   4.876   3.877 -0.1236 -0.3376 -0.7305
   39MOL   C50634782   4.963   4.627   3.889  0.1988 -0.0123 -0.5850
   39MOL   C50734783   5.030   4.533   3.969 -0.5435 -0.5554 -0.3003
   39MOL   C50834784   5.054   4.404   3.918 -1.0344 -0.2251  0.1071
   39MOL   C50934785   5.002   4.367   3.794 -0.2138  0.2835  1.0241
   39MOL   C51034786   4.920   4.458   3.719 -0.4780  0.1156 -0.4294
   39MOL   C51134787   4.912   4.592   3.767  0.3559 -0.5961 -0.6126
   39MOL   O51234788   5.017   4.241   3.748 -0.7515  0.3318 -0.1713
   39MOL   C51334789   5.132   4.211   3.677 -0.3729  0.3375 -0.7318
   39MOL   C51434790   5.149   4.249   3.546 -0.2713 -0.4945  0.7219
   39MOL   C51534791   5.263   4.224   3.475 -0.4218 -0.8073 -1.1047
   39MOL   C51634792   5.373   4.157   3.537 -0.4788 -0.3882 -0.3557
   39MOL   C51734793   5.352   4.117   3.674 -0.3091 -0.4171 -0.1105
   39MOL   C51834794   5.235   4.151   3.745 -0.5468 -0.1815  0.2735
   39MOL   C51934795   5.490   4.125   3.459 -0.2772  0.2737  0.5425
   39MOL   C52034796   5.557   4.005   3.487 -0.3628 -0.7258 -0.1397
   39MOL   C52134797   5.670   3.966   3.418  0.2106 -0.4915 -0.1228
   39MOL   C52234798   5.708   4.038   3.305  0.1080  0.0339  0.1508
   39MOL   C52334799   5.639   4.153   3.271  0.0951 -0.3247 -0.0234
   39MOL   C52434800   5.533   4.196   3.346 -0.8338 -0.0485 -0.2413
   39MOL   O52534801   5.811   3.980   3.224  0.2346 -0.2241  0.0663
   39MOL   H52634802   4.623   5.073   3.709  0.7874 -1.8270 -1.3606
   39MOL   H52734803   4.845   4.984   3.741  0.4147  1.1580  1.1402
   39MOL   H52834804   4.679   4.716   4.040 -0.2100 -0.7907  0.0624
   39MOL   H52934805   4.455   4.804   3.993 -1.2069  0.5690 -2.7314
   39MOL   H53034806   5.068   4.569   4.063 -1.2814 -1.3328  0.3050
   39MOL   H53134807   5.130   4.346   3.970  0.4498  2.5522  1.1831
   39MOL   H53234808   4.891   4.417   3.624  1.7384  0.6686 -1.3735
   39MOL   H53334809   4.861   4.663   3.703  1.8449 -0.4925 -1.7076
   39MOL   H53434810   5.074   4.308   3.496  0.0969 -0.2515  0.4612
   39MOL   H53534811   5.275   4.246   3.370 -1.8172  1.4716 -0.8254
   39MOL   H53634812   5.436   4.070   3.723  0.0328 -0.0374 -0.3362
   39MOL   H53734813   5.226   4.116   3.847 -0.6205 -0.3639  0.2053
   39MOL   H53834814   5.512   3.937   3.557 -4.8696  1.8667 -0.2877
   39MOL   H53934815   5.719   3.877   3.453  0.4020 -0.5818 -0.6213
   39MOL   H54034816   5.670   4.219   3.190  0.4440 -1.5728 -0.9232
   39MOL   H54134817   5.478   4.287   3.326 -0.8276  0.5352  2.1769
   39MOL   C54234818   5.944   3.975   3.267 -0.1319  0.4299 -0.4110
   39MOL   C54334819   6.009   4.092   3.298  0.2296  0.5559  0.1966
   39MOL   C54434820   6.146   4.093   3.321 -0.5148 -0.3229  0.1512
   39MOL   C54534821   6.218   3.975   3.308 -0.1166 -0.0718 -0.0175
   39MOL   C54634822   6.150   3.853   3.282  0.2492  0.1428 -0.4532
   39MOL   C54734823   6.015   3.854   3.248  0.5765  0.2029 -0.3132
   39MOL   S54834824   6.398   3.967   3.343  0.0007 -0.2886 -0.0936
   39MOL   O54934825   6.445   3.829   3.318 -0.5651  0.2945 -0.3760
   39MOL   O55034826   6.420   4.040   3.469  0.1482 -0.3328  0.1109
   39MOL   C55134827   6.473   4.057   3.202  0.5537 -0.5880  0.4575
   39MOL   C55234828   6.586   4.133   3.216  0.5418 -0.7091 -0.0901
   39MOL   C55334829   6.634   4.201   3.102 -0.1082  0.4937  0.7628
   39MOL   C55434830   6.565   4.192   2.979 -0.3557 -0.4702  0.4072
   39MOL   C55534831   6.455   4.103   2.965 -0.6787  0.1605 -0.4764
   39MOL   C55634832   6.424   4.029   3.078 -0.3844  0.1729 -0.1225
   39MOL   O55734833   6.618   4.265   2.873 -0.1539 -0.2997 -0.5792
   39MOL   C55834834   6.583   4.394   2.877  0.5551 -0.2231  0.1945
   39MOL   C55934835   6.660   4.486   2.955  0.2810  0.7539 -0.4309
   39MOL   C56034836   6.626   4.620   2.974  0.1380  0.9545 -0.6736
   39MOL   C56134837   6.519   4.668   2.890 -0.0536  0.0050 -0.3372
   39MOL   C56234838   6.448   4.580   2.802 -0.0538 -0.7244  0.1729
   39MOL   C56334839   6.471   4.442   2.803  0.0703  0.2832 -0.3371
   39MOL   C56434840   6.478   4.806   2.883 -0.1953  0.3679 -0.0132
   39MOL   C56534841   6.482   4.882   2.997  0.2807  0.1379  0.3087
   39MOL   C56634842   6.457   5.019   2.995  0.8901  0.6018 -0.5175
   39MOL   C56734843   6.421   5.081   2.874 -0.1847 -0.0020 -0.0955
   39MOL   C56834844   6.412   4.999   2.756  0.1406  0.2971 -0.9003
   39MOL   C56934845   6.448   4.867   2.764  0.6932 -0.0579  0.2507
   39MOL   O57034846   6.376   5.217   2.863  0.3906 -0.0819 -0.8139
   39MOL   H57134847   5.955   4.185   3.296  0.5428  0.7308 -0.3415
   39MOL   H57234848   6.196   4.186   3.343  0.3876 -0.4746 -1.1896
   39MOL   H57334849   6.213   3.766   3.295 -0.8131 -0.5778 -0.1263
   39MOL   H57434850   5.970   3.756   3.244  1.9443 -0.4836  0.5410
   39MOL   H57534851   6.636   4.135   3.312 -0.1210 -0.0534  0.2489
   39MOL   H57634852   6.728   4.254   3.106  0.0138  1.0692 -4.6845
   39MOL   H57734853   6.403   4.090   2.871 -1.9084 -0.6148  0.2938
   39MOL   H57834854   6.339   3.963   3.068 -1.3154  1.2174  0.7810
   39MOL   H57934855   6.750   4.448   3.001 -0.4907  0.2661  0.7037
   39MOL   H58034856   6.699   4.681   3.024 -1.0325  1.6537  0.2059
   39MOL   H58134857   6.362   4.619   2.750 -0.7904 -2.3573  0.1326
   39MOL   H58234858   6.416   4.372   2.742 -0.4277 -0.4363  0.9448
   39MOL   H58334859   6.490   4.828   3.090 -0.8549  0.3623  0.5537
   39MOL   H58434860   6.454   5.074   3.087  2.9138  3.3538 -2.0191
   39MOL   H58534861   6.382   5.042   2.662 -1.6278  0.6449 -0.1979
   39MOL   H58634862   6.461   4.812   2.672 -2.1019  0.6749 -0.6368
   39MOL   C58734863   6.454   5.320   2.898  0.5159 -0.3846  0.8040
   39MOL   C58834864   6.472   5.423   2.804 -0.3297  0.1113  0.5065
   39MOL   C58934865   6.526   5.547   2.837  0.5408 -0.6646 -0.1084
   39MOL   C59034866   6.567   5.574   2.968 -0.5475 -0.6964 -0.1526
   39MOL   C59134867   6.560   5.467   3.064 -0.2941 -0.1816  0.1523
   39MOL   C59234868   6.509   5.343   3.027  0.3125  0.9413 -0.1667
   39MOL   S59334869   6.655   5.723   3.018 -0.1969 -0.1650  0.0683
   39MOL   O59434870   6.652   5.742   3.164  0.2265  0.0055 -0.1313
   39MOL   O59534871   6.622   5.831   2.929  0.2603 -0.1092  0.9083
   39MOL   C59634872   6.831   5.678   2.989 -0.4479  0.2846  0.4006
   39MOL   C59734873   6.900   5.702   2.864 -0.8327 -0.6940 -0.1551
   39MOL   C59834874   7.032   5.677   2.847 -0.1891  1.0199 -0.3335
   39MOL   C59934875   7.103   5.604   2.943  0.3163 -0.6596 -0.5283
   39MOL   C60034876   7.037   5.571   3.066 -0.0301 -0.9700 -0.3871
   39MOL   C60134877   6.901   5.611   3.091 -0.6073  0.5101  0.2280
   39MOL   O60234878   7.234   5.565   2.934 -0.4250  0.1621 -0.5170
   39MOL   C60334879   7.258   5.446   2.873  0.7963 -0.4516 -0.3768
   39MOL   C60434880   7.245   5.327   2.954 -0.1371 -0.3816 -0.3601
   39MOL   C60534881   7.286   5.203   2.900  0.1279 -0.2961 -0.2886
   39MOL   C60634882   7.347   5.198   2.773 -0.1323  0.2201  0.2988
   39MOL   C60734883   7.346   5.317   2.690  0.5108 -0.5595 -0.3404
   39MOL   C60834884   7.299   5.439   2.742  0.6557  0.2246  0.3921
   39MOL   C60934885   7.400   5.070   2.720  0.0489 -0.3009 -0.1411
   39MOL   C61034886   7.524   5.068   2.651 -0.9034  0.2011  0.5450
   39MOL   C61134887   7.576   4.953   2.603  0.2694  0.4048  0.6217
   39MOL   C61234888   7.508   4.831   2.629  0.0316 -0.1953 -0.4710
   39MOL   C61334889   7.387   4.838   2.698  0.0694  0.4368 -0.3044
   39MOL   C61434890   7.323   4.954   2.746 -0.2366  0.3547  0.3971
   39MOL   O61534891   7.550   4.722   2.555 -0.4461 -0.1771 -0.0875
   39MOL   H61634892   6.435   5.402   2.705  0.8647 -0.9779  0.2782
   39MOL   H61734893   6.555   5.619   2.762  0.0526 -2.0210 -1.6301
   39MOL   H61834894   6.604   5.476   3.163  1.8643  3.4825 -1.0630
   39MOL   H61934895   6.486   5.278   3.110 -2.1116  2.1235  0.1339
   39MOL   H62034896   6.852   5.750   2.780 -1.5880  0.0315  0.6836
   39MOL   H62134897   7.091   5.699   2.759  1.6440  0.8356  0.8238
   39MOL   H62234898   7.090   5.517   3.143  1.1737  1.3557  0.4399
   39MOL   H62334899   6.855   5.593   3.187 -1.6034 -1.2675 -0.5488
   39MOL   H62434900   7.206   5.340   3.054  1.7674 -2.0573  0.6321
   39MOL   H62534901   7.269   5.118   2.965 -1.0044 -1.3303 -1.9174
   39MOL   H62634902   7.386   5.323   2.590  1.6929 -1.4123  0.0716
   39MOL   H62734903   7.308   5.534   2.690  2.4202 -0.1532 -0.0306
   39MOL   H62834904   7.574   5.161   2.630 -0.8821  0.2340  0.7378
   39MOL   H62934905   7.663   4.950   2.539 -1.2133  0.1345 -1.4463
   39MOL   H63034906   7.330   4.747   2.708  2.4318 -1.0469 -0.1854
   39MOL   H63134907   7.224   4.949   2.787 -0.0716 -0.1001  0.7372
   39MOL   C63234908   7.557   4.604   2.628  0.4024  0.2637 -0.1447
   39MOL   C63334909   7.448   4.513   2.615  0.4706  0.4873 -0.0837
   39MOL   C63434910   7.468   4.384   2.666  0.9467 -0.1712  0.2571
   39MOL   C63534911   7.593   4.347   2.729  0.4971 -0.0220  0.4733
   39MOL   C63634912   7.689   4.451   2.759 -0.8338 -0.1517  0.0343
   39MOL   C63734913   7.668   4.576   2.698  0.3741  0.4635 -0.4354
   39MOL   S63834914   7.629   4.187   2.797 -0.1719 -0.1262  0.0352
   39MOL   O63934915   7.565   4.169   2.933  0.9161 -0.3793  0.4375
   39MOL   O64034916   7.774   4.174   2.789  0.4314 -0.6877  0.1354
   39MOL   C64134917   7.569   4.058   2.698 -0.1699  0.1780  0.3365
   39MOL   C64234918   7.594   4.064   2.557  0.0786 -0.2028  0.0555
   39MOL   C64334919   7.540   3.960   2.483  0.3235  0.1888 -0.9491
   39MOL   C64434920   7.481   3.845   2.543  0.2412  0.3502 -0.1606
   39MOL   C64534921   7.474   3.842   2.688  0.0698  0.3636  0.1219
   39MOL   C64634922   7.506   3.954   2.766  0.0567 -0.3807 -0.1194
   39MOL   O64734923   7.438   3.736   2.474  0.4030 -0.0587  0.1987
   39MOL   C64834924   7.521   3.641   2.436 -1.0464 -0.3348 -0.2410
   39MOL   C64934925   7.556   3.637   2.295 -0.0038 -0.2970 -0.9820
   39MOL   C65034926   7.651   3.544   2.247  0.1990 -0.0394 -0.2893
   39MOL   C65134927   7.720   3.467   2.341 -0.9877 -0.2457 -0.3827
   39MOL   C65234928   7.683   3.476   2.477  0.6974 -0.6485 -0.0625
   39MOL   C65334929   7.576   3.549   2.525 -0.7865 -0.0118 -0.9197
   39MOL   C65434930   7.830   3.383   2.304  0.0594 -0.5254  0.5447
   39MOL   C65534931   7.958   3.439   2.284  0.5614  0.9141 -0.8190
   39MOL   C65634932   8.073   3.360   2.265 -0.5542 -0.4039 -0.5729
   39MOL   C65734933   8.065   3.220   2.265 -0.0242  0.1905  0.2852
   39MOL   C65834934   7.937   3.168   2.279 -0.5824  0.1487 -0.3166
   39MOL   C65934935   7.821   3.246   2.294  0.4678 -0.0670 -0.1404
   39MOL   O66034936   8.176   3.149   2.235 -0.4961  0.2322 -0.2076
   39MOL   H66134937   7.368   4.556   2.557 -0.2167 -0.2960  0.2686
   39MOL   H66234938   7.386   4.313   2.666 -0.0371  0.9522  0.0080
   39MOL   H66334939   7.778   4.423   2.814 -0.4854  0.3221 -0.2805
   39MOL   H66434940   7.738   4.655   2.718 -1.4617  1.6332  1.5190
   39MOL   H66534941   7.644   4.150   2.515 -1.1734 -0.0592 -1.1883
   39MOL   H66634942   7.558   3.960   2.377  0.0627  0.0194 -0.9950
   39MOL   H66734943   7.426   3.754   2.726  0.0993 -1.0269 -2.9144
   39MOL   H66834944   7.490   3.964   2.872  0.1427  1.9562 -0.2981
   39MOL   H66934945   7.524   3.716   2.230 -1.6697  1.1458  1.4938
   39MOL   H67034946   7.685   3.559   2.146 -0.5479 -0.3975 -0.5958
   39MOL   H67134947   7.745   3.421   2.546 -1.1887  0.6926  2.8482
   39MOL   H67234948   7.556   3.562   2.630 -0.5181  0.2079 -0.8957
   39MOL   H67334949   7.965   3.547   2.279 -2.5910  1.1243 -1.4987
   39MOL   H67434950   8.170   3.402   2.242 -0.6063 -0.1902 -0.4052
   39MOL   H67534951   7.923   3.063   2.295  3.2118 -0.2408  0.9885
   39MOL   H67634952   7.727   3.194   2.297  1.2990 -1.5335  1.0650
   39MOL   C67734953   8.224   3.078   2.344  0.4888  0.2627  0.0641
   39MOL   C67834954   8.260   3.153   2.459  0.1955 -0.2757 -0.3973
   39MOL   C67934955   8.274   3.091   2.584  0.2232 -0.1125  0.8187
   39MOL   C68034956   8.264   2.950   2.595 -0.2822  0.0311  0.2898
   39MOL   C68134957   8.238   2.874   2.476  0.2422 -0.7086 -0.1520
   39MOL   C68234958   8.219   2.939   2.348  0.4664 -0.0637 -0.6074
   39MOL   S68334959   8.277   2.874   2.757  0.0142 -0.2096  0.4550
   39MOL   O68434960   0.020   2.938   2.829 -0.2130  0.0260 -0.1249
   39MOL   O68534961   8.279   2.729   2.739  0.0551  0.1816  0.1324
   39MOL   C68634962   8.116   2.915   2.831  0.6115  0.1698 -0.5886
   39MOL   C68734963   7.990   2.883   2.768 -0.2727 -0.2236  0.0819
   39MOL   C68834964   7.869   2.931   2.825 -0.3816  0.3563  0.3540
   39MOL   C68934965   7.873   2.997   2.952 -0.4784 -0.3800 -0.0312
   39MOL   C69034966   8.002   3.015   3.021 -0.0532 -0.3724  0.6065
   39MOL   C69134967   8.118   2.974   2.957 -0.9166  0.0711 -0.5221
   39MOL   O69234968   7.758   3.033   3.015  0.4169 -0.2176  0.6364
   39MOL   C69334969   7.660   2.941   3.046 -0.0628 -0.1164  0.4462
   39MOL   C69434970   7.535   2.946   2.986  0.4201  0.4849  0.0274
   39MOL   C69534971   7.440   2.848   3.021 -0.0310 -0.3121  0.2165
   39MOL   C69634972   7.460   2.758   3.129  0.0885  0.8811 -0.3764
   39MOL   C69734973   7.582   2.766   3.200 -0.2167  0.0989 -0.1973
   39MOL   C69834974   7.680   2.848   3.147 -0.7306 -0.3717  0.1383
   39MOL   C69934975   7.364   2.656   3.173 -0.0633 -0.4383 -0.0084
   39MOL   C70034976   7.395   2.520   3.178  1.0582  0.0170  0.5032
   39MOL   C70134977   7.295   2.428   3.223  0.5878  0.4918 -0.2097
   39MOL   C70234978   7.165   2.470   3.252 -0.0180  0.8052  0.2875
   39MOL   C70334979   7.129   2.605   3.240 -0.7848  0.0443 -0.2010
   39MOL   C70434980   7.225   2.698   3.196 -0.6378 -0.3655  1.6643
   39MOL   O70534981   7.083   2.382   3.306  0.4197 -0.2425  0.4644
   39MOL   H70634982   8.265   3.260   2.449  2.1401 -0.2682  0.4651
   39MOL   H70734983   8.296   3.150   2.672  0.0635 -0.6062  1.1950
   39MOL   H70834984   8.251   2.767   2.471 -0.9498 -0.7896 -2.1669
   39MOL   H70934985   8.203   2.880   2.259 -2.7483 -2.5930  1.4970
   39MOL   H71034986   7.990   2.835   2.671 -0.5192  2.5365 -1.3239
   39MOL   H71134987   7.778   2.906   2.772 -1.5771  1.1062  2.0231
   39MOL   H71234988   7.996   3.061   3.119  2.2619 -0.4151  0.7841
   39MOL   H71334989   8.211   2.998   3.006 -1.0218  0.0839 -0.3286
   39MOL   H71434990   7.504   3.019   2.912  0.6523  0.8116  0.2515
   39MOL   H71534991   7.344   2.854   2.972 -0.2783  0.4296  0.7956
   39MOL   H71634992   7.615   2.689   3.267 -1.3514 -0.2427 -0.0117
   39MOL   H71734993   7.772   2.845   3.203  0.9086  0.0966 -2.4262
   39MOL   H71834994   7.487   2.468   3.159 -0.3067 -1.9463 -0.9764
   39MOL   H71934995   7.315   2.323   3.238 -0.5534  0.1388 -1.0557
   39MOL   H72034996   7.025   2.625   3.262 -0.7867  0.0678 -0.2305
   39MOL   H72134997   7.194   2.801   3.188 -0.4268 -0.4895 -1.4091
   39MOL   C72234998   7.020   2.418   3.421 -0.4015  0.7850 -0.3723
   39MOL   C72334999   6.878   2.442   3.423  0.3906  0.2653 -0.2362
   39MOL   C72435000   6.818   2.497   3.539  0.1406  0.4038 -0.4684
   39MOL   C72535001   6.894   2.513   3.650  0.2998  0.1212 -0.1504
   39MOL   C72635002   7.031   2.488   3.652  0.5085 -0.3116 -0.3041
   39MOL   C72735003   7.097   2.448   3.533  0.1824  0.1135  0.6166
   39MOL   S72835004   6.820   2.568   3.807 -0.2397  0.1781  0.0771
   39MOL   O72935005   6.926   2.620   3.894  0.4304  0.7631 -0.0398
   39MOL   O73035006   6.736   2.457   3.852 -0.5715  0.1404  0.1486
   39MOL   C73135007   6.716   2.706   3.774 -0.0229 -0.2783  0.1420
   39MOL   C73235008   6.584   2.693   3.805  0.2581 -0.2624  0.2352
   39MOL   C73335009   6.497   2.804   3.776  0.2109 -0.2747 -0.0427
   39MOL   C73435010   6.541   2.913   3.712  0.3182 -0.5900  0.1287
   39MOL   C73535011   6.676   2.922   3.664  0.0306 -0.5702  0.0709
   39MOL   C73635012   6.763   2.818   3.702  0.3545 -0.4639 -0.4301
   39MOL   O73735013   6.453   3.022   3.679 -0.0302  0.3399 -0.6094
   39MOL   C73835014   6.351   3.008   3.587  0.8873 -0.1149 -0.9356
   39MOL   C73935015   6.236   2.932   3.607 -0.1308  0.7841 -0.3209
   39MOL   C74035016   6.130   2.930   3.511  0.9647  0.5418 -0.0348
   39MOL   C74135017   6.136   3.015   3.400  0.4243 -0.1978 -0.3185
   39MOL   C74235018   6.253   3.088   3.380 -0.8107 -0.6654 -0.3500
   39MOL   C74335019   6.361   3.090   3.471  0.1290 -0.0423 -0.3323
   39MOL   C74435020   6.027   3.019   3.299  0.3722  0.3055 -0.3786
   39MOL   C74535021   5.983   3.136   3.234  0.1085  0.3763 -0.0664
   39MOL   C74635022   5.857   3.144   3.169  0.4540  0.5868 -0.0379
   39MOL   C74735023   5.766   3.037   3.168  1.1708  0.5066 -0.2397
   39MOL   C74835024   5.814   2.911   3.230 -0.0039  0.1792  0.9463
   39MOL   C74935025   5.944   2.907   3.280  0.0217 -0.3466 -0.6051
   39MOL   O75035026   5.653   3.051   3.094 -0.1401  0.2869 -0.2133
   39MOL   H75135027   6.819   2.430   3.334  2.2813 -0.2565 -1.4406
   39MOL   H75235028   6.712   2.520   3.548 -0.3458 -1.4769 -1.1533
   39MOL   H75335029   7.090   2.500   3.741  1.3019 -0.7518 -0.7632
   39MOL   H75435030   7.204   2.434   3.529  0.0822 -0.5273 -0.2469
   39MOL   H75535031   6.539   2.611   3.858  1.2926 -0.7360  0.3693
   39MOL   H75635032   6.395   2.816   3.810 -0.1402 -3.5659  0.2510
   39MOL   H75735033   6.708   3.007   3.605  1.2984 -0.6885  0.5756
   39MOL   H75835034   6.868   2.825   3.677  0.4146 -0.4375 -0.1609
   39MOL   H75935035   6.225   2.865   3.691 -0.9654  1.6372  0.2538
   39MOL   H76035036   6.042   2.872   3.533  1.1999 -0.0707 -0.6959
   39MOL   H76135037   6.259   3.154   3.294  0.0460 -0.3756 -0.0767
   39MOL   H76235038   6.441   3.164   3.472 -0.1594  0.3200 -1.9585
   39MOL   H76335039   6.024   3.234   3.248 -1.2089  1.1856 -1.6774
   39MOL   H76435040   5.825   3.237   3.124  0.5391 -0.1880 -1.7362
   39MOL   H76535041   5.760   2.817   3.226  1.1425 -0.4431 -1.3225
   39MOL   H76635042   5.981   2.816   3.326 -0.0019 -0.4314 -0.7509
   39MOL   C76735043   5.556   3.144   3.136  0.0778  0.4269 -0.8717
   39MOL   C76835044   5.568   3.283   3.103  0.2202  0.0820  0.6998
   39MOL   C76935045   5.480   3.374   3.165 -1.4495  0.2013  0.2251
   39MOL   C77035046   5.378   3.332   3.253  0.4809  0.7557 -0.0318
   39MOL   C77135047   5.370   3.191   3.278  0.3343 -0.1120  0.5216
   39MOL   C77235048   5.452   3.095   3.217 -0.6162  0.5284 -0.8004
   39MOL   S77335049   5.269   3.445   3.344  0.4274 -0.3907  0.0479
   39MOL   O77435050   5.285   3.578   3.275 -0.2690  0.8393 -0.1459
   39MOL   O77535051   5.307   3.428   3.484  0.5289  0.1582  0.4815
   39MOL   C77635052   5.105   3.380   3.325 -0.0919  0.3173  0.0943
   39MOL   C77735053   5.024   3.425   3.217 -0.2457  0.2495  0.3006
   39MOL   C77835054   4.893   3.375   3.205  0.5671  0.0291  0.2408
   39MOL   C77935055   4.843   3.284   3.300  0.8156  0.0516 -0.1490
   39MOL   C78035056   4.924   3.239   3.408  0.5737 -0.4576  0.7060
   39MOL   C78135057   5.054   3.289   3.423  0.1498 -0.6735  0.6187
   39MOL   O78235058   4.718   3.220   3.279  0.0863 -0.0049  0.9957
   39MOL   C78335059   4.630   3.214   3.379 -0.0570 -0.1132  0.3719
   39MOL   C78435060   4.625   3.320   3.474 -0.5730  0.3537  0.0522
   39MOL   C78535061   4.533   3.314   3.579  0.0640  0.2612 -0.7206
   39MOL   C78635062   4.441   3.209   3.586 -0.1952 -0.2137 -0.5684
   39MOL   C78735063   4.442   3.107   3.488 -0.7774 -0.2435  0.1098
   39MOL   C78835064   4.540   3.106   3.388  1.1458 -0.5727 -0.8602
   39MOL   C78935065   4.331   3.206   3.690  0.4394  0.1931  0.4402
   39MOL   C79035066   4.210   3.136   3.669  0.0714 -0.3194  0.0268
   39MOL   C79135067   4.111   3.123   3.768 -0.3526 -0.1538 -0.6249
   39MOL   C79235068   4.123   3.202   3.887  0.1848 -0.1694 -0.2006
   39MOL   C79335069   4.250   3.256   3.917  0.3308 -0.5919  0.6764
   39MOL   C79435070   4.355   3.255   3.820  0.8979  0.6700 -0.8069
   39MOL   O79535071   4.026   3.196   3.978 -0.9547  0.3059  0.1759
   39MOL   H79635072   5.648   3.320   3.041 -1.3588  0.8840 -0.8952
   39MOL   H79735073   5.476   3.480   3.145 -0.2160  0.6206  2.1196
   39MOL   H79835074   5.296   3.148   3.345 -0.8903  1.7894  0.4290
   39MOL   H79935075   5.445   2.994   3.253  4.0660  0.5559  0.4900
   39MOL   H80035076   5.059   3.493   3.141 -0.1877  0.0271  0.1259
   39MOL   H80135077   4.821   3.404   3.130 -0.2251  0.1765  1.0357
   39MOL   H80235078   4.878   3.164   3.471 -0.1786  1.7194  2.8359
   39MOL   H80335079   5.119   3.263   3.505 -0.4227 -0.4246  1.1572
   39MOL   H80435080   4.698   3.399   3.478  1.1524 -1.3053  2.1300
   39MOL   H80535081   4.539   3.398   3.646  0.3682 -0.1440 -0.2264
   39MOL   H80635082   4.367   3.029   3.484 -1.5842  0.5014  0.5667
   39MOL   H80735083   4.531   3.018   3.326 -3.2222 -1.2878  0.6448
   39MOL   H80835084   4.196   3.079   3.579  0.5103  0.9476 -0.8511
   39MOL   H80935085   4.023   3.062   3.758  0.0388 -0.8821  0.2647
   39MOL   H81035086   4.268   3.314   4.006  0.0953 -0.3595  0.5732
   39MOL   H81135087   4.442   3.311   3.850 -0.3431  1.8681  0.7036
   39MOL   C81235088   3.988   3.310   4.032 -0.1636  0.8857  0.7442
   39MOL   C81335089   3.923   3.416   3.964  0.3267 -0.5211  0.7635
   39MOL   C81435090   3.878   3.527   4.031 -0.1252 -0.4943 -0.7944
   39MOL   C81535091   3.890   3.543   4.170 -0.3256  0.6359  0.0142
   39MOL   C81635092   3.964   3.442   4.237 -0.2083 -0.2083 -0.0451
   39MOL   C81735093   4.008   3.325   4.167 -0.6206  0.0709  0.3328
   39MOL   S81835094   3.815   3.676   4.258  0.4830 -0.2781 -0.1839
   39MOL   O81935095   3.835   3.801   4.181 -0.3027  0.3464  0.5563
   39MOL   O82035096   3.871   3.666   4.392  0.0758 -1.1024  0.4702
   39MOL   C82135097   3.640   3.641   4.259 -0.7828  0.6338 -0.0456
   39MOL   C82235098   3.575   3.585   4.372 -0.2139 -0.0497  0.1261
   39MOL   C82335099   3.437   3.559   4.373  0.7020  0.1141  1.0969
   39MOL   C82435100   3.358   3.586   4.256  0.5949  0.1961  0.4896
   39MOL   C82535101   3.424   3.649   4.148  0.4796  0.8660 -0.2147
   39MOL   C82635102   3.559   3.670   4.143  0.0482 -0.8776 -0.1448
   39MOL   O82735103   3.226   3.544   4.254 -0.1155 -0.1008 -0.5478
   39MOL   C82835104   3.180   3.494   4.132  0.2178 -0.3572  0.0290
   39MOL   C82935105   3.090   3.569   4.059 -0.2567 -0.0030 -0.8069
   39MOL   C83035106   3.045   3.523   3.933  0.4267 -0.2478 -0.6140
   39MOL   C83135107   3.098   3.402   3.882 -0.0705  0.4219 -0.2884
   39MOL   C83235108   3.191   3.328   3.963  0.5037  0.4786 -0.1431
   39MOL   C83335109   3.228   3.374   4.089  0.3064  0.2993  0.4612
   39MOL   C83435110   3.050   3.353   3.751 -0.0212 -0.0778 -0.4097
   39MOL   C83535111   3.070   3.434   3.638 -0.4429  0.4695 -0.1097
   39MOL   C83635112   3.026   3.385   3.512  0.1380 -0.3217  0.6437
   39MOL   C83735113   2.978   3.257   3.493 -0.0864  0.2219 -0.0816
   39MOL   C83835114   2.954   3.181   3.607  0.0095 -0.1774 -1.3650
   39MOL   C83935115   2.986   3.229   3.734 -1.3463  0.5503 -0.7831
   39MOL   O84035116   2.925   3.228   3.367  0.3534  0.0811  0.0649
   39MOL   H84135117   3.907   3.415   3.857 -1.5998 -2.8726  1.0336
   39MOL   H84235118   3.819   3.601   3.980  0.1949  1.0299  1.0223
   39MOL   H84335119   3.991   3.450   4.341  0.3994  1.1749 -0.3021
   39MOL   H84435120   4.047   3.244   4.226  3.3219  1.9139  0.4186
   39MOL   H84535121   3.633   3.570   4.462 -1.5321  2.2894  1.4189
   39MOL   H84635122   3.391   3.500   4.451  0.3390 -1.5522 -0.3387
   39MOL   H84735123   3.366   3.671   4.059  2.3839  1.6423 -1.2942
   39MOL   H84835124   3.598   3.725   4.059  0.1856 -0.3187  0.2873
   39MOL   H84935125   3.057   3.658   4.109 -0.1753  0.4839 -1.6242
   39MOL   H85035126   2.970   3.576   3.876 -0.4897 -1.9710 -1.0395
   39MOL   H85135127   3.229   3.235   3.921  1.9693  1.9248 -2.1338
   39MOL   H85235128   3.305   3.326   4.147  0.5444  0.3242  0.1653
   39MOL   H85335129   3.119   3.529   3.648 -0.1949  0.1668  1.8682
   39MOL   H85435130   3.038   3.442   3.421 -1.3730 -0.9103  0.0578
   39MOL   H85535131   2.910   3.083   3.602  0.6864 -0.6086  0.5318
   39MOL   H85635132   2.971   3.162   3.817  1.7382 -1.0687 -1.4517
   39MOL   C85735133   2.974   3.112   3.313 -0.0280 -0.5111  0.2604
   39MOL   C85835134   3.115   3.089   3.301 -0.4947 -0.5690  0.1459
   39MOL   C85935135   3.160   2.979   3.225 -0.1654 -0.1032 -0.4470
   39MOL   C86035136   3.069   2.880   3.178  0.6768  0.5817  0.5412
   39MOL   C86135137   2.929   2.900   3.191  0.1547 -0.7486 -0.1996
   39MOL   C86235138   2.881   3.017   3.259 -0.4536 -0.1529  0.6891
   39MOL   S86335139   3.114   2.723   3.101 -0.0492  0.1058  0.3596
   39MOL   O86435140   3.095   2.734   2.955  0.1531 -0.1261  0.1268
   39MOL   O86535141   3.038   2.620   3.176  0.4497  0.6681 -0.4021
   39MOL   C86635142   3.288   2.677   3.147  0.0235  0.2635 -0.2577
   39MOL   C86735143   3.318   2.643   3.278 -0.3033  0.5293  0.2183
   39MOL   C86835144   3.443   2.594   3.310  0.1579  0.0677 -0.1001
   39MOL   C86935145   3.543   2.582   3.215 -0.2630 -0.5712 -0.0032
   39MOL   C87035146   3.512   2.606   3.079  0.0118  0.3835 -0.1381
   39MOL   C87135147   3.383   2.657   3.047  0.2829  0.2916  0.0276
   39MOL   O87235148   3.660   2.519   3.253  0.0867  0.2806 -0.1024
   39MOL   C87335149   3.730   2.444   3.160 -0.1772  0.1699  0.7457
   39MOL   C87435150   3.839   2.502   3.090 -0.0818 -0.0429  0.0996
   39MOL   C87535151   3.897   2.437   2.986 -0.1924  0.6511  0.1355
   39MOL   C87635152   3.855   2.303   2.949 -0.3284 -1.0716 -0.5475
   39MOL   C87735153   3.745   2.246   3.020  0.2699 -0.9812 -0.5393
   39MOL   C87835154   3.689   2.312   3.129  0.9029 -0.9008  0.3191
   39MOL   C87935155   3.929   2.230   2.838  0.6574  1.1989  0.0447
   39MOL   C88035156   3.992   2.298   2.732  0.2319  0.5350 -0.5683
   39MOL   C88135157   4.042   2.230   2.622  0.4584 -0.5525  0.0249
   39MOL   C88235158   4.033   2.092   2.615  0.2277 -0.6839 -0.7869
   39MOL   C88335159   3.985   2.019   2.724  0.3139  0.0146  0.0001
   39MOL   C88435160   3.928   2.086   2.838 -0.0005 -0.0510 -0.0375
   39MOL   O88535161   4.074   2.036   2.497  0.3124  0.4826 -0.1709
   39MOL   H88635162   3.194   3.157   3.327  0.8243 -1.4224 -1.5410
   39MOL   H88735163   3.266   2.964   3.214 -0.1785  0.2956 -1.1489
   39MOL   H88835164   2.861   2.834   3.140 -1.2822  0.8668 -0.4406
   39MOL   H88935165   2.777   3.041   3.273 -0.1746  0.9162  0.9619
   39MOL   H89035166   3.248   2.673   3.354  0.2357 -1.3313  1.4671
   39MOL   H89135167   3.458   2.551   3.409 -1.4408  1.0521  0.5892
   39MOL   H89235168   3.595   2.597   3.010  0.0196 -0.3657 -0.0356
   39MOL   H89335169   3.349   2.680   2.947  1.0019 -0.2073 -0.3384
   39MOL   H89435170   3.873   2.596   3.130 -0.4389 -0.6255  1.8072
   39MOL   H89535171   3.986   2.473   2.936  0.7558 -1.1407  0.4890
   39MOL   H89635172   3.710   2.146   3.000 -2.2600 -0.3794  0.7367
   39MOL   H89735173   3.606   2.265   3.181 -0.1051  2.0496  1.4490
   39MOL   H89835174   3.997   2.406   2.739  0.2625  0.4551  0.7514
   39MOL   H89935175   4.093   2.283   2.543  1.0702 -1.3617 -0.1361
   39MOL   H90035176   3.995   1.912   2.718  0.2135 -0.0771  1.3916
   39MOL   H90135177   3.886   2.027   2.919 -0.7333  1.0049  0.3728
   39MOL   H90235178   4.056   2.098   2.428 -0.1721 -0.0581 -0.5285
   40MOL     C135179   6.326   5.492   2.302 -0.1875  0.7032 -0.0814
   40MOL     C235180   6.430   5.394   2.307  0.5352  0.3143 -0.4826
   40MOL     C335181   6.486   5.346   2.188 -0.1934 -0.5925  0.3544
   40MOL     C435182   6.433   5.382   2.061 -0.0473  0.0665  0.0663
   40MOL     C535183   6.325   5.467   2.053 -0.5766  0.1009  0.5334
   40MOL     C635184   6.269   5.520   2.169  0.5434  0.4353  0.6693
   40MOL     S735185   6.510   5.313   1.909 -0.0073  0.1201  0.1337
   40MOL     O835186   6.606   5.413   1.864 -0.1902  0.8344 -0.3285
   40MOL     O935187   6.407   5.278   1.811 -0.6561 -0.2332  0.0351
   40MOL    C1035188   6.598   5.172   1.963 -0.0837 -0.0675 -0.2819
   40MOL    C1135189   6.738   5.171   1.977  0.3889  0.2912 -0.9344
   40MOL    C1235190   6.808   5.062   2.020 -0.3442 -0.2742  0.1435
   40MOL    C1335191   6.738   4.946   2.056 -0.2946  0.2223 -0.1876
   40MOL    C1435192   6.597   4.942   2.032  0.2455  1.1643  0.0325
   40MOL    C1535193   6.527   5.047   1.985 -0.4375  0.0283  0.1123
   40MOL    O1635194   6.807   4.834   2.105 -0.2026  0.2814 -0.0567
   40MOL    C1735195   6.765   4.704   2.080 -0.1612  0.0495 -1.1162
   40MOL    C1835196   6.772   4.613   2.192 -0.0395  0.1482  0.4752
   40MOL    C1935197   6.731   4.476   2.177 -0.2019  0.4635  0.3857
   40MOL    C2035198   6.681   4.429   2.052  0.5005 -0.5849  0.2641
   40MOL    C2135199   6.656   4.529   1.956  0.3142 -0.7055 -0.4209
   40MOL    C2235200   6.701   4.661   1.964  0.4360 -0.1839  0.2122
   40MOL    C2335201   6.628   4.290   2.033  0.1476  0.1871 -0.0689
   40MOL    C2435202   6.707   4.178   2.069 -0.0976  0.0201 -0.6559
   40MOL    C2535203   6.662   4.048   2.030 -0.5399  0.2224  0.2417
   40MOL    C2635204   6.535   4.031   1.970  0.2106  0.3400 -0.7028
   40MOL    C2735205   6.456   4.145   1.946  0.0694  0.3602  0.7135
   40MOL    C2835206   6.501   4.272   1.973  0.2582 -0.4103 -0.3850
   40MOL    O2935207   6.490   3.906   1.937 -0.0308  0.1214 -0.2053
   40MOL    H3035208   6.458   5.364   2.407 -4.9028 -3.1674  0.2116
   40MOL    H3135209   6.561   5.269   2.189 -2.8041 -3.2479 -1.2619
   40MOL    H3235210   6.281   5.480   1.955 -1.5933  0.9283  1.0898
   40MOL    H3335211   6.171   5.564   2.157 -1.4575 -2.2079  5.6534
   40MOL    H3435212   6.786   5.262   1.943  2.9867 -0.9307 -0.6157
   40MOL    H3535213   6.916   5.062   2.026 -0.4243  1.5820  2.0580
   40MOL    H3635214   6.551   4.850   2.065 -0.3416  2.0279  1.6992
   40MOL    H3735215   6.420   5.039   1.972 -0.0896 -3.2055 -1.4098
   40MOL    H3835216   6.823   4.650   2.279 -0.7708  0.8058  0.6291
   40MOL    H3935217   6.740   4.405   2.258 -1.2804 -0.1338 -0.0054
   40MOL    H4035218   6.606   4.502   1.863  0.6918 -2.8121 -0.0346
   40MOL    H4135219   6.701   4.729   1.880  0.4822 -2.9204 -2.0567
   40MOL    H4235220   6.807   4.184   2.111 -1.3346 -0.8329  2.5492
   40MOL    H4335221   6.721   3.963   2.060  3.2601  2.2262 -1.1430
   40MOL    H4435222   6.357   4.132   1.905  0.8881  0.2299 -1.2480
   40MOL    H4535223   6.445   4.363   1.956  1.2028  0.3365  0.4613
   40MOL    H4635224   6.278   5.521   2.395  0.1679  3.0694 -0.6139
   40MOL    C4735225   6.482   3.813   2.037  0.8110  0.0822 -0.4577
   40MOL    C4835226   6.479   3.839   2.172  0.5652  0.0288 -0.4578
   40MOL    C4935227   6.480   3.734   2.268 -0.0858  0.7237 -0.7727
   40MOL    C5035228   6.474   3.602   2.220  0.5066  0.1297  0.4345
   40MOL    C5135229   6.470   3.578   2.084  0.7374  0.3781  0.4576
   40MOL    C5235230   6.477   3.683   1.989 -0.0554  0.5826 -0.0648
   40MOL    S5335231   6.458   3.471   2.334 -0.0571 -0.5817 -0.0446
   40MOL    O5435232   6.322   3.405   2.322  0.2658 -0.0734 -0.8621
   40MOL    O5535233   6.490   3.532   2.462 -0.5240  0.1390  0.2738
   40MOL    C5635234   6.583   3.354   2.291 -0.0649 -0.1549 -0.1312
   40MOL    C5735235   6.544   3.230   2.261  0.0951 -0.1961  0.4173
   40MOL    C5835236   6.639   3.137   2.211  0.3768  0.8188 -0.8403
   40MOL    C5935237   6.779   3.177   2.205  0.5715 -0.5023  0.0681
   40MOL    C6035238   6.816   3.306   2.247  0.0955 -0.6948  0.0301
   40MOL    C6135239   6.714   3.391   2.294 -0.3060 -0.0598 -0.2956
   40MOL    O6235240   6.875   3.083   2.162  0.0431 -0.3755 -0.1160
   40MOL    C6335241   6.849   3.017   2.047 -0.4458  0.3228 -0.3288
   40MOL    C6435242   6.894   3.071   1.929 -0.6552  0.1489  0.3840
   40MOL    C6535243   6.859   3.005   1.811 -0.3704 -0.5154 -0.0855
   40MOL    C6635244   6.789   2.887   1.802  1.0485 -0.8468  0.4779
   40MOL    C6735245   6.752   2.826   1.924 -0.3527  0.3507 -0.3506
   40MOL    C6835246   6.778   2.890   2.044 -0.0147 -0.1273  0.4515
   40MOL    C6935247   6.769   2.811   1.674 -0.0914 -0.4885 -0.3540
   40MOL    C7035248   6.710   2.871   1.559  0.2459  0.0429  0.1843
   40MOL    C7135249   6.711   2.810   1.435  0.7447  0.5077 -0.1701
   40MOL    C7235250   6.764   2.683   1.425  1.1935 -0.1924 -0.3062
   40MOL    C7335251   6.810   2.618   1.543  0.4503 -0.1177 -0.3273
   40MOL    C7435252   6.815   2.678   1.670  0.2633 -0.2331  0.4698
   40MOL    O7535253   6.763   2.625   1.302 -0.3227  0.1018 -0.0408
   40MOL    H7635254   6.481   3.944   2.198  0.4297 -0.0625 -0.0769
   40MOL    H7735255   6.488   3.763   2.372 -1.3395  2.2558 -1.0747
   40MOL    H7835256   6.472   3.478   2.043  2.7999  1.0019 -1.0182
   40MOL    H7935257   6.486   3.663   1.883  0.4580  1.3193 -0.1623
   40MOL    H8035258   6.444   3.192   2.277 -0.5265  0.8782 -0.8686
   40MOL    H8135259   6.614   3.037   2.179  0.4841  0.4955  0.0892
   40MOL    H8235260   6.919   3.337   2.259 -0.4760  0.8737  1.0184
   40MOL    H8335261   6.736   3.486   2.339  1.1529  0.0317 -1.1659
   40MOL    H8435262   6.939   3.169   1.923  1.9203 -0.8809  2.1950
   40MOL    H8535263   6.900   3.053   1.723 -1.0553  0.2455 -0.0074
   40MOL    H8635264   6.698   2.733   1.937  2.0517 -0.9267  0.7791
   40MOL    H8735265   6.725   2.845   2.127 -3.4690  1.2536 -0.8697
   40MOL    H8835266   6.673   2.972   1.569 -1.3507 -0.0027 -4.2420
   40MOL    H8935267   6.660   2.865   1.357 -1.7376 -1.7524 -0.2002
   40MOL    H9035268   6.841   2.514   1.537  3.0333  0.6992 -2.3804
   40MOL    H9135269   6.862   2.632   1.756  1.3463 -0.3635 -0.1817
   40MOL    C9235270   6.871   2.554   1.257  0.1185 -0.0643 -0.0709
   40MOL    C9335271   6.995   2.620   1.248 -0.0722 -0.7648  0.2428
   40MOL    C9435272   7.116   2.559   1.205 -0.1165  0.0896  0.6602
   40MOL    C9535273   7.106   2.428   1.159  0.1818  0.1456 -0.6100
   40MOL    C9635274   6.984   2.355   1.171  0.1701  0.0604  0.0438
   40MOL    C9735275   6.873   2.414   1.225  0.2740  0.3006  0.5058
   40MOL    S9835276   7.254   2.337   1.108 -0.3851  0.3365 -0.4546
   40MOL    O9935277   7.342   2.308   1.222 -0.0815  0.0504 -0.3055
   40MOL   O10035278   7.304   2.424   1.000  0.0202 -0.5314  0.2834
   40MOL   C10135279   7.207   2.171   1.037  0.0072 -0.4307  0.1714
   40MOL   C10235280   7.117   2.173   0.930  0.2128 -0.1797 -0.3564
   40MOL   C10335281   7.087   2.052   0.868 -0.3752  0.2466 -0.6034
   40MOL   C10435282   7.141   1.932   0.921  0.0718  0.1208 -0.5230
   40MOL   C10535283   7.233   1.931   1.030  0.0563  0.5956 -0.0521
   40MOL   C10635284   7.270   2.053   1.085  0.7891  0.1453 -0.6411
   40MOL   O10735285   7.097   1.813   0.863 -0.3092  0.2833  0.0824
   40MOL   C10835286   7.095   1.804   0.727  0.2916 -0.2385 -0.4621
   40MOL   C10935287   7.198   1.844   0.639  0.2239  0.6215  0.9125
   40MOL   C11035288   7.190   1.811   0.504  0.1374 -0.5410  0.6278
   40MOL   C11135289   7.088   1.737   0.452  0.5215 -0.0407  0.0781
   40MOL   C11235290   6.983   1.696   0.538  0.5763 -0.2711  1.0356
   40MOL   C11335291   6.984   1.734   0.673  0.2517  0.6543  0.2926
   40MOL   C11435292   7.092   1.696   0.314  1.1464  0.2514  0.1015
   40MOL   C11535293   6.980   1.728   0.226 -0.1169 -0.1943  0.4034
   40MOL   C11635294   6.988   1.722   0.088  0.2416 -0.9021  0.8924
   40MOL   C11735295   7.107   1.662   0.033  0.3609 -1.0460 -0.5467
   40MOL   C11835296   7.211   1.619   0.112  0.0941 -0.4541 -0.3450
   40MOL   C11935297   7.205   1.644   0.247  0.9001  0.2894 -0.4314
   40MOL   O12035298   7.125   1.666   8.259 -0.0567 -0.3523  0.0691
   40MOL   H12135299   7.000   2.722   1.281 -1.5513 -0.0762 -1.5697
   40MOL   H12235300   7.213   2.605   1.193 -0.2377 -0.2796 -2.1282
   40MOL   H12335301   6.974   2.251   1.144  0.2837 -0.7873  3.0803
   40MOL   H12435302   6.780   2.362   1.240  1.1859 -1.1956  1.1288
   40MOL   H12535303   7.079   2.268   0.897  1.7054 -0.3716 -2.7014
   40MOL   H12635304   7.013   2.062   0.790 -0.8367  1.2952 -0.0361
   40MOL   H12735305   7.283   1.840   1.061 -0.4932  0.8801  1.7298
   40MOL   H12835306   7.345   2.058   1.162  0.2413 -0.8194 -0.0412
   40MOL   H12935307   7.285   1.893   0.679  0.2229  0.4439  1.1330
   40MOL   H13035308   7.283   1.828   0.451 -0.2760 -3.0346 -1.0120
   40MOL   H13135309   6.896   1.647   0.498 -0.0353  1.6261 -0.0750
   40MOL   H13235310   6.905   1.705   0.741 -0.4039 -1.1897 -1.2154
   40MOL   H13335311   6.886   1.760   0.268 -0.7236  0.1748 -1.2143
   40MOL   H13435312   6.906   1.760   0.029  0.6803  0.0866  0.9114
   40MOL   H13535313   7.306   1.589   0.072  0.1218  1.2824 -1.6480
   40MOL   H13635314   7.293   1.619   0.304 -0.4497  0.5653  1.7963
   40MOL   C13735315   7.174   1.782   8.196  0.0091  0.2884 -0.6025
   40MOL   C13835316   7.270   1.773   8.093  0.4132 -0.1885 -0.4166
   40MOL   C13935317   7.327   1.886   8.032 -0.3819  0.3364 -0.1905
   40MOL   C14035318   7.280   2.013   8.063 -0.0294  0.9478  0.0935
   40MOL   C14135319   7.171   2.028   8.151  0.2791  0.3158  0.8732
   40MOL   C14235320   7.121   1.910   8.219  0.5015  0.3625  0.3384
   40MOL   S14335321   7.349   2.164   7.996 -0.5635  0.1117  0.3754
   40MOL   O14435322   7.247   2.264   8.008 -0.4095  0.0551 -0.3441
   40MOL   O14535323   7.409   2.149   7.860  0.2264 -0.4671 -0.0979
   40MOL   C14635324   7.487   2.202   8.091 -0.3552  0.5108  0.1175
   40MOL   C14735325   7.506   2.334   8.140  0.1388 -0.6050 -0.9770
   40MOL   C14835326   7.620   2.357   8.216 -0.8074  0.6610  0.3941
   40MOL   C14935327   7.727   2.263   8.228  1.1880 -0.1936 -0.5361
   40MOL   C15035328   7.703   2.132   8.186 -0.3148 -0.6649 -0.1037
   40MOL   C15135329   7.578   2.100   8.124 -0.6576 -0.2242  0.4340
   40MOL   O15235330   7.844   2.299   8.280  0.6248 -0.4380  0.2919
   40MOL   C15335331   7.956   2.259   8.213 -1.1745  0.0628 -0.5028
   40MOL   C15435332   8.012   2.337   8.113 -0.0526  0.2873  0.0160
   40MOL   C15535333   8.139   2.308   8.068 -0.1152 -0.3142  0.1633
   40MOL   C15635334   8.219   2.200   8.121  0.2847  0.4561 -0.0412
   40MOL   C15735335   8.153   2.120   8.220 -0.0623 -0.0030  0.0667
   40MOL   C15835336   8.028   2.155   8.269  0.6282 -0.0775  0.5131
   40MOL   C15935337   8.366   2.179   8.089 -0.3615  0.0284 -0.5496
   40MOL   C16035338   0.078   2.282   8.023 -0.1188  0.7505  0.4749
   40MOL   C16135339   0.213   2.266   7.982  0.2144  0.3580 -0.0872
   40MOL   C16235340   0.278   2.146   8.015 -0.0680 -0.0202  0.3138
   40MOL   C16335341   0.207   2.037   8.063  0.6085 -0.6367  0.7228
   40MOL   C16435342   0.070   2.054   8.094  0.7213 -0.7262  0.1531
   40MOL   O16535343   0.413   2.129   7.986  0.1273  0.2080 -0.1767
   40MOL   H16635344   7.305   1.674   8.069  0.4095 -0.5593  1.0608
   40MOL   H16735345   7.404   1.875   7.956 -0.4627  1.2175 -0.3982
   40MOL   H16835346   7.130   2.124   8.179  0.9273  0.0639  2.7810
   40MOL   H16935347   7.035   1.923   8.283  1.4185  1.1111  1.4630
   40MOL   H17035348   7.438   2.414   8.118 -1.6436 -1.8966 -0.2926
   40MOL   H17135349   7.642   2.454   8.259 -1.8134  0.3945  1.5458
   40MOL   H17235350   7.777   2.054   8.200  1.4822  1.1170  0.5145
   40MOL   H17335351   7.559   2.004   8.078  1.1786 -0.3180 -0.1522
   40MOL   H17435352   7.947   2.411   8.070 -0.2359 -0.0276 -0.2499
   40MOL   H17535353   8.191   2.373   7.999 -1.3950  0.3044 -0.2452
   40MOL   H17635354   8.203   2.034   8.262  2.0757  0.8290 -0.7568
   40MOL   H17735355   7.982   2.097   8.348  1.3187  1.9593  2.4823
   40MOL   H17835356   0.042   2.383   8.006 -0.4968  0.5938  0.3306
   40MOL   H17935357   0.265   2.346   7.933  1.0051 -0.2708 -0.2955
   40MOL   H18035358   0.245   1.936   8.064  1.9305 -0.2059 -1.7759
   40MOL   H18135359   0.025   1.960   8.124 -0.9549 -0.4911 -1.5510
   40MOL   C18235360   0.444   2.105   7.855  0.0971  0.3675  0.6010
   40MOL   C18335361   0.488   2.215   7.773 -0.1612  0.1565  0.0902
   40MOL   C18435362   0.524   2.182   7.636  0.8645  0.1056 -0.0695
   40MOL   C18535363   0.492   2.059   7.588 -0.4479 -0.4308  0.2528
   40MOL   C18635364   0.447   1.954   7.673  0.6648  0.4683  0.1452
   40MOL   C18735365   0.425   1.980   7.809 -0.3010 -0.3593 -0.6445
   40MOL   S18835366   0.499   2.038   7.412 -0.4795 -0.2786  0.3001
   40MOL   O18935367   0.408   1.930   7.375 -0.2651  0.1663 -0.0218
   40MOL   O19035368   0.638   2.036   7.368  0.0060 -0.3449 -0.5469
   40MOL   C19135369   0.424   2.188   7.345 -0.2248  0.1706 -0.0266
   40MOL   C19235370   0.314   2.244   7.405  0.5233  0.1494  0.8892
   40MOL   C19335371   0.250   2.356   7.344  0.1520  0.7418 -0.0674
   40MOL   C19435372   0.286   2.402   7.213 -0.0492  0.8478  0.0563
   40MOL   C19535373   0.391   2.340   7.146 -0.2120  0.1295 -0.0839
   40MOL   C19635374   0.457   2.228   7.210 -1.6096 -0.6740 -0.5364
   40MOL   O19735375   0.210   2.494   7.145 -0.3779 -0.1794  0.2812
   40MOL   C19835376   0.143   2.594   7.216 -0.4603 -0.9945  0.2029
   40MOL   C19935377   0.197   2.724   7.219 -0.1063 -0.4521 -0.5848
   40MOL   C20035378   0.136   2.830   7.289 -0.3713 -0.3431 -0.1623
   40MOL   C20135379   0.018   2.806   7.363 -0.0212 -0.4000  0.7282
   40MOL   C20235380   8.331   2.675   7.353  0.6325 -0.0832 -0.0308
   40MOL   C20335381   0.023   2.574   7.280 -0.1362 -0.0501 -0.1657
   40MOL   C20435382   8.320   2.907   7.448  0.7052 -0.2843  0.0874
   40MOL   C20535383   8.305   3.035   7.397  0.5966 -0.2408  0.3434
   40MOL   C20635384   8.250   3.137   7.483  1.1459 -0.6860  1.0937
   40MOL   C20735385   8.203   3.105   7.614 -0.5201  0.3244 -0.0100
   40MOL   C20835386   8.216   2.975   7.661 -0.3575 -0.5955 -0.1636
   40MOL   C20935387   8.265   2.876   7.576 -0.6593  1.2724 -0.0599
   40MOL   O21035388   8.137   3.200   7.689 -0.2514  0.0295 -0.0263
   40MOL   H21135389   0.511   2.312   7.813  2.4218 -0.5009  0.3117
   40MOL   H21235390   0.573   2.254   7.572  0.7252 -0.8460 -1.2394
   40MOL   H21335391   0.435   1.853   7.636 -0.3090  1.1227 -1.3843
   40MOL   H21435392   0.398   1.901   7.877 -0.0048 -0.1585 -0.2898
   40MOL   H21535393   0.277   2.220   7.503  0.1214 -1.4579  0.3592
   40MOL   H21635394   0.163   2.396   7.396 -0.5838  0.3945 -1.0236
   40MOL   H21735395   0.420   2.359   7.044  1.2177  0.4603  0.3632
   40MOL   H21835396   0.542   2.176   7.169 -1.1643 -0.7692  0.4786
   40MOL   H21935397   0.290   2.744   7.168 -1.3529 -1.7430 -3.4810
   40MOL   H22035398   0.172   2.932   7.283 -0.1458 -0.3187  1.4060
   40MOL   H22135399   8.250   2.648   7.419  0.6744  0.1913  0.1316
   40MOL   H22235400   8.346   2.475   7.284  1.6537 -0.8903 -1.1717
   40MOL   H22335401   8.336   3.059   7.296  0.6057 -1.8491 -0.0614
   40MOL   H22435402   8.235   3.236   7.444  0.8003 -0.0488  2.8226
   40MOL   H22535403   8.184   2.939   7.759 -0.1530 -1.0389 -0.2586
   40MOL   H22635404   8.273   2.774   7.610  1.5425  1.0437 -1.1984
   40MOL   C22735405   8.012   3.239   7.669 -0.0342  0.1026 -0.6747
   40MOL   C22835406   7.938   3.287   7.788 -0.9061 -0.1039 -0.0858
   40MOL   C22935407   7.810   3.342   7.765  0.1191  0.1265 -0.5423
   40MOL   C23035408   7.747   3.337   7.639  0.5186 -0.7241  0.4738
   40MOL   C23135409   7.816   3.275   7.532  0.2042  0.2505  0.1399
   40MOL   C23235410   7.947   3.221   7.548 -0.0363  0.8369 -0.2686
   40MOL   S23335411   7.577   3.393   7.614  0.2751  0.1293 -0.3115
   40MOL   O23435412   7.506   3.347   7.735 -0.5806  0.1260 -0.4186
   40MOL   O23535413   7.542   3.357   7.478 -0.1309 -0.7097 -0.6813
   40MOL   C23635414   7.587   3.572   7.629 -0.1625 -0.7106 -0.7241
   40MOL   C23735415   7.638   3.634   7.739  0.3651 -0.0983  0.4783
   40MOL   C23835416   7.651   3.772   7.741  0.1704  0.3276  0.6821
   40MOL   C23935417   7.594   3.848   7.638  0.1029 -0.2644  0.1339
   40MOL   C24035418   7.544   3.786   7.522 -0.3990  0.3177  0.4151
   40MOL   C24135419   7.536   3.641   7.511  0.1518 -0.8357 -1.1425
   40MOL   O24235420   7.603   3.984   7.658  0.2029  0.2030 -0.1972
   40MOL   C24335421   7.684   4.059   7.577  0.0045  0.3005 -0.0815
   40MOL   C24435422   7.782   4.017   7.488 -0.8358  0.6409 -0.6936
   40MOL   C24535423   7.864   4.112   7.432 -0.6126  0.4272  0.4057
   40MOL   C24635424   7.853   4.250   7.459 -0.7602 -1.1451 -0.4821
   40MOL   C24735425   7.744   4.292   7.542  0.2937 -0.5273 -0.3070
   40MOL   C24835426   7.658   4.199   7.598 -0.1945 -0.7946  0.7520
   40MOL   C24935427   7.935   4.343   7.384  0.4120 -0.6271  0.1380
   40MOL   C25035428   8.075   4.331   7.370  0.3888 -0.0584 -0.7847
   40MOL   C25135429   8.149   4.424   7.299 -0.7268 -0.0857 -0.3279
   40MOL   C25235430   8.086   4.524   7.224  0.4235 -0.2291 -0.8336
   40MOL   C25335431   7.941   4.534   7.228 -0.6389  0.6385  0.1109
   40MOL   C25435432   7.868   4.449   7.314 -0.2481  1.3793  0.1369
   40MOL   O25535433   8.173   4.619   7.163  0.7607  0.2066  0.2093
   40MOL   H25635434   7.981   3.295   7.887 -0.5374  0.5593 -0.2974
   40MOL   H25735435   7.770   3.382   7.858  0.9736 -0.3076  0.0206
   40MOL   H25835436   7.767   3.254   7.438  1.5177 -1.1989 -0.2428
   40MOL   H25935437   7.994   3.152   7.479 -2.4053 -1.4993  0.3709
   40MOL   H26035438   7.672   3.570   7.819  1.7332 -0.6267 -0.5053
   40MOL   H26135439   7.689   3.820   7.830 -0.8973  0.4637  1.0794
   40MOL   H26235440   7.513   3.848   7.439 -1.1704 -0.9229 -0.2533
   40MOL   H26335441   7.509   3.583   7.425 -0.4174 -1.2866 -0.6614
   40MOL   H26435442   7.806   3.912   7.480  1.4083  1.1301 -0.7604
   40MOL   H26535443   7.941   4.071   7.369 -1.1674 -1.8016  1.1273
   40MOL   H26635444   7.728   4.399   7.552  2.2335 -0.3020  0.6666
   40MOL   H26735445   7.581   4.231   7.668 -1.4174 -0.5754 -0.6695
   40MOL   H26835446   8.123   4.257   7.433 -1.0099  0.6859  1.2028
   40MOL   H26935447   8.257   4.420   7.299 -0.7908 -2.6602 -0.4980
   40MOL   H27035448   7.893   4.604   7.161  0.7227  0.1072 -1.4485
   40MOL   H27135449   7.761   4.454   7.328 -0.5990 -1.6800 -1.0344
   40MOL   C27235450   8.122   4.678   7.054  0.2586  0.0156 -0.2155
   40MOL   C27335451   8.085   4.814   7.067  0.3278 -0.3756  0.5247
   40MOL   C27435452   8.008   4.883   6.966 -0.8197 -0.2950 -1.0069
   40MOL   C27535453   7.997   4.812   6.846  0.5911 -0.0969  0.5458
   40MOL   C27635454   8.050   4.677   6.828 -0.2269 -0.0223  0.1035
   40MOL   C27735455   8.107   4.605   6.934 -0.0881 -0.2939 -1.3672
   40MOL   S27835456   7.918   4.901   6.711  0.1381 -0.0053  0.1042
   40MOL   O27935457   7.976   4.854   6.582 -0.5258  0.5765 -0.0690
   40MOL   O28035458   7.905   5.046   6.751  0.3895  0.1757  0.9517
   40MOL   C28135459   7.750   4.827   6.728 -1.5573  0.1490  0.3895
   40MOL   C28235460   7.693   4.753   6.626  0.0695  0.5951 -0.1704
   40MOL   C28335461   7.562   4.718   6.634 -0.1098 -0.2938  0.4087
   40MOL   C28435462   7.486   4.741   6.751  0.7423  0.5293 -0.7756
   40MOL   C28535463   7.548   4.810   6.863  0.2222 -0.3517  0.6065
   40MOL   C28635464   7.682   4.846   6.850  0.2203 -0.6508  0.3289
   40MOL   O28735465   7.353   4.707   6.746  0.5711 -0.5355  0.3018
   40MOL   C28835466   7.259   4.805   6.749  0.3644 -0.6365 -0.6559
   40MOL   C28935467   7.190   4.822   6.874  0.0978 -0.3876  0.5538
   40MOL   C29035468   7.079   4.904   6.879 -0.2379 -1.1114 -0.1412
   40MOL   C29135469   7.040   4.991   6.776 -0.4863  0.7899  0.0914
   40MOL   C29235470   7.118   4.977   6.661 -0.3174  0.2254 -0.2598
   40MOL   C29335471   7.225   4.884   6.633  0.0785 -0.2906  0.1839
   40MOL   C29435472   6.950   5.106   6.794  0.9038  0.4905 -0.4595
   40MOL   C29535473   6.983   5.234   6.733  0.3794  0.3625 -0.3990
   40MOL   C29635474   6.889   5.335   6.742  0.4687 -0.5598  0.4933
   40MOL   C29735475   6.773   5.330   6.819 -0.0463 -0.0961  0.4766
   40MOL   C29835476   6.748   5.203   6.882  0.8470  0.4019  0.2933
   40MOL   C29935477   6.829   5.090   6.867 -0.1255 -0.1053 -0.3839
   40MOL   O30035478   6.702   5.447   6.827  0.3956  0.3424  0.1690
   40MOL   H30135479   8.108   4.871   7.156  0.6897  1.2230 -0.5696
   40MOL   H30235480   7.988   4.989   6.967  1.0418  0.1254 -3.3090
   40MOL   H30335481   8.041   4.627   6.733  3.2489  1.6330 -1.1666
   40MOL   H30435482   8.140   4.503   6.923 -1.0837 -1.1062  2.4000
   40MOL   H30535483   7.752   4.729   6.539 -3.1380 -1.4119 -1.9004
   40MOL   H30635484   7.511   4.668   6.553  0.5018  0.3502 -0.3790
   40MOL   H30735485   7.485   4.833   6.947 -0.1704 -0.1857  0.2682
   40MOL   H30835486   7.732   4.897   6.931 -0.6893  3.9233 -1.8079
   40MOL   H30935487   7.217   4.759   6.957 -1.2942  0.4311  1.6485
   40MOL   H31035488   7.040   4.930   6.976  3.1506  2.6280  0.3305
   40MOL   H31135489   7.109   5.050   6.582 -1.0328  1.8855  1.3330
   40MOL   H31235490   7.265   4.874   6.533 -1.0916 -0.2672 -0.2988
   40MOL   H31335491   7.071   5.246   6.672 -0.4597  4.6016 -0.8711
   40MOL   H31435492   6.920   5.427   6.693  0.9153 -2.1697 -2.3633
   40MOL   H31535493   6.662   5.185   6.944  1.1825 -1.0581  0.3570
   40MOL   H31635494   6.799   4.996   6.911  0.9915 -0.7763 -1.0015
   40MOL   C31735495   6.568   5.428   6.849 -0.9660  0.3690 -0.9586
   40MOL   C31835496   6.486   5.375   6.745 -0.4866  0.4381 -0.2033
   40MOL   C31935497   6.355   5.334   6.775  0.4781  0.7148  0.1447
   40MOL   C32035498   6.313   5.351   6.911  0.0980  0.1109  0.1488
   40MOL   C32135499   6.399   5.401   7.013 -0.3586 -0.0381  0.0118
   40MOL   C32235500   6.523   5.448   6.979 -0.1675 -0.3822  0.2604
   40MOL   S32335501   6.144   5.313   6.954 -0.1706 -0.3843 -0.2939
   40MOL   O32435502   6.058   5.350   6.845 -0.0383  0.3953 -0.3283
   40MOL   O32535503   6.119   5.378   7.080 -0.0861  0.4293 -0.1298
   40MOL   C32635504   6.145   5.133   6.977 -0.1576 -0.0849  0.1310
   40MOL   C32735505   6.213   5.093   7.093 -0.4912  0.2864  0.3685
   40MOL   C32835506   6.224   4.954   7.119  0.1745  0.1601 -0.0307
   40MOL   C32935507   6.173   4.861   7.025 -0.8247 -0.1108 -0.6792
   40MOL   C33035508   6.114   4.907   6.904  0.4378 -0.0460  0.1390
   40MOL   C33135509   6.097   5.048   6.877  0.4311  0.1927 -0.1863
   40MOL   O33235510   6.188   4.722   7.037 -0.0614 -0.0039  0.2794
   40MOL   C33335511   6.312   4.675   7.009 -0.1231 -0.5911 -0.7864
   40MOL   C33435512   6.375   4.706   6.886  0.7897 -1.2160  0.3281
   40MOL   C33535513   6.504   4.664   6.867 -0.3482  0.4875 -0.0627
   40MOL   C33635514   6.563   4.578   6.963  0.1694 -0.4377 -0.1330
   40MOL   C33735515   6.495   4.541   7.075 -0.1563  0.4762 -0.6184
   40MOL   C33835516   6.373   4.593   7.102 -0.1924 -0.7746 -0.5448
   40MOL   C33935517   6.697   4.523   6.932  0.2382  0.1767  0.0286
   40MOL   C34035518   6.725   4.389   6.941 -0.2769 -0.2526 -0.6308
   40MOL   C34135519   6.844   4.339   6.889 -0.1225  0.0548  0.0358
   40MOL   C34235520   6.939   4.430   6.841 -0.3466  0.6977  1.1805
   40MOL   C34335521   6.920   4.569   6.848 -0.3462  0.5183 -0.0347
   40MOL   C34435522   6.791   4.609   6.883 -0.3649 -0.8831 -0.3679
   40MOL   O34535523   7.056   4.386   6.779  0.3212  0.0713 -0.0378
   40MOL   H34635524   6.527   5.366   6.646  0.6884  0.4871  0.2594
   40MOL   H34735525   6.288   5.287   6.704  1.2567 -0.9160  0.4776
   40MOL   H34835526   6.370   5.425   7.114  1.5227 -1.2384  0.8540
   40MOL   H34935527   6.587   5.493   7.054  0.3579 -1.1932  0.2991
   40MOL   H35035528   6.247   5.167   7.165  2.1407 -0.0078 -0.5240
   40MOL   H35135529   6.273   4.917   7.208 -2.7618 -2.6934  0.4993
   40MOL   H35235530   6.081   4.826   6.840  0.9417  2.4525 -3.4488
   40MOL   H35335531   6.050   5.078   6.784  1.4973  0.3506 -0.6953
   40MOL   H35435532   6.320   4.763   6.813 -0.2578 -1.1574  1.1464
   40MOL   H35535533   6.552   4.691   6.774  0.4251 -0.6423 -0.0103
   40MOL   H35635534   6.540   4.470   7.143  0.3662 -0.8625 -2.3112
   40MOL   H35735535   6.332   4.577   7.201 -2.6300  0.4162 -1.3237
   40MOL   H35835536   6.646   4.326   6.979 -0.9039  1.4700  1.0246
   40MOL   H35935537   6.868   4.234   6.877  1.7613  0.5396 -0.4894
   40MOL   H36035538   7.003   4.633   6.823 -2.5785  3.5405 -0.0492
   40MOL   H36135539   6.768   4.714   6.883  1.3465 -0.5061  0.3028
   40MOL   C36235540   7.170   4.381   6.843 -0.5467 -0.2707 -0.1170
   40MOL   C36335541   7.179   4.393   6.986 -0.4866 -1.0983 -0.0686
   40MOL   C36435542   7.308   4.386   7.048  0.3837  0.5809  0.2686
   40MOL   C36535543   7.416   4.381   6.960  0.8463 -0.6939  0.0822
   40MOL   C36635544   7.411   4.373   6.821 -0.5332  0.2565 -0.5102
   40MOL   C36735545   7.284   4.369   6.762 -0.3229 -0.0950 -0.1104
   40MOL   S36835546   7.570   4.389   7.039 -0.0103 -0.0589  0.2691
   40MOL   O36935547   7.550   4.457   7.165  0.2841  0.3957 -0.2118
   40MOL   O37035548   7.658   4.456   6.943  0.2904 -0.8652  0.0765
   40MOL   C37135549   7.610   4.217   7.056  0.4297  0.1984 -0.0353
   40MOL   C37235550   7.574   4.154   7.176 -0.4858 -0.0893 -0.3403
   40MOL   C37335551   7.625   4.023   7.203  0.9468  0.2725 -0.7876
   40MOL   C37435552   7.697   3.954   7.101 -0.6627 -0.3885 -0.3880
   40MOL   C37535553   7.726   4.018   6.979 -0.2105  0.2061 -0.1950
   40MOL   C37635554   7.679   4.151   6.953 -0.4070 -0.2033 -0.2011
   40MOL   O37735555   7.737   3.825   7.121  0.0193 -0.5521 -0.4611
   40MOL   C37835556   7.646   3.725   7.101  0.4684 -0.2236  0.1171
   40MOL   C37935557   7.529   3.745   7.018 -0.5444 -0.0005  0.4984
   40MOL   C38035558   7.432   3.636   7.008  0.0978  0.1096 -0.6264
   40MOL   C38135559   7.455   3.519   7.084 -0.3930  0.1716  0.4478
   40MOL   C38235560   7.576   3.507   7.162 -0.9237  0.6076  0.2367
   40MOL   C38335561   7.675   3.605   7.168 -0.5701 -0.1730 -0.0222
   40MOL   C38435562   7.359   3.411   7.080  0.1032  0.5321 -0.4833
   40MOL   C38535563   7.312   3.353   7.203 -0.3393 -0.1512 -0.2527
   40MOL   C38635564   7.213   3.250   7.198 -0.3832  0.1450  0.5817
   40MOL   C38735565   7.147   3.214   7.078 -0.6753  0.2237 -0.2154
   40MOL   C38835566   7.195   3.269   6.959 -0.1815  0.1244 -0.2068
   40MOL   C38935567   7.301   3.366   6.957  0.3926  0.4985 -0.2128
   40MOL   O39035568   7.045   3.126   7.085  0.5215 -0.0050  0.3479
   40MOL   H39135569   7.088   4.396   7.044 -0.1487  0.0707  0.4123
   40MOL   H39235570   7.325   4.384   7.155 -0.7594  1.6488  0.4747
   40MOL   H39335571   7.499   4.361   6.759  0.3558 -1.6895  1.0856
   40MOL   H39435572   7.274   4.364   6.654  2.3635 -0.9222 -0.3527
   40MOL   H39535573   7.524   4.213   7.251  1.2201  0.2801  0.5174
   40MOL   H39635574   7.611   3.975   7.299  1.1242  0.3834 -0.7068
   40MOL   H39735575   7.783   3.969   6.902 -2.6907 -0.4608 -1.6559
   40MOL   H39835576   7.707   4.185   6.855  0.5855 -0.1284  0.1095
   40MOL   H39935577   7.524   3.840   6.967 -0.0930 -1.3494 -2.1397
   40MOL   H40035578   7.348   3.641   6.941 -1.9831 -2.5798  1.6590
   40MOL   H40135579   7.600   3.419   7.220  0.0751  0.0668 -0.9532
   40MOL   H40235580   7.766   3.596   7.226 -0.6858  1.0230  0.3577
   40MOL   H40335581   7.341   3.382   7.303  0.8182 -2.5932  0.1567
   40MOL   H40435582   7.185   3.214   7.296  1.1788  2.5235  1.9802
   40MOL   H40535583   7.163   3.240   6.860 -0.3457  0.3184 -0.2107
   40MOL   H40635584   7.336   3.413   6.866  3.7004 -0.1138  0.6750
   40MOL   C40735585   6.994   3.076   6.967  1.0274 -0.0178 -0.4904
   40MOL   C40835586   6.889   3.146   6.907 -0.6285 -0.2180  0.1973
   40MOL   C40935587   6.843   3.100   6.784 -0.4970  0.1929  0.1101
   40MOL   C41035588   6.891   2.981   6.722 -0.7694  0.2546 -0.5132
   40MOL   C41135589   6.983   2.902   6.792 -0.0479 -0.1498  0.3369
   40MOL   C41235590   7.036   2.950   6.915  0.1286 -0.6963 -0.1567
   40MOL   S41335591   6.812   2.903   6.588  0.6861  0.1826  0.0718
   40MOL   O41435592   6.672   2.950   6.600  0.1970 -0.8336  0.5565
   40MOL   O41535593   6.839   2.753   6.587  0.0136  0.0792 -0.1361
   40MOL   C41635594   6.879   2.972   6.445 -0.2778 -0.0840 -0.4423
   40MOL   C41735595   6.803   3.036   6.349  0.1843  0.4024 -0.1429
   40MOL   C41835596   6.861   3.116   6.247 -0.0856 -0.0655 -0.3157
   40MOL   C41935597   7.000   3.118   6.223 -0.0683 -0.0437  0.4131
   40MOL   C42035598   7.079   3.047   6.318  0.9068  0.4273 -0.7328
   40MOL   C42135599   7.018   2.987   6.438 -0.1063 -0.7690  0.0631
   40MOL   O42235600   7.056   3.213   6.142  0.1458 -0.7355 -0.0851
   40MOL   C42335601   7.009   3.228   6.016 -0.7470 -0.1464 -0.0653
   40MOL   C42435602   6.935   3.344   5.976 -0.7020  0.3609  0.1190
   40MOL   C42535603   6.894   3.356   5.843 -0.7468 -0.3594 -0.4365
   40MOL   C42635604   6.928   3.261   5.745  0.0194  0.3444  0.1537
   40MOL   C42735605   6.998   3.148   5.787  0.0145  0.3109 -0.2392
   40MOL   C42835606   7.025   3.125   5.923 -0.1484  0.8401  1.0410
   40MOL   C42935607   6.890   3.278   5.603  0.5763  0.4079 -0.6151
   40MOL   C43035608   6.921   3.401   5.541  0.0124 -0.1542  0.1203
   40MOL   C43135609   6.875   3.430   5.410  0.8738 -0.3855 -0.1999
   40MOL   C43235610   6.796   3.333   5.341 -0.2642  0.1694  0.5298
   40MOL   C43335611   6.764   3.217   5.405  0.7873  0.0314  0.1426
   40MOL   C43435612   6.816   3.182   5.528  0.4179  0.0133  0.3260
   40MOL   O43535613   6.763   3.360   5.213  0.4283  0.4325  0.0479
   40MOL   H43635614   6.842   3.232   6.952 -2.4688 -1.2164  0.2040
   40MOL   H43735615   6.760   3.156   6.744 -0.1967  0.9323  0.5192
   40MOL   H43835616   7.009   2.802   6.761 -1.4061 -1.6444  3.6728
   40MOL   H43935617   7.108   2.898   6.977  2.0530 -0.7085 -2.3638
   40MOL   H44035618   6.696   3.040   6.360  0.1093 -1.6588  0.1340
   40MOL   H44135619   6.799   3.186   6.192  1.4545 -0.4129 -2.5630
   40MOL   H44235620   7.187   3.047   6.314  0.8930  2.4699 -1.4827
   40MOL   H44335621   7.083   2.948   6.515  0.8018 -0.5326 -0.5747
   40MOL   H44435622   6.914   3.423   6.047 -0.9117 -0.5391  1.0690
   40MOL   H44535623   6.854   3.453   5.817  1.3970  0.4791 -0.7206
   40MOL   H44635624   7.012   3.073   5.711 -0.8184  0.7679 -0.8645
   40MOL   H44735625   7.077   3.034   5.949  0.1306  0.1549 -1.7399
   40MOL   H44835626   6.988   3.465   5.595  1.2486 -0.4549 -1.0407
   40MOL   H44935627   6.904   3.513   5.347 -1.9895  1.6548  1.0171
   40MOL   H45035628   6.697   3.152   5.351  1.5574 -1.2288  0.6869
   40MOL   H45135629   6.785   3.082   5.555 -0.4321  0.1809 -0.0077
   40MOL   C45235630   6.839   3.304   5.117  0.5835  0.2246  1.0228
   40MOL   C45335631   6.979   3.329   5.097 -0.5493  0.3892  0.1087
   40MOL   C45435632   7.050   3.259   4.994 -0.1150 -0.0027 -0.3439
   40MOL   C45535633   6.983   3.173   4.912 -0.3814  0.0971 -0.1317
   40MOL   C45635634   6.852   3.139   4.933 -0.7865 -0.2833 -0.6990
   40MOL   C45735635   6.780   3.209   5.031 -0.1624 -0.0292 -0.4519
   40MOL   S45835636   7.064   3.098   4.766  0.3891  0.0125 -0.3832
   40MOL   O45935637   7.021   2.956   4.748  0.8043 -0.6793  0.3099
   40MOL   O46035638   7.206   3.124   4.774  0.0340 -0.0142 -0.3914
   40MOL   C46135639   7.004   3.178   4.610 -0.3445 -0.3799 -0.6160
   40MOL   C46235640   7.093   3.203   4.505 -0.1575  0.0666 -0.2931
   40MOL   C46335641   7.046   3.258   4.385  0.4889 -1.1353 -0.7595
   40MOL   C46435642   6.907   3.279   4.365  0.3139 -0.4024  0.2408
   40MOL   C46535643   6.815   3.251   4.472 -0.6589  0.2449 -0.5189
   40MOL   C46635644   6.868   3.197   4.590 -0.4734 -0.2481 -0.3586
   40MOL   O46735645   6.865   3.294   4.232 -0.2516  0.3247  0.3204
   40MOL   C46835646   6.919   3.208   4.134 -0.4449  0.1368  0.6236
   40MOL   C46935647   7.023   3.259   4.051  0.2193  0.0374  0.1945
   40MOL   C47035648   7.099   3.179   3.972 -0.3157 -0.4674 -0.4148
   40MOL   C47135649   7.064   3.043   3.949  0.4590  0.7318  0.3763
   40MOL   C47235650   6.969   2.991   4.037 -0.4105  0.0620 -0.8833
   40MOL   C47335651   6.895   3.070   4.128  0.4617 -0.0936 -0.4501
   40MOL   C47435652   7.134   2.960   3.853 -0.0189  0.1541  0.9301
   40MOL   C47535653   7.175   2.826   3.882 -0.3661 -0.3748 -0.5135
   40MOL   C47635654   7.238   2.748   3.778  0.3881 -0.0457 -0.0653
   40MOL   C47735655   7.249   2.792   3.645 -0.8299 -1.0411  0.2435
   40MOL   C47835656   7.213   2.926   3.624  0.1601 -0.3843  0.3215
   40MOL   C47935657   7.156   3.013   3.718 -0.1354 -0.0571 -0.3615
   40MOL   O48035658   7.308   2.712   3.548 -0.2213 -0.1032  0.2707
   40MOL   H48135659   7.022   3.396   5.169 -1.0233 -0.5624  1.2953
   40MOL   H48235660   7.156   3.271   4.976  0.1690 -0.4318  1.0182
   40MOL   H48335661   6.807   3.065   4.869 -2.5451  0.1195  0.0523
   40MOL   H48435662   6.679   3.180   5.051  1.1783 -3.1198  2.2537
   40MOL   H48535663   7.198   3.184   4.525 -0.5217 -0.0330  1.5717
   40MOL   H48635664   7.109   3.266   4.298 -0.3525 -1.5327 -1.4083
   40MOL   H48735665   6.708   3.264   4.466 -0.3609  1.8946 -3.4068
   40MOL   H48835666   6.797   3.159   4.662 -1.7640  3.0623  0.1930
   40MOL   H48935667   7.044   3.365   4.049  2.0733 -0.3328 -1.3389
   40MOL   H49035668   7.179   3.234   3.925 -0.3110 -0.9919 -1.0347
   40MOL   H49135669   6.938   2.888   4.026 -2.9574  0.4015  2.1871
   40MOL   H49235670   6.814   3.029   4.188 -0.3052  1.0608 -0.6828
   40MOL   H49335671   7.178   2.788   3.983  1.6259  0.3681 -0.2652
   40MOL   H49435672   7.272   2.648   3.800 -2.7053 -0.8734  1.3585
   40MOL   H49535673   7.233   2.965   3.525 -1.0505 -0.9699 -0.1678
   40MOL   H49635674   7.127   3.115   3.697  0.8555  0.7105  1.8452
   40MOL   C49735675   7.446   2.716   3.531  0.4884 -0.3815  0.1997
   40MOL   C49835676   7.522   2.593   3.525 -0.0939  0.1678 -0.1927
   40MOL   C49935677   7.663   2.592   3.523 -0.3919  0.4706  0.1180
   40MOL   C50035678   7.729   2.716   3.529  0.2207 -0.1201  0.0822
   40MOL   C50135679   7.656   2.838   3.527 -0.3135 -0.4530  0.5961
   40MOL   C50235680   7.518   2.831   3.530 -0.1344  0.0099 -0.0883
   40MOL   S50335681   7.903   2.722   3.551 -0.4482 -0.3089  0.1199
   40MOL   O50435682   7.951   2.834   3.467 -0.0198  0.3862 -0.0373
   40MOL   O50535683   7.964   2.591   3.531  0.4003 -0.0053  0.0986
   40MOL   C50635684   7.925   2.763   3.723 -0.2529  0.1851 -1.3144
   40MOL   C50735685   7.834   2.700   3.813 -0.6949  0.0027  0.5453
   40MOL   C50835686   7.844   2.721   3.952 -0.0991  0.1048  0.2086
   40MOL   C50935687   7.931   2.820   4.002  0.2177 -0.2226  0.6678
   40MOL   C51035688   8.031   2.870   3.914  0.2769  0.0623  0.1961
   40MOL   C51135689   8.030   2.839   3.774 -1.0059  0.4794 -0.6542
   40MOL   O51235690   7.932   2.851   4.135  0.3447 -0.5649 -0.0446
   40MOL   C51335691   7.851   2.957   4.174 -0.4176  0.0452  0.2619
   40MOL   C51435692   7.715   2.955   4.137  0.2446  0.0116  0.4131
   40MOL   C51535693   7.637   3.076   4.156 -0.0192 -0.3288 -0.1120
   40MOL   C51635694   7.682   3.186   4.229 -0.2399 -0.7405  0.4036
   40MOL   C51735695   7.817   3.180   4.283  0.3806 -0.3197  0.5231
   40MOL   C51835696   7.896   3.062   4.249  0.0547  0.5919 -0.3876
   40MOL   C51935697   7.598   3.312   4.240 -0.3291 -1.0285  0.5599
   40MOL   C52035698   7.565   3.387   4.129  0.5809 -0.1324  0.1941
   40MOL   C52135699   7.490   3.510   4.142  0.0571  0.3676  0.2900
   40MOL   C52235700   7.435   3.536   4.266 -0.3177 -0.0243  0.3033
   40MOL   C52335701   7.459   3.453   4.379  0.1352 -0.4106  0.2604
   40MOL   C52435702   7.543   3.343   4.364 -0.2257  0.1388 -0.2798
   40MOL   O52535703   7.363   3.652   4.295 -0.2077 -0.0616 -0.2366
   40MOL   H52635704   7.469   2.502   3.501 -2.2241  1.8379 -2.1240
   40MOL   H52735705   7.722   2.502   3.526  1.0422  1.4311  1.3598
   40MOL   H52835706   7.711   2.930   3.512  0.7495 -1.1118  0.3402
   40MOL   H52935707   7.464   2.925   3.534  0.4164  0.2613  1.8914
   40MOL   H53035708   7.757   2.635   3.775 -0.5108 -0.6167  1.2225
   40MOL   H53135709   7.769   2.676   4.014  0.9892 -0.8309  0.8520
   40MOL   H53235710   8.107   2.939   3.947 -0.4640  1.5166 -1.0775
   40MOL   H53335711   8.108   2.871   3.706  0.2189 -1.4328 -0.1801
   40MOL   H53435712   7.683   2.869   4.081  3.1929 -0.7934 -0.0771
   40MOL   H53535713   7.538   3.078   4.114 -0.1789 -2.0249  0.1427
   40MOL   H53635714   7.853   3.261   4.345 -1.0000  1.4914 -0.9954
   40MOL   H53735715   7.999   3.051   4.280  0.0362  1.1988 -0.1031
   40MOL   H53835716   7.601   3.346   4.036  2.2428  1.4597  0.1087
   40MOL   H53935717   7.467   3.575   4.060 -0.6253  2.7724  2.3450
   40MOL   H54035718   7.417   3.472   4.477  0.5459  3.5341 -0.2276
   40MOL   H54135719   7.555   3.289   4.456 -1.1048 -1.4556 -1.0803
   40MOL   C54235720   7.236   3.671   4.238 -0.8310  0.7307  0.1165
   40MOL   C54335721   7.131   3.598   4.299 -0.0913  0.1936 -0.0041
   40MOL   C54435722   7.002   3.608   4.248 -0.2006  0.0955  0.7128
   40MOL   C54535723   6.977   3.685   4.134  0.7081 -0.4676 -0.0851
   40MOL   C54635724   7.081   3.757   4.068 -0.4101  0.1272  0.3823
   40MOL   C54735725   7.209   3.746   4.122 -0.3959  0.4145 -0.1791
   40MOL   S54835726   6.813   3.695   4.051 -0.0187 -0.0556  0.3720
   40MOL   O54935727   6.810   3.599   3.935  0.0098 -0.0985 -0.2387
   40MOL   O55035728   6.787   3.838   4.028 -0.1211  0.3036 -0.3551
   40MOL   C55135729   6.692   3.634   4.169 -0.2232 -0.3757  0.8690
   40MOL   C55235730   6.636   3.707   4.272  0.4869 -0.8385  0.6440
   40MOL   C55335731   6.546   3.650   4.366  0.0462  0.1663 -0.0151
   40MOL   C55435732   6.498   3.519   4.345  0.1881 -0.0884 -0.1602
   40MOL   C55535733   6.548   3.443   4.239  0.0289  0.5116  0.4782
   40MOL   C55635734   6.635   3.507   4.148 -0.1060  0.5111 -0.3692
   40MOL   O55735735   6.387   3.463   4.410 -0.1012  0.7421 -0.3305
   40MOL   C55835736   6.413   3.362   4.498 -0.0336  0.0542 -0.1204
   40MOL   C55935737   6.346   3.240   4.482  0.9226  0.5836 -0.2398
   40MOL   C56035738   6.371   3.135   4.575  0.5582  0.2534  0.3877
   40MOL   C56135739   6.454   3.153   4.689  0.3044  0.2676  0.3535
   40MOL   C56235740   6.518   3.278   4.709  0.2105  0.2214 -0.3690
   40MOL   C56335741   6.496   3.376   4.615 -0.5229  0.2854  0.5331
   40MOL   C56435742   6.465   3.057   4.792 -0.3182  0.3510 -0.7141
   40MOL   C56535743   6.472   3.088   4.933 -0.0866  0.1356 -0.2037
   40MOL   C56635744   6.498   2.987   5.030  0.0054 -0.1729  0.3884
   40MOL   C56735745   6.532   2.850   4.987  0.0288 -0.1701  0.2012
   40MOL   C56835746   6.520   2.821   4.851  0.5297  0.6891  0.5120
   40MOL   C56935747   6.485   2.918   4.757  0.3462 -0.4525  0.2570
   40MOL   O57035748   6.584   2.770   5.075 -0.3804 -0.0610 -0.1198
   40MOL   H57135749   7.151   3.533   4.383  0.1352  0.1874 -0.0617
   40MOL   H57235750   6.922   3.551   4.292 -1.0339  0.9007  0.2436
   40MOL   H57335751   7.063   3.806   3.974  1.4026  0.9254  0.4301
   40MOL   H57435752   7.283   3.809   4.076 -0.7860  1.3743  0.4836
   40MOL   H57535753   6.675   3.808   4.283 -1.9087  0.2964 -0.9386
   40MOL   H57635754   6.514   3.720   4.441  0.3996 -0.0272  0.3182
   40MOL   H57735755   6.506   3.347   4.215 -0.8592  0.9038  0.4508
   40MOL   H57835756   6.667   3.451   4.062 -2.5171  0.9612 -1.6039
   40MOL   H57935757   6.269   3.243   4.407  1.4131  1.1021 -0.7272
   40MOL   H58035758   6.305   3.049   4.571  0.6283  0.2924 -2.9764
   40MOL   H58135759   6.586   3.305   4.788  0.6085 -1.4806 -0.0988
   40MOL   H58235760   6.523   3.477   4.640 -2.1508  0.9347 -0.3218
   40MOL   H58335761   6.453   3.190   4.961 -1.5490 -0.5275  1.2626
   40MOL   H58435762   6.509   3.018   5.133  1.9501  3.0546 -0.6921
   40MOL   H58535763   6.554   2.725   4.814 -0.5726  0.5027 -0.0272
   40MOL   H58635764   6.486   2.891   4.652  0.0754 -1.7326  0.5721
   40MOL   C58735765   6.717   2.796   5.103  0.4689  0.0795  0.0884
   40MOL   C58835766   6.823   2.783   5.006  0.1208  0.0162 -0.3377
   40MOL   C58935767   6.950   2.820   5.041 -0.0756  0.5181 -0.3845
   40MOL   C59035768   6.977   2.885   5.166  0.0728  0.6293  0.6572
   40MOL   C59135769   6.870   2.898   5.256 -0.3237  0.3225  0.8293
   40MOL   C59235770   6.742   2.847   5.228  0.3578 -0.4788  0.0685
   40MOL   S59335771   7.139   2.953   5.198 -0.0507 -0.7046  0.0841
   40MOL   O59435772   7.100   3.081   5.255 -0.2486  0.5400 -0.2193
   40MOL   O59535773   7.228   2.953   5.083  0.1614  0.7704 -0.3252
   40MOL   C59635774   7.229   2.871   5.323  0.4236 -0.4792  0.4609
   40MOL   C59735775   7.355   2.922   5.359 -0.3662 -0.2900 -0.0581
   40MOL   C59835776   7.424   2.868   5.464 -0.7586 -0.0221 -0.8351
   40MOL   C59935777   7.370   2.752   5.535 -1.1492 -0.5356  0.5287
   40MOL   C60035778   7.242   2.700   5.497 -0.3805 -0.0353  0.9248
   40MOL   C60135779   7.172   2.760   5.391 -0.1043 -0.1960  0.3894
   40MOL   O60235780   7.433   2.694   5.638 -0.1773 -0.4630  0.3073
   40MOL   C60335781   7.470   2.769   5.750 -0.0755 -0.1533  0.6372
   40MOL   C60435782   7.599   2.799   5.779 -0.3087  0.5295  0.3521
   40MOL   C60535783   7.637   2.881   5.886  0.3318 -0.5359 -0.4025
   40MOL   C60635784   7.538   2.929   5.972 -0.1172  0.2572  0.3871
   40MOL   C60735785   7.406   2.890   5.950  0.1357 -0.1788 -1.0346
   40MOL   C60835786   7.371   2.813   5.836 -0.0813 -0.3507  0.5003
   40MOL   C60935787   7.564   3.015   6.083 -0.5320  0.7985 -0.6739
   40MOL   C61035788   7.470   3.104   6.138  0.1335 -0.3314  0.1008
   40MOL   C61135789   7.496   3.191   6.250  0.9092  0.0472  0.6685
   40MOL   C61235790   7.620   3.174   6.326  0.6344  0.4435  0.7034
   40MOL   C61335791   7.705   3.070   6.277  0.1817 -0.1723  0.5057
   40MOL   C61435792   7.683   2.999   6.157  0.6087  0.6524 -0.6557
   40MOL   O61535793   7.646   3.236   6.452 -0.2929 -0.3492 -0.1588
   40MOL   H61635794   6.802   2.757   4.904  0.7002 -1.1924 -0.1600
   40MOL   H61735795   7.033   2.820   4.972  1.2152  0.6147  1.1488
   40MOL   H61835796   6.896   2.951   5.346  1.4745  0.4794  0.2344
   40MOL   H61935797   6.665   2.850   5.304  0.4408 -1.3759  0.2035
   40MOL   H62035798   7.399   3.007   5.308 -1.5369 -0.3044 -1.1149
   40MOL   H62135799   7.521   2.907   5.492 -0.4819 -0.7056 -0.8444
   40MOL   H62235800   7.192   2.632   5.565 -1.9562 -0.5943 -0.7688
   40MOL   H62335801   7.069   2.732   5.373 -0.1590  0.3312 -0.1302
   40MOL   H62435802   7.669   2.751   5.711 -1.3245 -0.5363  0.0466
   40MOL   H62535803   7.741   2.895   5.913  0.7853 -1.4777 -1.5900
   40MOL   H62635804   7.327   2.925   6.014  0.2518  0.3492 -1.1838
   40MOL   H62735805   7.267   2.795   5.815  0.2353 -1.1158 -0.4556
   40MOL   H62835806   7.373   3.102   6.090  0.5612 -2.7588 -0.7518
   40MOL   H62935807   7.426   3.267   6.281  1.4590  0.3139  1.2682
   40MOL   H63035808   7.794   3.043   6.331  1.6305  1.9876 -0.7575
   40MOL   H63135809   7.762   2.935   6.122  0.9387  0.7646 -0.1106
   40MOL   C63235810   7.762   3.301   6.460  0.7173 -0.0438 -0.4468
   40MOL   C63335811   7.874   3.227   6.511 -0.6571 -0.8307 -0.3322
   40MOL   C63435812   8.004   3.284   6.508 -0.4657 -0.3451 -0.4518
   40MOL   C63535813   8.019   3.417   6.467  0.7167  0.1369 -0.2891
   40MOL   C63635814   7.909   3.487   6.411 -0.2764 -0.0729  0.4859
   40MOL   C63735815   7.783   3.430   6.415  0.9214  0.3344 -0.4456
   40MOL   S63835816   8.187   3.481   6.453  0.4676 -0.2722 -0.2443
   40MOL   O63935817   8.237   3.437   6.322 -1.2773 -0.3906 -0.2078
   40MOL   O64035818   8.260   3.437   6.574 -0.2205 -0.1496  0.5571
   40MOL   C64135819   8.185   3.658   6.452 -0.5733 -0.5162 -0.2686
   40MOL   C64235820   8.199   3.723   6.576 -0.7057 -0.1777 -0.2477
   40MOL   C64335821   8.203   3.863   6.584 -0.2446 -0.8624  0.4863
   40MOL   C64435822   8.192   3.938   6.461  0.0479  0.2116  0.3470
   40MOL   C64535823   8.173   3.872   6.338 -0.9326 -0.0618  0.1380
   40MOL   C64635824   8.177   3.730   6.330 -0.4763 -0.7630  0.4813
   40MOL   O64735825   8.190   4.069   6.468  0.0451 -0.3752  0.5871
   40MOL   C64835826   8.298   4.135   6.418  0.0985 -0.3176  0.0221
   40MOL   C64935827   0.059   4.112   6.478 -0.8590  0.1186 -0.1703
   40MOL   C65035828   0.172   4.180   6.422 -0.9245  0.7699 -0.2688
   40MOL   C65135829   0.167   4.281   6.323 -0.6189 -0.3662  0.3128
   40MOL   C65235830   0.036   4.299   6.264 -0.2262  0.1367 -0.0057
   40MOL   C65335831   8.288   4.228   6.310  0.2845 -0.0954 -0.9281
   40MOL   C65435832   0.284   4.348   6.273 -0.0222  0.3290 -0.2857
   40MOL   C65535833   0.402   4.343   6.346  0.2731 -0.0609 -0.0401
   40MOL   C65635834   0.518   4.396   6.287  0.4320  0.1687  0.5960
   40MOL   C65735835   0.509   4.452   6.153  0.4464 -0.4705 -0.5078
   40MOL   C65835836   0.384   4.462   6.086 -0.0985  0.7344 -0.2269
   40MOL   C65935837   0.272   4.417   6.152 -0.5266  0.2845 -0.0502
   40MOL   O66035838   0.615   4.514   6.089 -0.1827  0.5798  0.1526
   40MOL   H66135839   7.855   3.124   6.538 -0.2950 -0.8901 -0.2987
   40MOL   H66235840   8.095   3.238   6.543  0.4890  0.1646 -2.2020
   40MOL   H66335841   7.929   3.588   6.378  0.4553 -0.1943  0.5406
   40MOL   H66435842   7.698   3.484   6.376  1.5949  1.9935  0.3341
   40MOL   H66535843   8.206   3.653   6.658 -0.9874  0.2492  0.1470
   40MOL   H66635844   8.233   3.901   6.681  2.9527  1.2936 -1.2470
   40MOL   H66735845   8.179   3.939   6.254  1.9910 -2.4292 -1.6598
   40MOL   H66835846   8.170   3.678   6.236  2.1081  2.0295 -1.3307
   40MOL   H66935847   0.079   4.036   6.551  0.9672  0.3558 -0.3956
   40MOL   H67035848   0.265   4.157   6.471 -1.7158 -0.9903  0.4109
   40MOL   H67135849   0.013   4.366   6.183 -0.0091  1.1238  0.7256
   40MOL   H67235850   8.193   4.245   6.261 -1.4017 -1.5314  1.7481
   40MOL   H67335851   0.418   4.294   6.440 -1.3473  0.8344  0.7216
   40MOL   H67435852   0.610   4.384   6.343  1.0651 -0.1250 -0.4952
   40MOL   H67535853   0.384   4.498   5.984 -0.3049  1.8578  0.1614
   40MOL   H67635854   0.181   4.424   6.094 -0.4289 -2.0075 -0.4946
   40MOL   C67735855   0.672   4.633   6.117 -0.9446  0.1202 -0.5740
   40MOL   C67835856   0.706   4.732   6.020 -0.0282  0.4943  0.6022
   40MOL   C67935857   0.778   4.849   6.050 -0.6460  0.9859 -0.0400
   40MOL   C68035858   0.826   4.866   6.183 -0.6014 -0.2101  0.5130
   40MOL   C68135859   0.790   4.775   6.282 -0.8263  0.2943 -0.0995
   40MOL   C68235860   0.707   4.664   6.250 -0.2063  0.1091  0.5058
   40MOL   S68335861   0.949   4.999   6.214 -0.0611 -0.1431 -0.1321
   40MOL   O68435862   1.078   4.932   6.225  0.4957  0.1705  0.1235
   40MOL   O68535863   0.893   5.074   6.325 -0.2918  0.4951  0.8795
   40MOL   C68635864   0.958   5.108   6.075 -0.4879  0.2337 -0.6114
   40MOL   C68735865   0.846   5.184   6.039 -0.6647 -0.3062 -0.2713
   40MOL   C68835866   0.851   5.272   5.932  0.0801 -0.3890  1.3340
   40MOL   C68935867   0.968   5.292   5.865 -0.1633  0.5535  0.3915
   40MOL   C69035868   1.083   5.220   5.896  0.2786 -0.0639  0.4673
   40MOL   C69135869   1.074   5.126   5.997  0.4178  0.5065 -0.5282
   40MOL   O69235870   0.979   5.397   5.770 -0.1588 -0.1483 -0.3519
   40MOL   C69335871   0.859   5.453   5.712  0.0696  0.2051  1.2978
   40MOL   C69435872   0.833   5.593   5.728 -0.6250 -0.0481 -0.1828
   40MOL   C69535873   0.720   5.654   5.668 -0.0436 -0.2543 -0.4331
   40MOL   C69635874   0.630   5.577   5.593 -0.4575 -0.6432  0.0009
   40MOL   C69735875   0.672   5.444   5.558 -0.4339  0.4143  0.5999
   40MOL   C69835876   0.778   5.376   5.623  0.5035  0.5063 -0.4307
   40MOL   C69935877   0.501   5.622   5.539  0.9049 -0.0843  0.6569
   40MOL   C70035878   0.391   5.538   5.536  0.3314  0.1109  0.3808
   40MOL   C70135879   0.266   5.581   5.487 -0.8364  0.2862 -0.5098
   40MOL   C70235880   0.251   5.705   5.427  0.4400 -0.4180 -0.2753
   40MOL   C70335881   0.366   5.792   5.434 -0.6565 -0.6250 -0.3169
   40MOL   C70435882   0.484   5.758   5.505  0.5315  0.5356  0.2700
   40MOL   O70535883   0.130   5.746   5.373  0.4715 -0.1642  0.4153
   40MOL   H70635884   0.677   4.713   5.917 -2.8975  0.8597  1.2932
   40MOL   H70735885   0.820   4.910   5.972 -0.0154 -0.7441 -1.0604
   40MOL   H70835886   0.843   4.781   6.376  0.6071  1.2757 -0.9361
   40MOL   H70935887   0.681   4.592   6.326 -1.8836 -2.2331 -2.1664
   40MOL   H71035888   0.756   5.172   6.097 -1.4710  1.3213 -1.1305
   40MOL   H71135889   0.756   5.316   5.904 -0.9922 -1.5817  2.9985
   40MOL   H71235890   1.175   5.245   5.845 -0.4005  2.1238  0.2219
   40MOL   H71335891   1.160   5.066   6.024 -0.9412 -0.7578  1.1202
   40MOL   H71435892   0.900   5.662   5.777 -0.4340 -0.3938  0.0484
   40MOL   H71535893   0.707   5.760   5.682  0.0082 -0.3161  0.0995
   40MOL   H71635894   0.612   5.381   5.495 -0.5378 -0.6488  1.7467
   40MOL   H71735895   0.809   5.273   5.610  0.2537  0.6572 -2.3695
   40MOL   H71835896   0.399   5.437   5.573 -0.9367 -1.9226 -4.4118
   40MOL   H71935897   0.183   5.513   5.485 -0.4821 -0.1670 -0.0595
   40MOL   H72035898   0.343   5.891   5.396  0.2517  0.1289  1.0246
   40MOL   H72135899   0.554   5.840   5.516  1.8971 -0.9421  3.1808
   40MOL   C72235900   0.076   5.680   5.264  0.3157 -0.4625  0.1177
   40MOL   C72335901   8.313   5.620   5.293 -0.1852 -0.0996 -0.6034
   40MOL   C72435902   8.259   5.542   5.190 -0.5135  0.7153 -0.0597
   40MOL   C72535903   8.317   5.532   5.063 -0.1145  0.7505 -0.1400
   40MOL   C72635904   0.075   5.582   5.038 -0.8926  0.4937  0.1857
   40MOL   C72735905   0.140   5.663   5.136 -0.1192  0.1850 -0.9633
   40MOL   S72835906   8.238   5.433   4.932 -0.1150  0.0540 -0.3001
   40MOL   O72935907   8.145   5.344   5.000 -0.3648  0.0537  0.2036
   40MOL   O73035908   8.349   5.378   4.855  0.0881  0.0528  0.2959
   40MOL   C73135909   8.147   5.561   4.836  0.0467 -0.1655  1.0336
   40MOL   C73235910   8.118   5.523   4.705  0.2851 -0.1757  0.0617
   40MOL   C73335911   8.036   5.620   4.630  0.4921 -0.5863  0.0036
   40MOL   C73435912   7.991   5.742   4.684 -0.6366  0.2355 -0.4152
   40MOL   C73535913   8.020   5.775   4.819  0.3838  0.0905  0.0914
   40MOL   C73635914   8.100   5.685   4.891  0.1058  1.0064 -0.2155
   40MOL   O73735915   7.911   5.818   4.600 -0.1354  0.2081 -0.3135
   40MOL   C73835916   7.874   5.947   4.635 -0.1129 -0.1314  0.7978
   40MOL   C73935917   7.956   6.055   4.592  0.0725  0.4056  0.4878
   40MOL   C74035918   7.917   6.185   4.621  0.2641  0.2423  0.3014
   40MOL   C74135919   7.797   6.215   4.684  0.0415 -0.4403  0.1199
   40MOL   C74235920   7.714   6.110   4.723  1.1356  1.0796 -0.6324
   40MOL   C74335921   7.753   5.976   4.701 -0.2381 -0.2757 -0.2593
   40MOL   C74435922   7.759   6.354   4.710  0.4796 -0.2843 -0.0963
   40MOL   C74535923   7.790   6.461   4.623  0.2533 -0.3079  0.1302
   40MOL   C74635924   7.756   6.592   4.664 -0.0183  0.2744 -0.6192
   40MOL   C74735925   7.681   6.630   4.775  0.3420  0.1220  0.1853
   40MOL   C74835926   7.644   6.520   4.856  0.1966  0.4427 -0.1658
   40MOL   C74935927   7.679   6.388   4.824 -0.4491 -0.4242 -0.1805
   40MOL   O75035928   7.654   6.760   4.806  0.2505 -0.2143  0.1041
   40MOL   H75135929   8.271   5.654   5.386 -1.1031  2.2617 -1.8292
   40MOL   H75235930   8.173   5.479   5.206  1.7790 -2.4492  0.1987
   40MOL   H75335931   0.121   5.561   4.943  0.0472  0.1837  0.7077
   40MOL   H75435932   0.237   5.709   5.124  1.0365 -1.5345  1.3540
   40MOL   H75535933   8.153   5.427   4.671 -1.5431 -0.6749 -0.4961
   40MOL   H75635934   8.002   5.601   4.529  0.7735 -1.8199  0.1344
   40MOL   H75735935   7.982   5.866   4.863  0.1242 -0.4075  0.8905
   40MOL   H75835936   8.117   5.695   4.997  0.0467  1.0420 -0.2093
   40MOL   H75935937   8.036   6.032   4.523 -2.1934 -0.6388 -1.8729
   40MOL   H76035938   7.988   6.264   4.598 -1.4954  1.2420 -1.8224
   40MOL   H76135939   7.618   6.125   4.771  2.0070 -1.8068  2.1705
   40MOL   H76235940   7.680   5.901   4.726  0.7971 -0.9158  0.8508
   40MOL   H76335941   7.833   6.436   4.528 -2.1091 -1.5118 -0.6615
   40MOL   H76435942   7.793   6.675   4.605 -2.9136  1.0563 -1.3896
   40MOL   H76535943   7.602   6.539   4.954 -0.5761  1.9665 -0.7847
   40MOL   H76635944   7.652   6.302   4.883 -1.9938  0.5659  0.6053
   40MOL   C76735945   7.661   6.798   4.941  0.6843  0.7365  0.9797
   40MOL   C76835946   7.557   6.857   5.018  0.5396  0.4628  0.1538
   40MOL   C76935947   7.570   6.897   5.149  0.4189 -0.1929  0.3667
   40MOL   C77035948   7.692   6.861   5.213 -0.5856  0.4374 -0.1399
   40MOL   C77135949   7.797   6.798   5.139 -0.0556 -0.3307  0.0423
   40MOL   C77235950   7.783   6.771   5.005  0.5083 -0.1287 -0.7973
   40MOL   S77335951   7.710   6.891   5.391 -0.0064 -0.1104 -0.1861
   40MOL   O77435952   7.816   6.796   5.444 -1.0804  0.1361 -0.0752
   40MOL   O77535953   7.575   6.883   5.456 -0.1646  0.2526 -0.0754
   40MOL   C77635954   7.770   7.066   5.401 -0.1848  0.0252 -0.2680
   40MOL   C77735955   7.853   7.119   5.294 -0.2719 -0.4914  0.2709
   40MOL   C77835956   7.911   7.247   5.294  0.6051 -0.6279 -0.4541
   40MOL   C77935957   7.873   7.338   5.404  0.0162  0.0947  0.7637
   40MOL   C78035958   7.793   7.290   5.507 -0.1748  0.6826 -0.0374
   40MOL   C78135959   7.743   7.154   5.509  0.9477 -0.2523  0.1141
   40MOL   O78235960   7.920   7.466   5.414  0.2702 -0.3913  0.1296
   40MOL   C78335961   8.049   7.470   5.453 -0.0975 -0.6634  0.0817
   40MOL   C78435962   8.154   7.481   5.359  0.1821  1.3521 -0.1974
   40MOL   C78535963   8.289   7.472   5.410 -0.4451 -0.5706 -0.1998
   40MOL   C78635964   8.316   7.460   5.546  0.8323 -0.3573 -0.1395
   40MOL   C78735965   8.206   7.462   5.633 -0.1805  0.2207 -0.7529
   40MOL   C78835966   8.076   7.471   5.589 -0.4674 -0.5798  0.2885
   40MOL   C78935967   0.090   7.471   5.586 -0.2044  0.0862 -0.4859
   40MOL   C79035968   0.157   7.603   5.584 -1.0825  0.1058  0.5740
   40MOL   C79135969   0.280   7.633   5.648  0.0850 -0.3609  0.3983
   40MOL   C79235970   0.348   7.530   5.709  0.5264 -0.2196  0.2751
   40MOL   C79335971   0.294   7.397   5.712 -0.5276  0.0572  0.8238
   40MOL   C79435972   0.168   7.372   5.653  0.2524  0.6910  0.4098
   40MOL   O79535973   0.464   7.552   5.769 -0.1550 -0.2410 -0.1451
   40MOL   H79635974   7.461   6.873   4.972  1.8105  2.5130 -1.8960
   40MOL   H79735975   7.479   6.929   5.199 -1.4315 -2.0697 -1.6697
   40MOL   H79835976   7.887   6.768   5.189 -0.4279  0.4608  1.1840
   40MOL   H79935977   7.866   6.724   4.953  3.0978  2.0486  1.1882
   40MOL   H80035978   7.891   7.062   5.210 -0.0981  1.1352 -0.7881
   40MOL   H80135979   7.984   7.274   5.220  0.9169 -1.3317 -0.4000
   40MOL   H80235980   7.763   7.348   5.592  1.0863  1.8019 -0.3346
   40MOL   H80335981   7.679   7.118   5.589  0.6453 -0.3747 -0.1807
   40MOL   H80435982   8.127   7.482   5.254 -0.9928 -0.1054  0.0666
   40MOL   H80535983   0.008   7.481   5.344 -1.3560  1.3418 -1.1919
   40MOL   H80635984   8.224   7.462   5.739  2.7938 -0.1876 -1.2269
   40MOL   H80735985   7.995   7.464   5.660 -1.0497 -1.6539 -0.4796
   40MOL   H80835986   0.096   7.682   5.543  0.8892  2.2704  1.7440
   40MOL   H80935987   0.326   7.731   5.651 -0.4371 -0.1325  1.0715
   40MOL   H81035988   0.347   7.312   5.754 -0.3590 -0.8110 -1.0643
   40MOL   H81135989   0.124   7.273   5.656 -1.3744  1.3758 -0.2338
   40MOL   C81235990   0.579   7.519   5.713  0.2147  0.4811 -0.0091
   40MOL   C81335991   0.643   7.394   5.732  0.5583  0.8589  0.0622
   40MOL   C81435992   0.745   7.361   5.649  0.0374  0.7010 -0.3355
   40MOL   C81535993   0.802   7.453   5.564 -0.0347  0.1600  0.1719
   40MOL   C81635994   0.747   7.580   5.542 -0.8685  0.0076  0.6291
   40MOL   C81735995   0.636   7.613   5.622 -0.9444  0.4242 -0.0086
   40MOL   S81835996   0.947   7.398   5.473  0.2283  0.2372 -0.1435
   40MOL   O81935997   0.927   7.450   5.333  0.8350 -0.3531 -0.6610
   40MOL   O82035998   0.962   7.253   5.494  0.0264  0.1049 -0.9383
   40MOL   C82135999   1.089   7.479   5.542  0.2748  0.7789 -0.0465
   40MOL   C82236000   1.176   7.410   5.628 -0.4276 -0.0369  0.3294
   40MOL   C82336001   1.287   7.477   5.684 -0.4520  0.5683 -0.5968
   40MOL   C82436002   1.311   7.610   5.650  0.3858 -0.0204 -0.4132
   40MOL   C82536003   1.216   7.685   5.577  0.3609  0.1281 -0.6513
   40MOL   C82636004   1.104   7.618   5.514 -0.4944 -0.8681 -0.1093
   40MOL   O82736005   1.416   7.677   5.702 -0.1744  0.2870  0.7117
   40MOL   C82836006   1.503   7.736   5.619 -0.5036 -0.0096  0.0948
   40MOL   C82936007   1.527   7.866   5.642  0.6423 -0.0963  1.1582
   40MOL   C83036008   1.631   7.932   5.573 -0.6386 -0.7191 -0.5092
   40MOL   C83136009   1.709   7.868   5.480  0.5762 -0.3187  0.3769
   40MOL   C83236010   1.681   7.735   5.455  0.0906  0.3194  0.6661
   40MOL   C83336011   1.578   7.667   5.528  0.2173  1.1295 -0.1102
   40MOL   C83436012   1.815   7.942   5.406  0.6699 -0.5237 -0.8342
   40MOL   C83536013   1.812   8.083   5.386  0.6587  0.7483 -0.0824
   40MOL   C83636014   1.911   8.145   5.306  0.3433 -0.1207  0.1911
   40MOL   C83736015   2.027   8.073   5.266  0.1320 -0.6339  0.3913
   40MOL   C83836016   2.034   7.934   5.302 -0.1187  0.1619  0.0383
   40MOL   C83936017   1.924   7.871   5.363  0.3253 -0.1271  0.0568
   40MOL   O84036018   2.125   8.130   5.190 -0.1496  0.3351 -0.1322
   40MOL   H84136019   0.594   7.320   5.793  0.6236  0.7166 -0.0577
   40MOL   H84236020   0.788   7.262   5.651 -0.3283  0.5569  0.2535
   40MOL   H84336021   0.788   7.652   5.473 -0.6304  1.8861  2.6425
   40MOL   H84436022   0.586   7.708   5.610  0.8834  1.1941 -1.6451
   40MOL   H84536023   1.159   7.308   5.659  1.7140  0.6157  3.9294
   40MOL   H84636024   1.359   7.430   5.749 -0.3094 -0.0449 -1.1948
   40MOL   H84736025   1.240   7.789   5.562  0.8094 -0.0564 -1.2359
   40MOL   H84836026   1.034   7.674   5.454 -0.5050 -1.9541 -1.1259
   40MOL   H84936027   1.477   7.911   5.726 -1.4906 -1.1266  0.4882
   40MOL   H85036028   1.669   8.033   5.587 -1.1974 -0.3947 -1.2814
   40MOL   H85136029   1.738   7.681   5.381  0.4435 -0.6977  1.6688
   40MOL   H85236030   1.568   7.560   5.530 -0.6224  1.2027 -0.2700
   40MOL   H85336031   1.726   8.139   5.419  0.4577  0.3848  0.0175
   40MOL   H85436032   1.901   8.250   5.283  2.2539 -0.0847 -0.5509
   40MOL   H85536033   2.119   7.874   5.271 -1.9418 -1.4871 -1.9464
   40MOL   H85636034   1.932   7.764   5.377  0.5383 -0.0208  0.7942
   40MOL   C85736035   2.127   8.102   5.057 -0.1331 -0.2481  0.0522
   40MOL   C85836036   2.253   8.084   4.999 -0.0357  0.2994  0.0384
   40MOL   C85936037   2.254   8.059   4.853  0.0998  0.2482 -0.9000
   40MOL   C86036038   2.136   8.043   4.786 -0.1311  0.3179 -0.0933
   40MOL   C86136039   2.014   8.067   4.846 -0.4588  0.1720 -0.2339
   40MOL   C86236040   2.011   8.101   4.978  0.1601  0.2651 -0.0851
   40MOL   S86336041   2.145   7.986   4.619  0.2380  0.0110  0.4562
   40MOL   O86436042   2.244   7.883   4.620  0.3326 -0.0695 -0.9035
   40MOL   O86536043   2.179   8.102   4.537  0.3360  0.0223 -0.2976
   40MOL   C86636044   1.989   7.910   4.562  0.4543  0.0064 -0.1453
   40MOL   C86736045   1.902   7.983   4.475  0.7818  0.4265 -0.4130
   40MOL   C86836046   1.787   7.921   4.432  0.0930 -0.5224  0.4287
   40MOL   C86936047   1.771   7.780   4.454 -0.4336 -0.0837 -0.7188
   40MOL   C87036048   1.863   7.707   4.534 -0.1918 -0.2433 -0.2123
   40MOL   C87136049   1.972   7.777   4.587  0.5148 -0.2389 -0.2928
   40MOL   O87236050   1.672   7.703   4.394 -0.4604 -0.2236  0.5120
   40MOL   C87336051   1.702   7.662   4.267 -0.0274 -0.0263 -0.0930
   40MOL   C87436052   1.736   7.754   4.163  0.1725 -0.2464 -0.4241
   40MOL   C87536053   1.766   7.707   4.034  0.0661 -0.2002  0.0444
   40MOL   C87636054   1.759   7.572   3.999 -0.2555  0.4509 -0.1343
   40MOL   C87736055   1.724   7.484   4.107 -0.3153 -0.0914 -0.4706
   40MOL   C87836056   1.706   7.527   4.234 -0.5943 -0.0741  0.3287
   40MOL   C87936057   1.780   7.516   3.873 -0.4251  0.8381 -0.0958
   40MOL   C88036058   1.751   7.593   3.758 -0.1795 -0.1214 -0.7856
   40MOL   C88136059   1.768   7.538   3.627 -0.2636  0.2883 -0.1942
   40MOL   C88236060   1.813   7.403   3.612  0.3605  0.3192 -0.5849
   40MOL   C88336061   1.867   7.330   3.721  0.7734  0.2136  0.7104
   40MOL   C88436062   1.841   7.385   3.850 -0.2195  0.1951  0.3802
   40MOL   O88536063   1.811   7.341   3.491 -0.1822 -0.3334  0.7490
   40MOL   H88636064   2.343   8.095   5.058  0.8662  0.3481 -1.3162
   40MOL   H88736065   2.351   8.042   4.808  0.1973  0.9183 -0.9475
   40MOL   H88836066   1.917   8.060   4.798  0.2886 -0.6728 -1.6667
   40MOL   H88936067   1.915   8.132   5.018 -0.1754 -0.8197 -0.0300
   40MOL   H89036068   1.921   8.084   4.443  0.0554  0.7442  0.1382
   40MOL   H89136069   1.717   7.978   4.372 -1.2624 -1.1588  1.3709
   40MOL   H89236070   1.853   7.600   4.540 -3.0020  0.0931  3.5967
   40MOL   H89336071   2.044   7.716   4.640  0.5397 -1.5721 -1.8289
   40MOL   H89436072   1.737   7.859   4.185 -3.7413 -0.0294 -0.8731
   40MOL   H89536073   1.791   7.786   3.965  0.3435  1.6211  2.2025
   40MOL   H89636074   1.711   7.377   4.095  1.3937 -0.2419 -1.0705
   40MOL   H89736075   1.696   7.454   4.312 -0.1999 -0.5653 -0.0768
   40MOL   H89836076   1.704   7.690   3.771 -3.5316 -1.5319 -1.7254
   40MOL   H89936077   1.740   7.589   3.537  1.6911  2.4929  0.3939
   40MOL   H90036078   1.902   7.228   3.708 -0.0926  0.1917 -1.5085
   40MOL   H90136079   1.864   7.320   3.934  1.6163 -0.8154 -0.8500
   40MOL   H90236080   1.821   7.248   3.483 -0.8904 -0.3404 -0.0785
   41MOL     C136081   8.085   7.506   1.605  0.0909 -0.5365  0.1006
   41MOL     C236082   8.152   7.414   1.522 -0.5376  0.1610 -0.5450
   41MOL     C336083   8.098   7.385   1.396 -0.4471 -0.3893 -0.4451
   41MOL     C436084   7.971   7.437   1.363 -0.1813  0.6516  0.5506
   41MOL     C536085   7.897   7.520   1.454  0.3640 -0.1591 -0.8992
   41MOL     C636086   7.962   7.563   1.571 -0.2980  0.4641 -0.2881
   41MOL     S736087   7.880   7.375   1.211  0.1163  0.5271 -0.1814
   41MOL     O836088   7.953   7.270   1.148 -0.1031  0.5084  0.1689
   41MOL     O936089   7.842   7.497   1.137 -0.0553 -0.3590 -0.4271
   41MOL    C1036090   7.716   7.310   1.274  0.2392  0.5044 -0.3396
   41MOL    C1136091   7.712   7.171   1.303  0.2217  0.0117  0.1229
   41MOL    C1236092   7.598   7.118   1.364 -0.5863  0.0638 -0.4163
   41MOL    C1336093   7.486   7.204   1.388  0.5503  0.2079  0.2098
   41MOL    C1436094   7.486   7.337   1.351 -0.0245  0.1685 -1.0760
   41MOL    C1536095   7.604   7.392   1.294 -0.3127  0.3171 -0.2786
   41MOL    O1636096   7.374   7.150   1.443 -0.0703 -0.4521  0.4441
   41MOL    C1736097   7.321   7.034   1.392 -0.0742  0.6424  0.2650
   41MOL    C1836098   7.339   6.904   1.446 -0.3205 -0.7283  0.2392
   41MOL    C1936099   7.290   6.791   1.378 -0.0760  0.1727  0.1077
   41MOL    C2036100   7.232   6.812   1.252 -0.2306  1.0932 -0.2286
   41MOL    C2136101   7.207   6.938   1.200 -1.0369  0.0762  0.2106
   41MOL    C2236102   7.251   7.049   1.272 -0.4259 -0.5372  0.1495
   41MOL    C2336103   7.194   6.692   1.176 -0.1179 -0.2632  1.4666
   41MOL    C2436104   7.291   6.607   1.128 -0.5025 -0.3669  0.8348
   41MOL    C2536105   7.252   6.500   1.046 -0.1053 -0.0093 -0.2106
   41MOL    C2636106   7.113   6.464   1.039 -0.3891  0.4403  0.1347
   41MOL    C2736107   7.020   6.534   1.120 -0.7992  0.4449 -0.3330
   41MOL    C2836108   7.059   6.657   1.175 -0.6364 -0.6675  0.0470
   41MOL    O2936109   7.073   6.371   0.948 -0.0794 -0.3097  0.0426
   41MOL    H3036110   8.242   7.362   1.553 -0.4865  1.5501  1.7137
   41MOL    H3136111   8.139   7.302   1.341 -0.1441 -2.0782  2.2004
   41MOL    H3236112   7.796   7.549   1.428  0.9259  0.7323 -2.1268
   41MOL    H3336113   7.908   7.629   1.637 -0.2964 -0.9549  1.1397
   41MOL    H3436114   7.798   7.108   1.290  2.6304  3.2053 -0.0354
   41MOL    H3536115   7.608   7.021   1.410  0.8211  0.9465  1.2139
   41MOL    H3636116   7.406   7.409   1.361  2.0556  2.3943  0.2831
   41MOL    H3736117   7.612   7.498   1.281 -2.0644  0.3977 -0.8782
   41MOL    H3836118   7.401   6.881   1.531 -1.1172 -3.0944  0.2081
   41MOL    H3936119   7.298   6.689   1.414  0.4698 -0.3132 -1.3503
   41MOL    H4036120   7.145   6.939   1.111  1.7938  2.1840 -1.8409
   41MOL    H4136121   7.237   7.148   1.232 -0.6423  0.0202  1.5864
   41MOL    H4236122   7.398   6.621   1.132 -0.0912 -2.2817 -1.8775
   41MOL    H4336123   7.328   6.432   1.012  0.4369  0.1820  0.6080
   41MOL    H4436124   6.917   6.503   1.124 -0.8355  0.7461  3.3948
   41MOL    H4536125   6.981   6.717   1.220  0.7726 -0.0588  1.7366
   41MOL    H4636126   8.127   7.529   1.702  2.7015  1.2298 -1.3803
   41MOL    C4736127   7.058   6.419   0.819 -0.5858  0.2496 -0.4431
   41MOL    C4836128   7.015   6.553   0.789  0.4206 -0.4376 -0.0492
   41MOL    C4936129   6.991   6.589   0.654  0.4958  0.1328 -0.1740
   41MOL    C5036130   7.033   6.500   0.552  0.9152 -0.0823 -1.1046
   41MOL    C5136131   7.075   6.369   0.582 -0.1007  0.5175 -0.5885
   41MOL    C5236132   7.087   6.332   0.716 -0.1597  0.2077 -0.5386
   41MOL    S5336133   7.013   6.550   0.379 -0.0199 -0.0158  0.0703
   41MOL    O5436134   6.926   6.674   0.374 -0.4806  0.3322  0.1370
   41MOL    O5536135   6.961   6.431   0.305 -0.0102  0.1528  1.1741
   41MOL    C5636136   7.168   6.593   0.303  0.4439 -0.7450  0.3483
   41MOL    C5736137   7.242   6.706   0.346 -0.5757 -0.4805 -1.2620
   41MOL    C5836138   7.351   6.742   0.272 -0.0613 -0.7571  0.0866
   41MOL    C5936139   7.400   6.671   0.161 -0.0494 -0.2678  0.3016
   41MOL    C6036140   7.318   6.566   0.112  0.4460 -1.1417  0.2799
   41MOL    C6136141   7.198   6.535   0.178 -0.1195  0.1066  0.0259
   41MOL    O6236142   7.514   6.711   0.090 -0.4796 -0.6568  0.4228
   41MOL    C6336143   7.637   6.721   0.142  0.5247  0.4577 -0.0927
   41MOL    C6436144   7.691   6.634   0.244  0.5658 -0.0997 -0.2702
   41MOL    C6536145   7.817   6.658   0.288  0.1953 -0.0399  0.1824
   41MOL    C6636146   7.899   6.751   0.226 -0.5443 -0.7457 -0.2847
   41MOL    C6736147   7.850   6.835   0.124 -0.7350 -0.1955  0.5020
   41MOL    C6836148   7.713   6.829   0.092  0.1985  0.3422  0.2549
   41MOL    C6936149   8.042   6.761   0.266 -0.4528 -0.0445 -0.1994
   41MOL    C7036150   8.085   6.732   0.400  0.1096 -0.0448  0.0773
   41MOL    C7136151   8.223   6.743   0.436  0.5746 -0.3549 -0.7769
   41MOL    C7236152   8.319   6.780   0.344  0.7724  0.0522  0.8396
   41MOL    C7336153   8.274   6.813   0.212  0.3644 -0.2402  0.6149
   41MOL    C7436154   8.137   6.804   0.172  0.6123  0.2037 -0.4366
   41MOL    O7536155   0.083   6.770   0.377  0.5988  0.1750 -0.1603
   41MOL    H7636156   6.989   6.625   0.865  2.0158  1.5371 -1.3104
   41MOL    H7736157   6.954   6.686   0.624  0.2855  0.4162  0.9672
   41MOL    H7836158   7.085   6.302   0.499  2.4362  0.7113 -0.4789
   41MOL    H7936159   7.122   6.232   0.735 -1.3885  0.0189  0.9040
   41MOL    H8036160   7.204   6.764   0.428 -0.1270  0.5771 -1.7955
   41MOL    H8136161   7.414   6.823   0.305 -3.1203  1.9730 -0.5631
   41MOL    H8236162   7.336   6.514   0.019  1.6145  1.7582 -1.1831
   41MOL    H8336163   7.143   6.449   0.142  0.8172 -0.4741 -0.0331
   41MOL    H8436164   7.631   6.552   0.281 -2.3240  0.9768 -2.3800
   41MOL    H8536165   7.856   6.598   0.369 -2.8838 -0.7605  1.1718
   41MOL    H8636166   7.909   6.915   0.082  0.2335 -0.9615  0.3910
   41MOL    H8736167   7.666   6.905   0.032 -1.2571  0.0706  1.0331
   41MOL    H8836168   8.017   6.695   0.475 -1.2748 -0.8018 -1.5177
   41MOL    H8936169   8.262   6.728   0.536 -0.7603  2.8610  0.3122
   41MOL    H9036170   8.353   6.843   0.145 -0.4516  3.0713  1.0786
   41MOL    H9136171   8.107   6.836   0.074 -1.1435  0.3162  0.1158
   41MOL    C9236172   0.165   6.689   0.308  0.4519  0.4087  0.3344
   41MOL    C9336173   0.134   6.551   0.270 -0.1754  0.4106  0.1804
   41MOL    C9436174   0.222   6.473   0.195  0.4144  0.4424 -0.6977
   41MOL    C9536175   0.337   6.535   0.147  0.2538 -0.1119 -0.5516
   41MOL    C9636176   0.370   6.667   0.189 -0.4195 -0.0806 -0.0022
   41MOL    C9736177   0.290   6.741   0.278  0.3631 -0.3765 -0.5141
   41MOL    S9836178   0.454   6.449   0.046  0.1665  0.4632 -0.2462
   41MOL    O9936179   0.550   6.556   0.005 -0.0825 -0.0657  0.1665
   41MOL   O10036180   0.384   6.366   8.318  0.6139 -0.2126  0.2085
   41MOL   C10136181   0.529   6.331   0.155 -0.2549 -1.0180  0.2826
   41MOL   C10236182   0.605   6.232   0.095 -0.2999  0.4740  0.0354
   41MOL   C10336183   0.665   6.130   0.167  0.3363  0.0948 -0.2811
   41MOL   C10436184   0.679   6.152   0.308 -0.0345  0.3845  0.0704
   41MOL   C10536185   0.613   6.256   0.367  0.2993 -0.6137  0.1606
   41MOL   C10636186   0.532   6.343   0.294  0.0508 -0.0782  0.0346
   41MOL   O10736187   0.752   6.066   0.387 -0.7044  0.3576  0.4506
   41MOL   C10836188   0.866   6.012   0.342 -0.1389 -0.3355 -0.1707
   41MOL   C10936189   0.980   6.084   0.373 -0.6300  0.2673  0.1827
   41MOL   C11036190   1.104   6.021   0.351  0.1923 -0.0084  0.1019
   41MOL   C11136191   1.120   5.884   0.317 -0.2610 -0.1645  0.3879
   41MOL   C11236192   0.996   5.812   0.292  1.1160 -0.2167  0.7582
   41MOL   C11336193   0.872   5.882   0.294 -0.2730 -0.5312 -0.0806
   41MOL   C11436194   1.257   5.820   0.307  0.3415  0.5372 -0.2163
   41MOL   C11536195   1.373   5.882   0.367 -0.8237  0.0697  0.7552
   41MOL   C11636196   1.501   5.821   0.363  0.5486  0.0343  0.0828
   41MOL   C11736197   1.522   5.700   0.290  0.1706  0.0048  0.5960
   41MOL   C11836198   1.407   5.636   0.237  0.2355  0.0766 -0.4074
   41MOL   C11936199   1.280   5.702   0.235 -0.1066  0.2244 -0.1304
   41MOL   O12036200   1.643   5.645   0.300 -0.5982  0.0534  0.5419
   41MOL   H12136201   0.053   6.496   0.316  0.9915  0.8093  2.8118
   41MOL   H12236202   0.201   6.371   0.165  0.6826 -0.1551  1.0778
   41MOL   H12336203   0.459   6.721   0.161 -0.7637 -0.8420 -2.7086
   41MOL   H12436204   0.315   6.843   0.304 -0.2579 -0.0343 -1.2643
   41MOL   H12536205   0.606   6.220   8.354  2.1253 -1.5281  0.2278
   41MOL   H12636206   0.715   6.048   0.116  0.2887 -0.2612  0.2485
   41MOL   H12736207   0.626   6.261   0.474 -1.5559  1.0414  0.3472
   41MOL   H12836208   0.469   6.417   0.342 -1.3713 -0.0608 -1.7973
   41MOL   H12936209   0.975   6.185   0.410 -4.1557  0.5219 -0.8073
   41MOL   H13036210   1.195   6.078   0.366 -0.5129  0.3904  3.1785
   41MOL   H13136211   1.000   5.705   0.278 -0.3890  0.0759 -2.1591
   41MOL   H13236212   0.785   5.822   0.271 -0.9300  0.6579 -0.7235
   41MOL   H13336213   1.367   5.968   0.432  0.6731 -0.0210  1.0320
   41MOL   H13436214   1.583   5.870   0.414 -0.1467  1.0497  0.2498
   41MOL   H13536215   1.401   5.545   0.179  1.8834 -0.9699  1.0266
   41MOL   H13636216   1.197   5.663   0.178  0.1854 -2.4219  1.2091
   41MOL   C13736217   1.683   5.566   0.196  0.4844  0.5056 -0.7981
   41MOL   C13836218   1.685   5.426   0.220  0.6024 -0.3494 -0.1145
   41MOL   C13936219   1.741   5.341   0.122 -0.5614  0.9923  0.2009
   41MOL   C14036220   1.795   5.401   0.003  0.0760 -0.1194 -0.2195
   41MOL   C14136221   1.792   5.539   8.347  0.0977  0.4582  0.6326
   41MOL   C14236222   1.734   5.623   0.078  0.5334 -0.1317 -0.8147
   41MOL   S14336223   1.882   5.289   8.266 -0.1149 -0.3011  0.0608
   41MOL   O14436224   1.976   5.218   8.351  0.3023 -0.1181  0.3480
   41MOL   O14536225   1.932   5.360   8.148  0.1321 -0.0026  0.0635
   41MOL   C14636226   1.761   5.164   8.208 -0.0901  0.2579  0.0640
   41MOL   C14736227   1.801   5.029   8.189  0.3006  0.1227 -0.0397
   41MOL   C14836228   1.711   4.930   8.141  0.3396 -0.1894  0.0735
   41MOL   C14936229   1.570   4.966   8.124 -0.0320 -0.4821 -0.2764
   41MOL   C15036230   1.535   5.104   8.143 -0.4882  0.8240 -0.1609
   41MOL   C15136231   1.624   5.202   8.182  1.0750  0.0127 -0.4940
   41MOL   O15236232   1.468   4.878   8.089  0.4423  0.1958  0.4042
   41MOL   C15336233   1.403   4.822   8.200  0.5420  0.8835 -0.1368
   41MOL   C15436234   1.273   4.861   8.220  0.3446  0.5290 -0.4826
   41MOL   C15536235   1.203   4.831   8.338  0.1884  0.4764 -0.1884
   41MOL   C15636236   1.267   4.748   0.074  0.6402  0.1537 -0.6100
   41MOL   C15736237   1.396   4.697   0.047 -0.1315 -0.0885  0.0993
   41MOL   C15836238   1.465   4.741   8.299  0.3966 -0.2189 -0.7578
   41MOL   C15936239   1.206   4.714   0.199 -0.1908  1.4862  0.3504
   41MOL   C16036240   1.288   4.727   0.318  0.2744  0.3428 -0.0122
   41MOL   C16136241   1.234   4.724   0.452 -0.3921  0.7203  0.2947
   41MOL   C16236242   1.098   4.691   0.465 -0.7550 -0.4716  0.3478
   41MOL   C16336243   1.022   4.664   0.353  0.6043 -0.2948 -0.2954
   41MOL   C16436244   1.071   4.689   0.224  0.0877 -0.0738  0.7390
   41MOL   O16536245   1.039   4.676   0.584  0.0930  0.2903 -0.3836
   41MOL   H16636246   1.644   5.390   0.313 -0.4972  0.2079 -0.3811
   41MOL   H16736247   1.747   5.234   0.140 -0.5142  1.1474  1.1038
   41MOL   H16836248   1.833   5.586   8.259 -1.7127  0.9563  0.0421
   41MOL   H16936249   1.724   5.731   0.072  0.6331  0.0624  2.0158
   41MOL   H17036250   1.904   5.008   8.213  0.4028 -2.0716 -2.1943
   41MOL   H17136251   1.737   4.825   8.134  0.5574 -0.3101  2.1487
   41MOL   H17236252   1.430   5.131   8.138 -0.8082 -0.0827  1.1656
   41MOL   H17336253   1.606   5.305   8.212 -0.6075 -0.5828  0.6107
   41MOL   H17436254   1.224   4.921   8.145 -0.9450 -1.0436 -0.9286
   41MOL   H17536255   1.103   4.871   8.351  0.8354  2.0774 -0.0660
   41MOL   H17636256   1.456   4.635   0.112  0.3618 -0.2697 -0.5169
   41MOL   H17736257   1.570   4.719   8.283  0.6759  0.2898  0.3938
   41MOL   H17836258   1.390   4.755   0.297  0.3273 -0.8916 -1.5038
   41MOL   H17936259   1.295   4.750   0.537 -0.3029  0.6935  0.2389
   41MOL   H18036260   0.920   4.633   0.370  0.8585  0.6087  3.1675
   41MOL   H18136261   0.999   4.685   0.143 -0.0878  1.9537  0.7853
   41MOL   C18236262   1.049   4.784   0.671 -0.9197 -0.2184  0.6728
   41MOL   C18336263   1.056   4.752   0.810  0.3578 -0.6007 -0.1090
   41MOL   C18436264   1.043   4.856   0.904  0.0692 -0.2652  0.4877
   41MOL   C18536265   1.046   4.987   0.862 -0.1449  0.2544 -0.4011
   41MOL   C18636266   1.053   5.023   0.720 -0.5254  0.4309  0.2619
   41MOL   C18736267   1.049   4.920   0.624  0.8035  0.0260 -0.6145
   41MOL   S18836268   1.032   5.125   0.979 -0.1071  0.1427 -0.2205
   41MOL   O18936269   0.894   5.177   0.962 -0.5313 -0.1676 -0.5948
   41MOL   O19036270   1.141   5.215   0.939  0.5314 -0.3903  0.1911
   41MOL   C19136271   1.050   5.070   1.144 -0.1752 -0.4091  0.6869
   41MOL   C19236272   1.177   5.088   1.200 -0.7800  0.2368 -0.1460
   41MOL   C19336273   1.199   5.066   1.338 -0.1837 -0.7010  0.2306
   41MOL   C19436274   1.096   5.015   1.412 -0.1365  0.1680 -0.1985
   41MOL   C19536275   0.965   5.009   1.359 -0.2154  0.1868 -0.4468
   41MOL   C19636276   0.940   5.036   1.224 -0.6774 -0.4865  0.6320
   41MOL   O19736277   1.121   4.978   1.543 -0.1754 -0.0674  0.4866
   41MOL   C19836278   1.067   4.866   1.592 -0.6970  0.3094 -0.1283
   41MOL   C19936279   1.102   4.738   1.543 -0.0157 -0.3272  0.1444
   41MOL   C20036280   1.060   4.617   1.601 -0.9609 -0.2001 -0.3261
   41MOL   C20136281   0.965   4.626   1.707 -0.8915  0.0291  0.3653
   41MOL   C20236282   0.932   4.749   1.761  0.0407 -0.0270 -0.1757
   41MOL   C20336283   0.990   4.868   1.707 -0.3952  0.0466 -0.0273
   41MOL   C20436284   0.902   4.503   1.768  0.4965  0.2940  0.7281
   41MOL   C20536285   0.762   4.497   1.800  0.0772  0.1756  0.2952
   41MOL   C20636286   0.705   4.372   1.838  0.2450  0.3020 -0.1011
   41MOL   C20736287   0.786   4.254   1.836 -1.0424  0.7864 -0.2625
   41MOL   C20836288   0.920   4.263   1.804 -0.1188 -0.4590 -0.4591
   41MOL   C20936289   0.976   4.384   1.771  0.2949 -0.1714 -0.4590
   41MOL   O21036290   0.732   4.134   1.862  0.3063  0.0016  0.6262
   41MOL   H21136291   1.041   4.652   0.845  0.2059  0.0257  1.6401
   41MOL   H21236292   1.024   4.829   1.007  0.5791 -0.3339  0.5690
   41MOL   H21336293   1.055   5.121   0.674  2.4730 -0.1987 -1.0522
   41MOL   H21436294   1.039   4.946   0.519  0.8232  1.6440 -0.2266
   41MOL   H21536295   1.261   5.114   1.137 -1.1428  0.3920 -0.5719
   41MOL   H21636296   1.295   5.091   1.382 -0.8724 -0.1038  1.4167
   41MOL   H21736297   0.892   4.965   1.425 -1.0810  1.5925 -0.4317
   41MOL   H21836298   0.848   5.018   1.171  1.5681 -1.5793 -3.0661
   41MOL   H21936299   1.167   4.741   1.457 -0.2553  0.6541 -0.0150
   41MOL   H22036300   1.094   4.524   1.557 -2.8680 -2.0087  1.9198
   41MOL   H22136301   0.876   4.761   1.853 -1.9965  0.3124 -1.4297
   41MOL   H22236302   0.971   4.962   1.757 -1.2892  0.2338 -0.7039
   41MOL   H22336303   0.696   4.583   1.805 -2.1184 -1.3116 -2.1885
   41MOL   H22436304   0.599   4.359   1.851  0.2766  1.4489  1.4623
   41MOL   H22536305   0.976   4.172   1.788  0.9538  0.3401 -1.3597
   41MOL   H22636306   1.083   4.382   1.761  0.6367  2.1291  2.1014
   41MOL   C22736307   0.667   4.079   1.754  0.3658 -0.3970 -0.2905
   41MOL   C22836308   0.738   4.015   1.649 -0.1890 -0.7162  1.1206
   41MOL   C22936309   0.672   3.948   1.546  0.2730 -0.5772  0.6300
   41MOL   C23036310   0.527   3.958   1.544  0.0680 -1.5385  0.3332
   41MOL   C23136311   0.457   4.045   1.634  0.0633  0.0611 -0.8183
   41MOL   C23236312   0.529   4.100   1.743 -0.1794  0.1081  0.0278
   41MOL   S23336313   0.432   3.871   1.419  0.0887  0.2931 -0.0392
   41MOL   O23436314   0.521   3.854   1.306  0.3692 -0.1705 -0.5869
   41MOL   O23536315   0.301   3.935   1.392  0.8334 -0.0969 -0.4531
   41MOL   C23636316   0.395   3.713   1.496  0.4721 -0.2868  0.0472
   41MOL   C23736317   0.475   3.600   1.460  0.2861  0.4728  0.1902
   41MOL   C23836318   0.446   3.477   1.519  0.2217  0.3054 -0.5937
   41MOL   C23936319   0.349   3.466   1.619  0.5320  0.2007  0.0874
   41MOL   C24036320   0.273   3.574   1.657 -0.2189  0.1266  0.6625
   41MOL   C24136321   0.285   3.696   1.585 -0.3663  0.8718 -0.9794
   41MOL   O24236322   0.339   3.354   1.698 -0.1122  0.6595  0.9019
   41MOL   C24336323   0.337   3.232   1.641 -0.2117  0.8005 -0.4846
   41MOL   C24436324   0.268   3.205   1.526 -0.6152  0.2734  0.5635
   41MOL   C24536325   0.243   3.076   1.483 -1.2324 -0.5409  0.4805
   41MOL   C24636326   0.311   2.969   1.550 -0.0584  0.4162 -0.4825
   41MOL   C24736327   0.391   2.993   1.663 -0.9745  0.0836 -0.3042
   41MOL   C24836328   0.407   3.121   1.710 -0.0290  0.2344  0.3935
   41MOL   C24936329   0.316   2.828   1.500  0.3725 -0.1468  0.2243
   41MOL   C25036330   0.433   2.760   1.496 -0.4170 -0.2192  0.7182
   41MOL   C25136331   0.446   2.643   1.412 -0.6286 -0.2685  0.1260
   41MOL   C25236332   0.335   2.577   1.351 -0.4563 -0.3722 -0.1377
   41MOL   C25336333   0.214   2.644   1.364  0.2618 -0.5179  0.3546
   41MOL   C25436334   0.206   2.765   1.439 -0.2496 -0.1103  0.4296
   41MOL   O25536335   0.359   2.462   1.279 -0.2117 -0.0562 -0.4547
   41MOL   H25636336   0.843   3.994   1.665  0.2581  0.2907 -0.4998
   41MOL   H25736337   0.724   3.891   1.470 -0.0357  0.6612 -0.5435
   41MOL   H25836338   0.350   4.058   1.625  0.3344  1.5855 -2.0133
   41MOL   H25936339   0.481   4.163   1.817  0.7959  0.2893  0.5220
   41MOL   H26036340   0.552   3.606   1.385 -1.7861  0.8058 -1.9831
   41MOL   H26136341   0.511   3.393   1.498  0.3754  1.0992 -3.4991
   41MOL   H26236342   0.209   3.573   1.744 -1.6589  1.7446 -0.3272
   41MOL   H26336343   0.215   3.772   1.615  0.3888  1.7379 -1.4086
   41MOL   H26436344   0.206   3.276   1.474  1.1734  1.6601  0.2566
   41MOL   H26536345   0.192   3.068   1.389  1.9697 -0.2999 -1.3411
   41MOL   H26636346   0.436   2.912   1.719 -0.7429  0.5147  0.1358
   41MOL   H26736347   0.456   3.144   1.803  1.4217 -0.3473 -0.2026
   41MOL   H26836348   0.521   2.803   1.543 -0.5795 -2.1243  2.8229
   41MOL   H26936349   0.543   2.596   1.403  0.4215  2.0804 -1.2752
   41MOL   H27036350   0.126   2.600   1.319 -0.3413 -0.9453  1.9355
   41MOL   H27136351   0.112   2.816   1.454 -0.1630 -0.2423  1.4503
   41MOL   C27236352   0.389   2.343   1.346  0.0670 -1.1008  0.2571
   41MOL   C27336353   0.344   2.304   1.474 -0.1684 -0.2691  0.0515
   41MOL   C27436354   0.382   2.177   1.529 -0.4810  0.1733 -1.0422
   41MOL   C27536355   0.467   2.090   1.458  0.6295  0.2494 -0.1490
   41MOL   C27636356   0.518   2.135   1.336  0.3838 -0.0852 -0.3813
   41MOL   C27736357   0.472   2.256   1.280 -0.2480  0.0776  0.0603
   41MOL   S27836358   0.529   1.943   1.538  0.1320  0.2357  0.0280
   41MOL   O27936359   0.542   1.841   1.435  0.1755  0.0005 -0.5284
   41MOL   O28036360   0.449   1.916   1.658  0.3491  0.2240 -0.1861
   41MOL   C28136361   0.692   1.979   1.582  0.4293 -0.0572 -0.6583
   41MOL   C28236362   0.784   1.879   1.615  0.4109 -0.4843  0.0739
   41MOL   C28336363   0.917   1.909   1.645  0.9300 -0.2246  0.1077
   41MOL   C28436364   0.955   2.044   1.660  0.4467  0.0306  0.0151
   41MOL   C28536365   0.859   2.148   1.647 -0.3306  0.3178  0.3440
   41MOL   C28636366   0.731   2.112   1.599 -0.1676 -0.5427 -0.4502
   41MOL   O28736367   1.083   2.068   1.697  0.3392  0.5235  0.1966
   41MOL   C28836368   1.137   2.192   1.675 -0.3236 -0.0143  0.1673
   41MOL   C28936369   1.182   2.278   1.779 -0.2037 -0.6050  0.3269
   41MOL   C29036370   1.239   2.407   1.747  0.3764 -1.1244  0.3291
   41MOL   C29136371   1.253   2.446   1.610 -0.6686 -0.1853  0.2588
   41MOL   C29236372   1.204   2.358   1.507 -0.5519  0.8885 -0.3023
   41MOL   C29336373   1.157   2.228   1.542 -0.6414 -0.3706  0.1754
   41MOL   C29436374   1.306   2.575   1.569  0.1041 -0.9674 -0.0115
   41MOL   C29536375   1.228   2.693   1.581  0.3217  0.0385 -0.0521
   41MOL   C29636376   1.281   2.814   1.552 -0.3446 -0.6847  0.4015
   41MOL   C29736377   1.423   2.831   1.530 -0.0418 -0.1797  1.0683
   41MOL   C29836378   1.502   2.718   1.508 -0.6929  0.5182 -0.1815
   41MOL   C29936379   1.442   2.590   1.528  0.2731  0.3226  0.1259
   41MOL   O30036380   1.486   2.956   1.511  0.4139  0.1227 -0.7907
   41MOL   H30136381   0.264   2.355   1.525  1.3995  0.6550  1.6237
   41MOL   H30236382   0.337   2.143   1.621 -2.0054 -0.5491 -2.0383
   41MOL   H30336383   0.589   2.073   1.284  0.3698  1.1829 -1.9594
   41MOL   H30436384   0.507   2.268   1.179  1.7819 -0.6107  0.6736
   41MOL   H30536385   0.748   1.777   1.619 -2.3860  0.3909 -1.3939
   41MOL   H30636386   0.993   1.834   1.659 -0.4510 -2.3267 -3.1592
   41MOL   H30736387   0.895   2.245   1.679  2.0957 -0.5029  0.1972
   41MOL   H30836388   0.662   2.194   1.588  1.1795  0.4066 -1.9147
   41MOL   H30936389   1.173   2.249   1.883 -0.4118  0.8680  0.7240
   41MOL   H31036390   1.288   2.469   1.820 -1.4677  0.4155  0.2908
   41MOL   H31136391   1.213   2.383   1.402  1.6236 -2.1996 -0.9409
   41MOL   H31236392   1.114   2.173   1.460 -1.2329 -1.1858  1.0262
   41MOL   H31336393   1.123   2.696   1.606  0.2911 -1.2448  0.0070
   41MOL   H31436394   1.233   2.909   1.567  2.1215  0.3551  2.0724
   41MOL   H31536395   1.606   2.734   1.483 -1.2059  0.0582 -2.7509
   41MOL   H31636396   1.506   2.502   1.522 -0.8538 -0.5159  0.3282
   41MOL   C31736397   1.456   3.020   1.399  0.1627 -0.3290 -0.4611
   41MOL   C31836398   1.405   3.146   1.418  0.7427  0.7361  0.2268
   41MOL   C31936399   1.354   3.226   1.310  0.6529  0.0782 -0.7376
   41MOL   C32036400   1.365   3.175   1.184  0.4239  0.9577 -0.6101
   41MOL   C32136401   1.423   3.045   1.157 -0.7193  0.2897 -0.3086
   41MOL   C32236402   1.472   2.968   1.268  0.2460 -0.6681 -0.0371
   41MOL   S32336403   1.292   3.273   1.054 -0.2518 -0.1959  0.0591
   41MOL   O32436404   1.293   3.191   0.932 -0.5800  0.0120  0.4944
   41MOL   O32536405   1.347   3.409   1.049  0.5864  0.3216 -0.5128
   41MOL   C32636406   1.129   3.300   1.118 -0.3187 -1.0384 -0.1973
   41MOL   C32736407   1.069   3.422   1.088  0.6178 -0.5195 -0.4879
   41MOL   C32836408   0.940   3.448   1.136  0.1849 -0.3778 -0.4020
   41MOL   C32936409   0.873   3.354   1.217 -0.1898 -0.1529  0.0226
   41MOL   C33036410   0.931   3.231   1.250  1.1211  0.1303 -0.1687
   41MOL   C33136411   1.053   3.201   1.191 -0.1897  0.1845 -0.3493
   41MOL   O33236412   0.751   3.389   1.266 -0.2718  0.2123 -0.1529
   41MOL   C33336413   0.640   3.317   1.227 -0.4444  0.3802 -0.3065
   41MOL   C33436414   0.568   3.353   1.113 -0.1275  0.1086 -0.2720
   41MOL   C33536415   0.449   3.281   1.089  0.0303 -0.1357  0.3307
   41MOL   C33636416   0.407   3.166   1.164  0.5148 -0.0053 -0.6648
   41MOL   C33736417   0.494   3.135   1.273 -0.3263 -0.4729  0.0674
   41MOL   C33836418   0.601   3.208   1.311  0.0466  0.2814 -0.2371
   41MOL   C33936419   0.286   3.086   1.139  0.0055  0.5653 -0.1331
   41MOL   C34036420   0.290   2.947   1.162 -0.1281  0.1457 -0.4731
   41MOL   C34136421   0.182   2.862   1.133  0.2568  0.8622 -0.7169
   41MOL   C34236422   0.058   2.915   1.091 -0.4556  0.7061  0.0660
   41MOL   C34336423   0.050   3.057   1.074  0.4931 -0.6711  0.0022
   41MOL   C34436424   0.163   3.135   1.091  0.4865 -0.0637  0.2394
   41MOL   O34536425   8.317   2.844   1.047 -0.2863 -0.5706  0.6715
   41MOL   H34636426   1.418   3.184   1.518  0.7099 -0.2856  0.6248
   41MOL   H34736427   1.323   3.327   1.329 -1.1654 -0.7663  0.9451
   41MOL   H34836428   1.442   3.008   1.058  0.7648  0.6996 -0.1923
   41MOL   H34936429   1.521   2.873   1.260 -1.1802 -1.3662 -0.6603
   41MOL   H35036430   1.114   3.497   1.024 -1.2960  0.8966 -0.2242
   41MOL   H35136431   0.890   3.536   1.099 -0.1560  0.2611  1.5092
   41MOL   H35236432   0.879   3.161   1.315  0.9828 -1.7281 -2.2158
   41MOL   H35336433   1.097   3.103   1.202  0.7428  0.6220 -0.1345
   41MOL   H35436434   0.589   3.435   1.046 -0.3792 -0.7571 -1.4200
   41MOL   H35536435   0.387   3.310   1.005 -0.2280  0.4033  0.7074
   41MOL   H35636436   0.477   3.050   1.336  0.9804 -0.1430  0.8926
   41MOL   H35736437   0.660   3.175   1.396 -1.0458 -0.4522  0.2512
   41MOL   H35836438   0.383   2.908   1.201  0.3973  0.2192 -1.6346
   41MOL   H35936439   0.197   2.755   1.124  2.8178  1.2409 -1.4521
   41MOL   H36036440   8.328   3.111   1.041  0.9949 -0.8077 -1.5936
   41MOL   H36136441   0.154   3.240   1.068 -2.6813 -0.0195  1.4058
   41MOL   C36236442   8.254   2.766   1.132 -0.1818 -0.0562 -0.5245
   41MOL   C36336443   8.170   2.816   1.236  0.8329  0.4362 -0.1054
   41MOL   C36436444   8.115   2.729   1.327  0.1359 -0.4129 -0.1791
   41MOL   C36536445   8.124   2.597   1.311 -0.7128  0.0663  0.1378
   41MOL   C36636446   8.194   2.538   1.204 -0.0348  0.0774 -0.1399
   41MOL   C36736447   8.268   2.631   1.116  0.2489 -0.1169 -0.1068
   41MOL   S36836448   8.059   2.492   1.444  0.4417  0.0562 -0.3352
   41MOL   O36936449   7.975   2.571   1.536  0.3743  0.0287  0.6252
   41MOL   O37036450   8.175   2.413   1.492 -0.0213 -0.5003  0.5760
   41MOL   C37136451   7.945   2.381   1.358 -0.4845 -0.2752 -0.2395
   41MOL   C37236452   7.805   2.409   1.349 -0.4507  0.2891 -0.6340
   41MOL   C37336453   7.726   2.315   1.278 -0.6284 -0.6972 -0.2698
   41MOL   C37436454   7.788   2.207   1.216 -0.0186  0.6746 -0.9840
   41MOL   C37536455   7.926   2.172   1.235 -0.4669 -0.3742  0.6047
   41MOL   C37636456   8.006   2.263   1.311 -0.7085  0.0636 -0.4717
   41MOL   O37736457   7.718   2.123   1.140  0.1383  0.2786  0.4593
   41MOL   C37836458   7.714   2.127   1.003 -0.4427 -0.6970 -0.7629
   41MOL   C37936459   7.785   2.033   0.929  0.7515 -0.2714 -0.5171
   41MOL   C38036460   7.813   2.054   0.796  0.5731  0.2546  0.5128
   41MOL   C38136461   7.749   2.159   0.722 -0.4740 -0.0323 -0.5934
   41MOL   C38236462   7.654   2.241   0.796  0.4056  0.4205 -0.2716
   41MOL   C38336463   7.632   2.218   0.935 -0.0396  0.4499 -0.0393
   41MOL   C38436464   7.792   2.209   0.588  0.4252  0.2802  0.3255
   41MOL   C38536465   7.812   2.347   0.568 -0.5347 -0.3153 -0.1562
   41MOL   C38636466   7.850   2.395   0.439 -0.4330 -0.1989  0.3175
   41MOL   C38736467   7.864   2.311   0.330  0.7945 -0.6753  0.4639
   41MOL   C38836468   7.850   2.175   0.350 -1.2222 -0.2461 -0.2740
   41MOL   C38936469   7.812   2.130   0.478 -0.1295  0.1895  0.3865
   41MOL   O39036470   7.901   2.346   0.203 -0.3536 -0.0519 -0.2029
   41MOL   H39136471   8.146   2.920   1.254  0.6846  0.0485  2.0520
   41MOL   H39236472   8.052   2.769   1.405 -0.4239  0.7090 -1.2001
   41MOL   H39336473   8.215   2.433   1.221  0.5301  0.3542  0.8447
   41MOL   H39436474   8.336   2.586   1.046  0.0143 -0.2281 -0.2644
   41MOL   H39536475   7.760   2.494   1.398 -0.8166  0.4584 -1.2530
   41MOL   H39636476   7.620   2.333   1.277 -0.5772 -0.4003 -0.3533
   41MOL   H39736477   7.961   2.080   1.192  0.2957  0.3301 -0.3219
   41MOL   H39836478   8.110   2.243   1.332 -1.1445 -0.2690  1.4372
   41MOL   H39936479   7.845   1.955   0.974 -0.4794 -0.5544  0.6840
   41MOL   H40036480   7.889   1.989   0.755  0.5683  0.0972  0.7532
   41MOL   H40136481   7.596   2.319   0.748  0.4937  0.5892 -0.1075
   41MOL   H40236482   7.564   2.279   0.994 -2.7475 -2.1535 -0.3882
   41MOL   H40336483   7.796   2.409   0.654 -1.6704 -2.4211  1.1911
   41MOL   H40436484   7.869   2.501   0.426  0.1540 -0.0670  2.1472
   41MOL   H40536485   7.863   2.107   0.267  0.9451  1.1628 -1.1314
   41MOL   H40636486   7.786   2.026   0.485 -1.6759  0.4488 -1.1826
   41MOL   C40736487   7.854   2.465   0.149 -0.4091  0.6529  0.7899
   41MOL   C40836488   7.951   2.530   0.072  0.1492 -1.0524 -0.1787
   41MOL   C40936489   7.917   2.658   0.017 -0.0767  0.5068  0.5912
   41MOL   C41036490   7.781   2.704   0.030  0.3927 -0.3218  0.1843
   41MOL   C41136491   7.683   2.627   0.103  0.4626  0.0384  0.3241
   41MOL   C41236492   7.719   2.508   0.161 -0.3136  0.0512 -0.7073
   41MOL   S41336493   7.730   2.844   8.307  0.0607  0.2425 -0.0037
   41MOL   O41436494   7.841   2.941   8.301  0.5587 -0.0282  0.3153
   41MOL   O41536495   7.598   2.881   0.004 -0.1072  0.0225 -0.2868
   41MOL   C41636496   7.707   2.767   8.146  0.2613  0.1453  0.0269
   41MOL   C41736497   7.803   2.680   8.088 -0.8962 -0.2400  0.1753
   41MOL   C41836498   7.765   2.614   7.964 -0.0517 -0.0792  0.5019
   41MOL   C41936499   7.641   2.638   7.902  0.2119 -0.2046 -0.2258
   41MOL   C42036500   7.548   2.735   7.961  0.4320  0.6725 -0.1709
   41MOL   C42136501   7.580   2.796   8.086 -0.2170  0.1791 -1.3360
   41MOL   O42236502   7.610   2.579   7.779 -0.2544 -0.2618  0.4477
   41MOL   C42336503   7.477   2.573   7.741  0.2263  0.3698  0.2514
   41MOL   C42436504   7.399   2.465   7.783 -0.7353 -0.2812 -0.3330
   41MOL   C42536505   7.275   2.454   7.726  0.6257 -0.5775  0.1988
   41MOL   C42636506   7.224   2.539   7.626 -0.0601  0.4822  0.2320
   41MOL   C42736507   7.304   2.654   7.593 -0.0253 -0.0488  0.2735
   41MOL   C42836508   7.436   2.665   7.644 -0.0441  0.2659  0.0038
   41MOL   C42936509   7.111   2.505   7.544 -0.0721 -0.4739 -0.5962
   41MOL   C43036510   7.081   2.372   7.513  0.6306 -0.3019  0.3917
   41MOL   C43136511   6.977   2.338   7.434  0.3669  0.4428  0.3305
   41MOL   C43236512   6.904   2.441   7.371 -0.3078 -0.0247  0.5124
   41MOL   C43336513   6.922   2.576   7.411  0.0034 -0.3475 -0.2275
   41MOL   C43436514   7.029   2.610   7.494  0.9199 -0.3752 -1.1629
   41MOL   O43536515   6.808   2.422   7.274 -0.2054  0.6120 -0.1357
   41MOL   H43636516   8.050   2.488   0.062  1.6982  2.7322 -1.7239
   41MOL   H43736517   7.996   2.712   8.333 -0.8526 -0.9097 -2.2727
   41MOL   H43836518   7.579   2.654   0.105  0.4307  0.1279 -1.6838
   41MOL   H43936519   7.649   2.445   0.215  1.6349 -2.1445 -0.6787
   41MOL   H44036520   7.898   2.670   8.138 -0.9060 -0.6843  0.1036
   41MOL   H44136521   7.826   2.548   7.904  2.1116  0.3635  2.1764
   41MOL   H44236522   7.455   2.770   7.917  0.9068  0.8230 -1.0821
   41MOL   H44336523   7.506   2.862   8.130  1.3227  0.7957  0.4097
   41MOL   H44436524   7.438   2.402   7.862 -2.2504 -2.2824 -1.1328
   41MOL   H44536525   7.209   2.379   7.768 -0.8261  0.2718 -0.5081
   41MOL   H44636526   7.275   2.733   7.525  1.1397 -2.4843 -3.1909
   41MOL   H44736527   7.507   2.739   7.611  1.3159 -0.5010  1.1410
   41MOL   H44836528   7.140   2.296   7.562 -0.3208 -2.8441 -2.2627
   41MOL   H44936529   6.965   2.236   7.400 -3.0862  0.8777  0.0438
   41MOL   H45036530   6.851   2.644   7.366 -1.4755 -0.5703  1.6884
   41MOL   H45136531   7.043   2.713   7.521 -1.9974 -0.1086 -0.5563
   41MOL   C45236532   6.696   2.351   7.308 -0.4458  0.3049 -0.6620
   41MOL   C45336533   6.691   2.210   7.311  0.3633 -0.0812  0.7970
   41MOL   C45436534   6.571   2.149   7.331 -0.0390 -0.0337 -0.6716
   41MOL   C45536535   6.455   2.222   7.356 -0.6307  0.6354  0.0465
   41MOL   C45636536   6.455   2.355   7.349  0.0196 -0.5219  0.4537
   41MOL   C45736537   6.575   2.425   7.325 -1.1517  0.1201 -0.0320
   41MOL   S45836538   6.300   2.132   7.390 -0.1353  0.1701  0.6073
   41MOL   O45936539   6.314   1.991   7.348 -0.1617  0.2135  0.8427
   41MOL   O46036540   6.186   2.211   7.344 -0.3196 -0.0638 -0.5878
   41MOL   C46136541   6.284   2.139   7.568  0.0719  0.0170  0.0412
   41MOL   C46236542   6.397   2.140   7.651  0.4565  0.4462 -0.3069
   41MOL   C46336543   6.382   2.156   7.794  0.1141  0.6095 -0.2575
   41MOL   C46436544   6.252   2.166   7.847  0.5939 -0.2104 -0.4423
   41MOL   C46536545   6.139   2.156   7.763 -0.4454  0.5972  0.1772
   41MOL   C46636546   6.159   2.130   7.626  0.5283 -0.0110  0.8208
   41MOL   O46736547   6.223   2.188   7.981 -0.2267 -0.1930  0.2730
   41MOL   C46836548   6.259   2.312   8.038 -0.0500  0.1212 -0.5879
   41MOL   C46936549   6.391   2.339   8.081  0.3405 -0.7665  0.2742
   41MOL   C47036550   6.428   2.463   8.136  0.5624 -0.2000  0.1119
   41MOL   C47136551   6.333   2.560   8.164  1.1103  0.2731 -0.1006
   41MOL   C47236552   6.196   2.531   8.127  0.3882 -0.5343  0.2991
   41MOL   C47336553   6.158   2.418   8.053  0.2548  0.7332 -0.3933
   41MOL   C47436554   6.379   2.682   8.233  0.4436 -0.1565 -0.2769
   41MOL   C47536555   6.516   2.730   8.225  0.3163  0.4963 -0.4813
   41MOL   C47636556   6.563   2.834   8.304 -0.1766 -0.2804 -0.6027
   41MOL   C47736557   6.479   2.901   0.031  0.6206  0.6073  0.3070
   41MOL   C47836558   6.345   2.854   0.040 -0.9355 -1.0003 -0.0704
   41MOL   C47936559   6.301   2.748   8.325  0.3629  0.3646 -0.0869
   41MOL   O48036560   6.529   2.998   0.116  0.7534  0.0953 -0.4758
   41MOL   H48136561   6.786   2.159   7.299  0.0289 -0.6544  0.5645
   41MOL   H48236562   6.573   2.041   7.322 -0.2700 -0.0639 -0.3776
   41MOL   H48336563   6.367   2.417   7.359  1.5797  1.4984  2.1151
   41MOL   H48436564   6.579   2.533   7.328  2.3361 -0.0026  4.6620
   41MOL   H48536565   6.495   2.136   7.606  1.8031 -0.4615  2.5957
   41MOL   H48636566   6.468   2.171   7.858 -1.1464  2.6176  0.9975
   41MOL   H48736567   6.042   2.163   7.810 -0.5867  0.8160 -0.1405
   41MOL   H48836568   6.073   2.120   7.562 -1.0093  0.5091  2.7653
   41MOL   H48936569   6.469   2.266   8.070 -0.0597 -1.0552 -0.7100
   41MOL   H49036570   6.531   2.480   8.163 -0.0340  1.5857  1.3398
   41MOL   H49136571   6.112   2.593   8.153 -0.0767 -1.4503  1.0238
   41MOL   H49236572   6.056   2.392   8.029  0.6291 -3.5629  2.0654
   41MOL   H49336573   6.582   2.696   8.146  0.8993  1.3488 -0.3768
   41MOL   H49436574   6.664   2.867   8.285  0.8382 -1.8504  1.9180
   41MOL   H49536575   6.278   2.904   0.109 -2.6784  0.4864 -2.7506
   41MOL   H49636576   6.198   2.718   8.339  0.8143 -0.9379  0.4972
   41MOL   C49736577   6.608   2.946   0.217 -0.0347  0.0109  0.0670
   41MOL   C49836578   6.741   2.991   0.236  0.3734  0.0281 -0.4978
   41MOL   C49936579   6.819   2.913   0.327 -0.3728 -0.0846 -0.2327
   41MOL   C50036580   6.777   2.794   0.391  0.5773 -0.3780  0.3583
   41MOL   C50136581   6.644   2.754   0.375  0.3477 -0.0375 -0.7068
   41MOL   C50236582   6.561   2.832   0.291 -1.4889 -0.0086 -0.0135
   41MOL   S50336583   6.893   2.693   0.485  0.0953 -0.3431 -0.3846
   41MOL   O50436584   6.837   2.585   0.571  0.3504 -0.4393 -0.0774
   41MOL   O50536585   6.980   2.794   0.552 -0.3143  0.0703 -0.0975
   41MOL   C50636586   6.990   2.605   0.365  0.2220 -0.0622 -0.3073
   41MOL   C50736587   7.133   2.602   0.361 -0.0202  0.5644  0.6113
   41MOL   C50836588   7.202   2.526   0.262  0.6040  0.2004  0.5757
   41MOL   C50936589   7.126   2.449   0.172  0.9491 -0.0495  0.0767
   41MOL   C51036590   6.988   2.450   0.180 -0.0139  0.0013  0.0683
   41MOL   C51136591   6.923   2.523   0.277  1.1299  0.3297 -0.6499
   41MOL   O51236592   7.194   2.392   0.069  0.5855 -0.0976 -0.1317
   41MOL   C51336593   7.252   2.274   0.092 -0.2973 -0.3709  0.5376
   41MOL   C51436594   7.393   2.269   0.100 -0.0644 -0.5483  0.1586
   41MOL   C51536595   7.455   2.149   0.130 -0.7037  0.9055 -0.4870
   41MOL   C51636596   7.381   2.033   0.157  0.4223  0.7583 -0.1833
   41MOL   C51736597   7.242   2.040   0.151 -0.4424  0.5205 -0.5153
   41MOL   C51836598   7.175   2.161   0.125 -0.2422 -0.2592 -0.2753
   41MOL   C51936599   7.452   1.907   0.162 -0.0321  0.1834 -0.0944
   41MOL   C52036600   7.515   1.867   0.281  0.3622 -1.0705 -0.6848
   41MOL   C52136601   7.590   1.753   0.294 -0.6845 -0.2453  0.9029
   41MOL   C52236602   7.610   1.675   0.177 -0.2130  0.5583  0.0997
   41MOL   C52336603   7.557   1.719   0.056 -0.2814 -0.1987 -0.8849
   41MOL   C52436604   7.477   1.834   0.051 -0.4265  0.4929 -0.2211
   41MOL   O52536605   7.680   1.554   0.180 -0.4048 -0.0633  0.6468
   41MOL   H52636606   6.773   3.079   0.182 -2.3384  0.5930 -1.2887
   41MOL   H52736607   6.924   2.935   0.325  0.0838 -2.2847 -2.3749
   41MOL   H52836608   6.599   2.666   0.419 -0.4093  0.4934 -0.4179
   41MOL   H52936609   6.461   2.804   0.259 -1.1872 -1.2466  0.1303
   41MOL   H53036610   7.188   2.659   0.435 -0.0705  0.3165  0.8421
   41MOL   H53136611   7.309   2.525   0.245  0.3150 -1.4057 -1.4480
   41MOL   H53236612   6.928   2.393   0.111  1.1677 -0.5909 -0.4996
   41MOL   H53336613   6.818   2.499   0.290  0.7237  1.0778 -2.3559
   41MOL   H53436614   7.454   2.355   0.077  0.8522 -1.3131 -0.3149
   41MOL   H53536615   7.563   2.142   0.133 -0.8101 -1.5246 -1.1429
   41MOL   H53636616   7.193   1.944   0.157  3.6422 -1.5657  0.9320
   41MOL   H53736617   7.067   2.171   0.127 -0.1081  1.2236 -0.3181
   41MOL   H53836618   7.509   1.928   0.371  2.0859 -0.2466 -1.0959
   41MOL   H53936619   7.630   1.718   0.388 -1.0609 -1.0277  0.7778
   41MOL   H54036620   7.583   1.652   8.341 -2.0238 -1.0319 -0.7710
   41MOL   H54136621   7.438   1.860   8.320 -0.9801  0.4825 -0.0017
   41MOL   C54236622   7.610   1.441   0.213  0.1890  0.1755 -0.6704
   41MOL   C54336623   7.602   1.399   0.347  0.5197  0.4603 -0.0431
   41MOL   C54436624   7.544   1.272   0.377 -0.0062 -0.3609  0.3083
   41MOL   C54536625   7.492   1.193   0.277  0.5932 -0.2928  0.2400
   41MOL   C54636626   7.494   1.233   0.139 -0.3742 -0.4763  0.1908
   41MOL   C54736627   7.563   1.355   0.112 -0.1463  0.3330  0.5755
   41MOL   S54836628   7.398   1.047   0.318 -0.0616  0.4339  0.5478
   41MOL   O54936629   7.456   0.934   0.244  0.4003  0.1817 -0.3030
   41MOL   O55036630   7.258   1.088   0.293  0.4329  0.0595  0.0072
   41MOL   C55136631   7.415   1.014   0.490  1.1833  0.5331 -0.1001
   41MOL   C55236632   7.317   1.065   0.579  0.2070  0.5084 -0.2477
   41MOL   C55336633   7.332   1.054   0.714 -0.2841  0.9258 -0.3830
   41MOL   C55436634   7.439   0.974   0.766 -0.3358  1.5956 -0.3855
   41MOL   C55536635   7.537   0.926   0.679  0.2921  0.0093 -0.2569
   41MOL   C55636636   7.526   0.953   0.541 -0.4202 -0.5620 -0.2177
   41MOL   O55736637   7.440   0.952   0.897 -0.4851  0.0135 -0.5676
   41MOL   C55836638   7.545   0.891   0.966  0.4205  0.1072 -0.3124
   41MOL   C55936639   7.664   0.965   1.000  1.2538  0.4381 -0.2051
   41MOL   C56036640   7.779   0.904   1.065  0.5360 -0.1292 -0.4620
   41MOL   C56136641   7.771   0.765   1.092  0.0327  0.2471  0.3197
   41MOL   C56236642   7.654   0.696   1.068  0.4945 -0.1520  0.3015
   41MOL   C56336643   7.543   0.755   1.009  0.0828 -0.0948  0.1399
   41MOL   C56436644   7.890   0.697   1.146 -0.9796 -0.5035 -0.0588
   41MOL   C56536645   7.936   0.730   1.279 -0.7474  0.0731  0.3216
   41MOL   C56636646   8.025   0.637   1.345 -0.1898 -0.6254  0.3449
   41MOL   C56736647   8.081   0.524   1.285 -0.5293 -0.4837  0.3996
   41MOL   C56836648   8.040   0.495   1.152  0.2635  0.1317 -0.2693
   41MOL   C56936649   7.945   0.579   1.084 -0.8093 -0.5145  0.4433
   41MOL   O57036650   8.180   0.463   1.356 -0.0803  0.6009 -0.2379
   41MOL   H57136651   7.611   1.463   0.433 -0.0096  0.3559  0.0928
   41MOL   H57236652   7.535   1.242   0.480  0.2529  0.3106  0.5256
   41MOL   H57336653   7.445   1.177   0.060 -0.5350 -1.2139  0.8113
   41MOL   H57436654   7.572   1.378   0.006 -1.6799 -0.8182  0.1889
   41MOL   H57536655   7.226   1.112   0.544 -0.0727  0.7419  0.7773
   41MOL   H57636656   7.264   1.104   0.781  1.5040  0.2120  2.0046
   41MOL   H57736657   7.624   0.872   0.716  0.0981  0.7237  1.2940
   41MOL   H57836658   7.606   0.913   0.481  0.1716 -0.7252  0.6712
   41MOL   H57936659   7.667   1.070   0.974  0.5476  0.6853  0.6793
   41MOL   H58036660   7.876   0.948   1.082  1.9894 -3.0585 -0.8025
   41MOL   H58136661   7.646   0.590   1.089 -0.2461 -0.2964 -0.6276
   41MOL   H58236662   7.451   0.700   0.998  0.3472 -0.5074 -0.0215
   41MOL   H58336663   7.898   0.822   1.323 -2.5693 -0.0958 -0.8707
   41MOL   H58436664   8.059   0.664   1.444 -1.0809  0.6227  0.3224
   41MOL   H58536665   8.096   0.423   1.093  0.3661  0.5663 -0.7037
   41MOL   H58636666   7.898   0.550   0.991  2.7180 -1.5835 -1.0733
   41MOL   C58736667   8.202   0.324   1.356 -0.2642 -0.4212  0.3265
   41MOL   C58836668   8.338   0.287   1.355  0.3971  0.2526  0.0649
   41MOL   C58936669   0.004   0.151   1.349 -0.6309 -0.1187  0.2217
   41MOL   C59036670   8.269   0.053   1.350 -0.0874  0.6816  0.1940
   41MOL   C59136671   8.133   0.094   1.359 -0.1619  0.1603 -0.3406
   41MOL   C59236672   8.096   0.228   1.370 -0.3908 -0.2486 -0.0910
   41MOL   S59336673   8.302   8.243   1.330 -0.2811  0.1061 -0.3592
   41MOL   O59436674   8.178   8.169   1.373  0.0091 -0.0925 -0.2053
   41MOL   O59536675   0.062   8.215   1.395 -0.2647 -0.3581  0.0133
   41MOL   C59636676   8.301   8.217   1.149  0.3947 -0.4131  0.5835
   41MOL   C59736677   8.317   8.326   1.058  0.4076 -0.5791  0.5313
   41MOL   C59836678   8.285   8.304   0.921  0.6346  0.0787  0.0199
   41MOL   C59936679   8.236   8.174   0.878 -0.0683 -0.1285  0.1760
   41MOL   C60036680   8.231   8.068   0.972 -0.3677  1.1281 -0.8510
   41MOL   C60136681   8.272   8.084   1.107 -0.2810  0.1376  0.5060
   41MOL   O60236682   8.194   8.154   0.753 -0.2945  0.4157  0.5228
   41MOL   C60336683   8.294   8.095   0.678 -0.0850  0.7144 -0.1367
   41MOL   C60436684   0.036   8.168   0.633  0.7655 -0.4966  0.6134
   41MOL   C60536685   0.143   8.109   0.557 -0.3565 -0.4815 -0.1069
   41MOL   C60636686   0.136   7.978   0.518  0.2756 -0.3716 -0.4991
   41MOL   C60736687   0.019   7.911   0.552  0.0811 -0.1663 -0.2099
   41MOL   C60836688   8.286   7.960   0.640 -0.5273 -0.1211  0.7384
   41MOL   C60936689   0.239   7.910   0.433 -0.1770 -0.2446 -0.1859
   41MOL   C61036690   0.279   7.778   0.464  0.0264  0.5607 -0.1725
   41MOL   C61136691   0.379   7.710   0.393  0.7781  0.3571 -0.0820
   41MOL   C61236692   0.454   7.780   0.303 -0.6554 -0.4638  0.3025
   41MOL   C61336693   0.421   7.914   0.270 -1.3693 -0.3134  0.0172
   41MOL   C61436694   0.318   7.979   0.338  0.4612 -0.9046  0.3712
   41MOL   O61536695   0.558   7.726   0.232  0.3882  0.3344  0.0956
   41MOL   H61636696   0.055   0.356   1.343 -0.2763  1.2623  1.1427
   41MOL   H61736697   0.108   0.124   1.342 -0.5583  0.5008 -1.3390
   41MOL   H61836698   8.048   0.028   1.351 -0.1132  0.2143 -1.3735
   41MOL   H61936699   7.996   0.267   1.375 -0.0723  0.5754 -0.0637
   41MOL   H62036700   8.346   0.056   1.097 -0.1802 -0.5995  1.0200
   41MOL   H62136701   8.296   0.026   0.859  2.4005 -0.2605 -0.1821
   41MOL   H62236702   8.206   7.974   0.926  1.3331  0.0565  0.3279
   41MOL   H62336703   8.257   8.007   1.181 -1.0622 -0.3182 -0.1171
   41MOL   H62436704   0.051   8.274   0.646 -0.6276 -0.4241  1.6607
   41MOL   H62536705   0.222   8.171   0.517  0.4059  0.2277  2.4389
   41MOL   H62636706   0.006   7.812   0.510 -2.3298 -0.3756  0.9460
   41MOL   H62736707   8.196   7.905   0.660 -0.9708  0.7517  1.1858
   41MOL   H62836708   0.219   7.723   0.536 -0.4967 -0.3845 -1.3109
   41MOL   H62936709   0.400   7.607   0.416  0.0082 -0.0840 -1.3071
   41MOL   H63036710   0.490   7.961   0.201 -0.8978 -0.8898  0.0976
   41MOL   H63136711   0.307   8.084   0.317  2.5819 -0.8369 -0.5238
   41MOL   C63236712   0.540   7.689   0.105  0.6763  0.2487  0.0293
   41MOL   C63336713   0.494   7.558   0.078 -0.2674 -0.3599 -0.4863
   41MOL   C63436714   0.493   7.506   8.311  0.1346 -0.3010  0.6202
   41MOL   C63536715   0.531   7.595   8.209  0.6823  0.2420  0.7954
   41MOL   C63636716   0.559   7.727   8.233  0.7574 -0.8505  0.3903
   41MOL   C63736717   0.556   7.776   8.364 -0.1549 -0.4737 -0.9236
   41MOL   S63836718   0.559   7.537   8.034 -0.0756 -0.0620  0.0078
   41MOL   O63936719   0.637   7.414   8.042 -0.2505  0.0705  0.8116
   41MOL   O64036720   0.580   7.654   7.944 -0.6158  0.1768 -0.2279
   41MOL   C64136721   0.386   7.478   7.997  0.0765 -0.6205 -0.1251
   41MOL   C64236722   0.283   7.575   7.995 -0.3228  0.3190  0.5872
   41MOL   C64336723   0.156   7.533   7.952  0.7964 -0.1755 -0.3762
   41MOL   C64436724   0.128   7.400   7.916  0.3733  0.3477 -0.4888
   41MOL   C64536725   0.230   7.307   7.927 -0.4188 -0.3395 -0.1274
   41MOL   C64636726   0.360   7.344   7.967 -0.3647  0.0294 -0.7944
   41MOL   O64736727   0.002   7.375   7.871  0.2480  0.3677  0.7839
   41MOL   C64836728   8.344   7.407   7.741  0.1312  0.1783 -0.4210
   41MOL   C64936729   0.031   7.343   7.628  0.1591  0.0722 -0.1012
   41MOL   C65036730   8.360   7.385   7.496 -0.7133 -0.2717  0.3551
   41MOL   C65136731   8.280   7.495   7.470 -0.1860 -0.4865 -0.1041
   41MOL   C65236732   8.236   7.563   7.591 -0.0040  0.1678  0.0353
   41MOL   C65336733   8.264   7.522   7.719 -0.5982  0.1215 -0.2925
   41MOL   C65436734   8.240   7.551   7.335  0.0810  0.8479 -0.0702
   41MOL   C65536735   8.237   7.687   7.313  0.7741 -0.7622  0.8060
   41MOL   C65636736   8.186   7.742   7.198 -0.3830 -0.5829  0.1807
   41MOL   C65736737   8.146   7.662   7.091 -0.1977 -0.3672  0.0178
   41MOL   C65836738   8.134   7.528   7.118  0.2948  0.5231 -0.6207
   41MOL   C65936739   8.178   7.472   7.240 -0.6599 -0.2425  0.3476
   41MOL   O66036740   8.109   7.721   6.972  0.3541  0.2047  0.0405
   41MOL   H66136741   0.467   7.496   0.162 -2.0830 -1.5150 -1.8694
   41MOL   H66236742   0.451   7.408   8.296  1.5884 -0.8645  0.1200
   41MOL   H66336743   0.565   7.794   8.148 -2.0963 -0.3465  0.5325
   41MOL   H66436744   0.583   7.876   0.027 -1.2189 -0.7504  1.0836
   41MOL   H66536745   0.306   7.678   8.015  1.3746  0.3185 -1.1973
   41MOL   H66636746   0.074   7.602   7.946  1.3099  0.7383  2.3275
   41MOL   H66736747   0.204   7.205   7.903  0.6572 -1.3935  2.9147
   41MOL   H66836748   0.441   7.273   7.970  0.4192  0.8821 -1.4224
   41MOL   H66936749   0.095   7.258   7.645 -0.3699 -0.1428  0.8439
   41MOL   H67036750   0.047   7.340   7.413  0.1035  2.4116 -0.6036
   41MOL   H67136751   8.170   7.649   7.585 -0.4254 -0.1109  0.7487
   41MOL   H67236752   8.236   7.580   7.806  0.7165  1.3555 -0.6872
   41MOL   H67336753   8.269   7.760   7.387  1.2307 -1.1653  1.0094
   41MOL   H67436754   8.185   7.849   7.178 -1.4907 -0.0743  2.7725
   41MOL   H67536755   8.094   7.457   7.047 -0.3946 -0.3327  0.5951
   41MOL   H67636756   8.164   7.366   7.252  1.6038 -0.6299 -0.1148
   41MOL   C67736757   8.214   7.747   6.891 -0.2789 -0.1415  0.3597
   41MOL   C67836758   8.286   7.646   6.821  0.6020 -0.3157 -0.1625
   41MOL   C67936759   0.021   7.681   6.723 -0.3359  0.0540 -1.2444
   41MOL   C68036760   0.058   7.817   6.711 -0.7410 -0.3351 -0.2630
   41MOL   C68136761   8.360   7.914   6.783 -0.8121 -0.4811  0.1404
   41MOL   C68236762   8.254   7.884   6.867  0.2373 -0.4541 -1.3137
   41MOL   S68336763   0.177   7.860   6.581 -0.0445  0.2704 -0.3699
   41MOL   O68436764   0.156   8.001   6.548 -0.3211 -0.2267  0.4940
   41MOL   O68536765   0.159   7.763   6.473 -0.7554  0.2262 -0.5579
   41MOL   C68636766   0.351   7.841   6.641 -0.0575 -0.1925  0.4002
   41MOL   C68736767   0.379   7.765   6.759  0.4184  0.2220 -0.1159
   41MOL   C68836768   0.511   7.768   6.801 -0.5656 -0.2344 -0.1452
   41MOL   C68936769   0.615   7.834   6.733 -0.2227  0.0942 -0.2669
   41MOL   C69036770   0.579   7.912   6.614 -0.8997 -0.2601  0.1482
   41MOL   C69136771   0.446   7.912   6.569  0.9273 -0.6020  0.2007
   41MOL   O69236772   0.743   7.833   6.781  0.1531 -0.1005  0.1357
   41MOL   C69336773   0.831   7.786   6.692  0.6372  0.5754 -0.4182
   41MOL   C69436774   0.847   7.642   6.676  0.2816 -0.6888 -0.3367
   41MOL   C69536775   0.943   7.582   6.600  0.0665 -0.2333 -0.2453
   41MOL   C69636776   1.041   7.663   6.542  0.6789 -0.0862  0.1235
   41MOL   C69736777   1.027   7.805   6.552 -0.0303  0.0737  0.5320
   41MOL   C69836778   0.923   7.870   6.626  0.4290 -0.0688 -0.6510
   41MOL   C69936779   1.158   7.592   6.478  0.0243 -0.4024 -0.0990
   41MOL   C70036780   1.217   7.654   6.361 -0.4724  0.5578  0.1062
   41MOL   C70136781   1.330   7.588   6.306  0.4644 -0.4451 -0.9456
   41MOL   C70236782   1.387   7.471   6.370  0.0924  0.4010 -0.9095
   41MOL   C70336783   1.322   7.412   6.477  0.8372 -0.3495  0.3126
   41MOL   C70436784   1.212   7.475   6.537 -0.6793  0.2669  0.1421
   41MOL   O70536785   1.506   7.423   6.322  0.1035 -0.3458 -0.2561
   41MOL   H70636786   8.252   7.543   6.823 -1.1109  0.2232 -0.6437
   41MOL   H70736787   0.066   7.611   6.654  0.1038  0.9070 -1.8397
   41MOL   H70836788   0.026   8.016   6.766 -1.0613 -0.5293 -0.6782
   41MOL   H70936789   8.204   7.963   6.921  0.3194  0.0147 -1.9185
   41MOL   H71036790   0.299   7.709   6.805  2.5263 -2.7756  0.0839
   41MOL   H71136791   0.529   7.707   6.888 -2.8453 -0.3590  0.2796
   41MOL   H71236792   0.656   7.966   6.562 -3.3918  3.0848 -0.2388
   41MOL   H71336793   0.417   7.975   6.486  1.6317  0.5493  0.8257
   41MOL   H71436794   0.791   7.571   6.736  1.5378 -0.4802  1.1451
   41MOL   H71536795   0.944   7.476   6.585 -0.5769 -0.2066 -0.4733
   41MOL   H71636796   1.098   7.871   6.503  0.3694  0.4248  1.5711
   41MOL   H71736797   0.919   7.975   6.651 -1.2383 -0.5525  1.2318
   41MOL   H71836798   1.169   7.741   6.317 -1.2200 -0.2850 -0.7609
   41MOL   H71936799   1.389   7.614   6.219  1.4824 -0.5354 -0.2863
   41MOL   H72036800   1.365   7.330   6.533 -0.5581 -1.8658 -0.7782
   41MOL   H72136801   1.177   7.419   6.623  0.2668  0.0549  0.3886
   41MOL   C72236802   1.612   7.501   6.274  0.1845  0.1473  0.1308
   41MOL   C72336803   1.655   7.619   6.335  0.2691  0.0771 -0.5869
   41MOL   C72436804   1.757   7.702   6.289  0.6371 -0.6931 -0.4382
   41MOL   C72536805   1.812   7.666   6.168  0.8969  0.5537 -0.2609
   41MOL   C72636806   1.770   7.547   6.100  0.4337 -0.0485  0.1352
   41MOL   C72736807   1.669   7.464   6.149  0.2740  0.1279 -0.6117
   41MOL   S72836808   1.946   7.757   6.112  0.2115 -0.1732 -0.1760
   41MOL   O72936809   2.014   7.684   6.004  0.2801  0.0677 -0.8086
   41MOL   O73036810   2.021   7.791   6.232  0.1056 -0.2093 -0.3458
   41MOL   C73136811   1.873   7.901   6.044 -0.3262  0.2483 -0.1223
   41MOL   C73236812   1.756   7.898   5.966 -0.1066 -0.2683 -0.0130
   41MOL   C73336813   1.686   8.024   5.942 -0.2014 -0.1359 -0.8923
   41MOL   C73436814   1.740   8.146   5.992 -0.0801  0.2619  0.2874
   41MOL   C73536815   1.861   8.146   6.063 -0.7347 -1.2988  0.5308
   41MOL   C73636816   1.929   8.028   6.083 -0.0378  0.4815 -0.6811
   41MOL   O73736817   1.670   8.267   5.983  0.0429  0.1752  0.0622
   41MOL   C73836818   1.600   8.315   6.090 -0.3112 -0.3535  0.0209
   41MOL   C73936819   1.484   8.255   6.135 -0.0175 -0.0646 -0.6555
   41MOL   C74036820   1.406   8.318   6.238 -0.6423  0.1424 -0.5955
   41MOL   C74136821   1.451   0.075   6.293 -0.6070  0.9189  0.3600
   41MOL   C74236822   1.571   0.130   6.248  0.4308 -0.2213  0.3935
   41MOL   C74336823   1.640   0.072   6.141  0.4054 -0.2567 -0.6663
   41MOL   C74436824   1.367   0.134   6.397 -0.3117  0.2148  0.1873
   41MOL   C74536825   1.249   0.198   6.362  0.0351  0.2974  0.0184
   41MOL   C74636826   1.171   0.253   6.468  0.1125 -0.3466  0.4493
   41MOL   C74736827   1.211   0.240   6.603  0.1014 -0.6771  0.1404
   41MOL   C74836828   1.331   0.182   6.640 -0.8179  0.2205 -0.0164
   41MOL   C74936829   1.408   0.124   6.534  0.0729 -0.0543 -0.5103
   41MOL   O75036830   1.127   0.304   6.688  0.2416 -0.3081 -0.3370
   41MOL   H75136831   1.607   7.670   6.417 -0.5503 -1.7615  0.0844
   41MOL   H75236832   1.785   7.793   6.341 -0.0013 -0.6983 -0.0706
   41MOL   H75336833   1.817   7.517   6.008  1.7597  0.5023  0.6212
   41MOL   H75436834   1.632   7.375   6.101 -0.9701  1.3961 -2.0682
   41MOL   H75536835   1.713   7.806   5.928 -1.8768  1.5386 -2.5328
   41MOL   H75636836   1.589   8.022   5.894 -2.3886 -0.1418  3.3244
   41MOL   H75736837   1.897   8.244   6.089 -1.1391 -1.3563  1.3157
   41MOL   H75836838   2.029   8.032   6.123 -0.2394 -1.0424  0.0083
   41MOL   H75936839   1.460   8.167   6.077  0.1283  1.4870 -3.1533
   41MOL   H76036840   1.317   8.272   6.278 -0.3069  0.2460  0.2720
   41MOL   H76136841   1.601   0.216   6.306  0.4596  1.4687 -2.0535
   41MOL   H76236842   1.730   0.117   6.102  0.7800 -0.3096  0.1417
   41MOL   H76336843   1.220   0.210   6.259  1.3297 -0.0671 -0.4043
   41MOL   H76436844   1.088   0.319   6.451 -0.7331 -0.8051  2.5976
   41MOL   H76536845   1.371   0.183   6.740 -0.4280  0.5810 -0.1768
   41MOL   H76636846   1.503   0.080   6.560 -1.0227 -0.2276  3.5966
   41MOL   C76736847   1.162   0.344   6.817  0.2927  0.0976  0.6205
   41MOL   C76836848   1.231   0.463   6.845 -0.1361 -0.1360 -0.0909
   41MOL   C76936849   1.249   0.500   6.978  0.2832 -0.2497  0.6767
   41MOL   C77036850   1.212   0.414   7.085  0.1336  0.4236  0.0985
   41MOL   C77136851   1.152   0.291   7.054  0.1821 -0.6001 -0.8287
   41MOL   C77236852   1.130   0.257   6.920  0.5035  0.1010  0.5666
   41MOL   S77336853   1.244   0.464   7.248  0.1978  0.0285  0.2200
   41MOL   O77436854   1.177   0.374   7.342  0.4303  0.3075  0.0378
   41MOL   O77536855   1.208   0.604   7.251 -0.2879  0.5010 -0.9684
   41MOL   C77636856   1.419   0.448   7.276 -0.4980 -0.1182 -0.4025
   41MOL   C77736857   1.484   0.324   7.279  0.4186  0.0250  0.3393
   41MOL   C77836858   1.623   0.315   7.298 -0.2026  0.2775 -0.7103
   41MOL   C77936859   1.703   0.425   7.300  0.8994  0.2231 -0.4000
   41MOL   C78036860   1.646   0.552   7.291 -0.5656 -0.6703  0.3956
   41MOL   C78136861   1.503   0.561   7.279  0.3089  0.1485 -0.2604
   41MOL   O78236862   1.841   0.410   7.311  0.2118  0.1474  0.1734
   41MOL   C78336863   1.927   0.447   7.214 -0.0486 -0.2353 -0.1539
   41MOL   C78436864   2.057   0.482   7.247 -0.5168  0.1823 -0.0090
   41MOL   C78536865   2.155   0.526   7.159 -0.4233 -0.4019  0.5033
   41MOL   C78636866   2.125   0.542   7.022  0.4341 -0.0629  0.6079
   41MOL   C78736867   1.990   0.499   6.987  0.0882 -0.8985  0.0551
   41MOL   C78836868   1.889   0.456   7.078  0.0569  0.1062 -0.2956
   41MOL   C78936869   2.222   0.602   6.927  0.0372  0.3359  0.0014
   41MOL   C79036870   2.176   0.694   6.831  0.9466  0.4662 -0.4602
   41MOL   C79136871   2.261   0.760   6.746  0.1497  0.6943  0.0901
   41MOL   C79236872   2.396   0.746   6.759 -0.0937  0.1640  0.4903
   41MOL   C79336873   2.448   0.649   6.843 -0.3681  0.5184  0.0366
   41MOL   C79436874   2.360   0.572   6.930 -0.4094  0.0914 -0.2393
   41MOL   O79536875   2.487   0.812   6.683  0.4065 -0.0652  0.0686
   41MOL   H79636876   1.244   0.529   6.761 -0.1264  0.0331  0.0426
   41MOL   H79736877   1.302   0.592   6.994 -1.2680  0.9160 -0.7288
   41MOL   H79836878   1.131   0.219   7.132  0.7971 -0.4634 -0.5372
   41MOL   H79936879   1.091   0.162   6.887  0.0289  1.2552 -2.3998
   41MOL   H80036880   1.416   0.241   7.269 -0.6253  0.9337 -0.1446
   41MOL   H80136881   1.672   0.220   7.316  1.8795  1.2343 -1.1295
   41MOL   H80236882   1.717   0.633   7.295 -0.8997 -0.3141 -0.8283
   41MOL   H80336883   1.457   0.657   7.263 -3.9431 -1.5878  0.9985
   41MOL   H80436884   2.084   0.482   7.352 -1.4402 -0.5607  0.2383
   41MOL   H80536885   2.249   0.561   7.199 -0.2272  0.2612 -0.5231
   41MOL   H80636886   1.960   0.507   6.884  0.9397  1.4426 -0.0430
   41MOL   H80736887   1.790   0.437   7.040 -0.6923  0.4556  1.4593
   41MOL   H80836888   2.069   0.703   6.827  0.8928  0.1742  0.3377
   41MOL   H80936889   2.213   0.825   6.675  0.8977  0.8693 -0.2652
   41MOL   H81036890   2.555   0.639   6.848 -0.4284 -1.4719 -1.8648
   41MOL   H81136891   2.400   0.506   7.006 -2.4188  0.5704  1.2991
   41MOL   C81236892   2.526   0.936   6.720  0.0005  0.0968 -0.0194
   41MOL   C81336893   2.452   1.044   6.673  0.1757  0.1608 -0.0568
   41MOL   C81436894   2.485   1.170   6.719  1.3110 -0.0315  0.4942
   41MOL   C81536895   2.592   1.196   6.804 -0.1333  0.6714 -0.2295
   41MOL   C81636896   2.665   1.086   6.854  0.3224  0.5724  0.0404
   41MOL   C81736897   2.637   0.955   6.809 -0.0813  0.0182 -0.6966
   41MOL   S81836898   2.634   1.360   6.857 -0.0829  0.3670  0.2779
   41MOL   O81936899   2.644   1.447   6.738  0.2955  0.1311 -0.2168
   41MOL   O82036900   2.745   1.351   6.955 -0.1844 -0.3656 -0.2353
   41MOL   C82136901   2.491   1.412   6.948 -0.3083  0.5567  0.2669
   41MOL   C82236902   2.452   1.349   7.074  0.1126 -0.6019 -0.2802
   41MOL   C82336903   2.342   1.414   7.138 -0.0443  0.0778 -0.8344
   41MOL   C82436904   2.275   1.521   7.083  0.2789  0.0342 -0.4712
   41MOL   C82536905   2.305   1.562   6.949 -0.1573  0.2189  0.4244
   41MOL   C82636906   2.417   1.516   6.889 -0.8778 -0.2063  0.1425
   41MOL   O82736907   2.161   1.577   7.135 -0.2059 -0.3372 -0.3081
   41MOL   C82836908   2.175   1.689   7.211 -0.2736  0.3653  0.1711
   41MOL   C82936909   2.220   1.692   7.349  0.2179 -1.2763  0.2566
   41MOL   C83036910   2.230   1.817   7.411  0.1289  0.0760 -0.0566
   41MOL   C83136911   2.183   1.935   7.348  0.4553  0.0310  0.2136
   41MOL   C83236912   2.138   1.936   7.215  0.1237 -0.0676 -0.2569
   41MOL   C83336913   2.131   1.808   7.149 -0.0970  0.3508 -0.3678
   41MOL   C83436914   2.182   2.060   7.428 -0.2437 -0.0715 -0.0349
   41MOL   C83536915   2.218   2.183   7.376 -0.0202 -1.3880 -0.4777
   41MOL   C83636916   2.218   2.293   7.465  0.1281 -0.0656  0.5594
   41MOL   C83736917   2.188   2.290   7.604 -0.2683  0.2908  0.1129
   41MOL   C83836918   2.150   2.160   7.653  0.3219 -0.4794  0.2178
   41MOL   C83936919   2.142   2.053   7.563 -0.1935 -0.9806  0.1364
   41MOL   O84036920   2.207   2.401   7.679  0.5033 -0.5220 -0.1155
   41MOL   H84136921   2.367   1.034   6.608  1.2940  2.9398 -2.0672
   41MOL   H84236922   2.439   1.250   6.664  0.4424 -0.1745  1.0104
   41MOL   H84336923   2.744   1.095   6.927  0.5187 -0.7763  0.0078
   41MOL   H84436924   2.689   0.865   6.837 -2.2556 -1.0503  0.0263
   41MOL   H84536925   2.488   1.256   7.114  0.6790 -0.4176 -0.3520
   41MOL   H84636926   2.313   1.371   7.233  2.2134 -1.0768 -0.6222
   41MOL   H84736927   2.244   1.641   6.908  0.6030  0.0995 -0.9787
   41MOL   H84836928   2.442   1.558   6.793 -1.0076  2.9441  1.4270
   41MOL   H84936929   2.248   1.601   7.400  0.1280 -1.3710  0.1408
   41MOL   H85036930   2.268   1.812   7.512  0.1207 -2.2278 -0.1479
   41MOL   H85136931   2.115   2.026   7.161 -0.9575 -0.2171 -0.0619
   41MOL   H85236932   2.102   1.805   7.045 -0.5202  0.9614 -0.2745
   41MOL   H85336933   2.246   2.194   7.272  2.1766 -2.4373 -0.0285
   41MOL   H85436934   2.247   2.388   7.423  0.6350 -0.5643 -0.2301
   41MOL   H85536935   2.112   2.147   7.753 -1.1302 -0.9106 -0.3771
   41MOL   H85636936   2.095   1.962   7.597 -2.3676  0.2054  0.4335
   41MOL   C85736937   2.106   2.495   7.665  0.0113  0.1051  1.1202
   41MOL   C85836938   2.102   2.578   7.556  0.5350 -0.6635 -0.3124
   41MOL   C85936939   1.997   2.670   7.536 -0.6382  0.2195 -0.8078
   41MOL   C86036940   1.889   2.670   7.625 -0.0255  1.1965 -0.4253
   41MOL   C86136941   1.890   2.584   7.737  0.6695 -0.0604  0.1270
   41MOL   C86236942   1.996   2.497   7.754 -0.2680  0.1262  0.6739
   41MOL   S86336943   1.750   2.779   7.592  0.2434  0.0004  0.5766
   41MOL   O86436944   1.793   2.894   7.507  0.7464 -0.0358  0.7036
   41MOL   O86536945   1.694   2.811   7.724 -0.3303  0.1293  0.0199
   41MOL   C86636946   1.635   2.679   7.504 -0.2459  0.0725  0.3222
   41MOL   C86736947   1.681   2.572   7.426 -0.6589  0.4772  0.1203
   41MOL   C86836948   1.596   2.486   7.360 -0.1706  0.3209  0.6139
   41MOL   C86936949   1.460   2.504   7.377 -0.3152  0.6176  0.4156
   41MOL   C87036950   1.406   2.608   7.452 -0.0168 -0.3106 -0.6595
   41MOL   C87136951   1.495   2.702   7.511 -0.0754  0.3902 -0.2959
   41MOL   O87236952   1.375   2.404   7.324 -0.0860 -0.1302 -0.2432
   41MOL   C87336953   1.360   2.303   7.416 -0.1590  0.1706  0.2075
   41MOL   C87436954   1.441   2.187   7.411 -0.0234 -0.6342  0.3534
   41MOL   C87536955   1.424   2.078   7.498 -0.3719 -0.5174 -0.2975
   41MOL   C87636956   1.315   2.083   7.594  0.1782  1.2926 -0.0261
   41MOL   C87736957   1.241   2.197   7.603 -0.1337  0.0422 -0.4905
   41MOL   C87836958   1.257   2.307   7.515  0.2633  0.1202  0.5782
   41MOL   C87936959   1.296   1.973   7.690  0.1481 -0.4191 -0.3229
   41MOL   C88036960   1.172   1.930   7.742 -0.0964 -0.3126  0.7885
   41MOL   C88136961   1.164   1.821   7.833 -0.4948  0.0293  0.1070
   41MOL   C88236962   1.281   1.761   7.882  0.6141  0.1702  0.6023
   41MOL   C88336963   1.403   1.810   7.839  0.2730 -0.1446 -0.0392
   41MOL   C88436964   1.411   1.913   7.745  0.4100  0.4527 -0.5282
   41MOL   O88536965   1.272   1.650   7.971  0.2560 -0.0525  0.1122
   41MOL   H88636966   2.191   2.599   7.499  0.9924  3.6515  1.7871
   41MOL   H88736967   1.996   2.737   7.451 -1.1391  0.4667 -0.6044
   41MOL   H88836968   1.813   2.584   7.813 -0.0793 -1.9065 -0.6005
   41MOL   H88936969   1.999   2.434   7.841 -0.8759 -1.3202 -0.3142
   41MOL   H89036970   1.786   2.562   7.402 -0.8578 -2.3146  0.2150
   41MOL   H89136971   1.635   2.399   7.310 -0.4216  0.5335  0.0507
   41MOL   H89236972   1.300   2.630   7.456 -0.3785 -2.0793 -0.3720
   41MOL   H89336973   1.458   2.780   7.576  2.6526  0.2815  1.4708
   41MOL   H89436974   1.518   2.181   7.335 -0.7322  0.4425 -0.4571
   41MOL   H89536975   1.481   1.986   7.489  0.7842  0.2961 -1.4404
   41MOL   H89636976   1.160   2.203   7.674 -0.2380  0.9181 -0.6692
   41MOL   H89736977   1.196   2.396   7.511  0.9370  0.5713  0.1704
   41MOL   H89836978   1.082   1.971   7.699 -0.2314 -0.1148  1.2652
   41MOL   H89936979   1.067   1.790   7.869 -0.3230 -0.8115 -0.1585
   41MOL   H90036980   1.496   1.764   7.871 -0.0954 -0.2469  0.9069
   41MOL   H90136981   1.504   1.954   7.709  0.2096 -0.4017 -2.0623
   41MOL   H90236982   1.181   1.640   7.996 -0.1367  0.1358 -1.1976
   42MOL     C136983   3.735   6.597   5.782  0.2605  0.0825 -0.7384
   42MOL     C236984   3.653   6.564   5.895  0.1858  0.5048  0.4694
   42MOL     C336985   3.709   6.546   6.021  0.1688 -0.4550  0.6635
   42MOL     C436986   3.847   6.568   6.034 -0.5672 -0.8474  0.3905
   42MOL     C536987   3.925   6.621   5.931 -0.0989 -0.3312 -0.0584
   42MOL     C636988   3.873   6.631   5.800 -0.2344  0.4151 -0.2825
   42MOL     S736989   3.923   6.558   6.201  0.1069 -0.1234  0.0413
   42MOL     O836990   4.030   6.663   6.208  0.3169  0.1565 -0.1368
   42MOL     O936991   3.957   6.416   6.212  0.4159  0.6737 -0.4870
   42MOL    C1036992   3.794   6.607   6.311 -0.5580 -0.0285  0.4052
   42MOL    C1136993   3.752   6.512   6.409  0.1600  0.0202  0.0005
   42MOL    C1236994   3.640   6.534   6.489  0.3677 -0.0236  0.2678
   42MOL    C1336995   3.576   6.655   6.480  0.2210 -0.8139  0.3799
   42MOL    C1436996   3.610   6.751   6.382 -0.0697 -0.0696  0.2267
   42MOL    C1536997   3.723   6.728   6.300 -0.1491  0.0960 -0.4864
   42MOL    O1636998   3.479   6.669   6.574  0.0743 -0.0002  0.0917
   42MOL    C1736999   3.501   6.651   6.706 -0.7648  0.1792 -0.5658
   42MOL    C1837000   3.565   6.753   6.780  0.5958  0.3732  0.0327
   42MOL    C1937001   3.588   6.731   6.918  0.0069  0.6094 -0.0068
   42MOL    C2037002   3.535   6.622   6.989 -0.0781  0.0785 -0.4183
   42MOL    C2137003   3.452   6.530   6.916 -0.1301  0.1563  0.6058
   42MOL    C2237004   3.445   6.536   6.775 -0.0713 -1.0747 -0.2718
   42MOL    C2337005   3.572   6.605   7.125 -0.2523  0.9069 -0.1915
   42MOL    C2437006   3.488   6.539   7.212  0.1186 -0.1217  0.1096
   42MOL    C2537007   3.519   6.521   7.345 -0.4738  1.0205  0.4467
   42MOL    C2637008   3.641   6.567   7.393 -0.5179  0.2889 -0.4024
   42MOL    C2737009   3.734   6.631   7.307  0.0628  0.2836 -0.5582
   42MOL    C2837010   3.699   6.654   7.174  0.1004  0.3479 -0.8798
   42MOL    O2937011   3.680   6.539   7.521  0.1281  0.0010  0.0601
   42MOL    H3037012   3.547   6.553   5.878 -0.0932  0.5697  2.0866
   42MOL    H3137013   3.647   6.520   6.106  0.4580  0.2056  1.0796
   42MOL    H3237014   4.031   6.643   5.929  0.0240 -0.9660 -1.7746
   42MOL    H3337015   3.925   6.661   5.709  0.7504 -1.1847 -0.2718
   42MOL    H3437016   3.804   6.417   6.411  2.3373  1.1778  1.3772
   42MOL    H3537017   3.612   6.461   6.563 -1.7606  0.2756 -0.2193
   42MOL    H3637018   3.554   6.843   6.373  2.1796  1.6175  2.5318
   42MOL    H3737019   3.764   6.809   6.241  1.4770  0.0141  0.4643
   42MOL    H3837020   3.596   6.846   6.735  0.2692  1.6123  2.2592
   42MOL    H3937021   3.651   6.808   6.960  0.5689  0.8894 -1.3261
   42MOL    H4037022   3.407   6.445   6.965  0.7761 -1.0360 -0.6002
   42MOL    H4137023   3.373   6.483   6.715 -1.2701  0.5904 -0.3383
   42MOL    H4237024   3.391   6.505   7.180 -0.3148  1.8001 -0.6732
   42MOL    H4337025   3.447   6.487   7.419  0.5957 -0.4384  0.8508
   42MOL    H4437026   3.823   6.671   7.353 -1.2743  1.0036  1.4783
   42MOL    H4537027   3.771   6.704   7.111 -0.3273 -0.4842 -2.0645
   42MOL    H4637028   3.690   6.604   5.684 -1.0658  0.2040 -0.1448
   42MOL    C4737029   3.623   6.619   7.614  0.4891 -0.0196  0.2146
   42MOL    C4837030   3.657   6.753   7.626 -0.0225 -0.5050  0.3036
   42MOL    C4937031   3.593   6.830   7.725  0.1984 -0.4343 -0.1145
   42MOL    C5037032   3.480   6.783   7.789  0.5625 -0.2785  0.1646
   42MOL    C5137033   3.440   6.655   7.773 -0.3892 -0.1506  0.3803
   42MOL    C5237034   3.512   6.568   7.685 -0.2315  0.1525  0.4705
   42MOL    S5337035   3.383   6.901   7.884 -0.1741  0.5251  0.3942
   42MOL    O5437036   3.356   7.020   7.799  0.2875 -0.1719  0.8421
   42MOL    O5537037   3.455   6.910   8.011  0.2492  0.5458  0.0522
   42MOL    C5637038   3.221   6.827   7.919  0.4420 -0.7808 -0.2344
   42MOL    C5737039   3.216   6.728   8.017 -1.1658  0.1761 -0.2422
   42MOL    C5837040   3.092   6.663   8.041 -0.1012  0.2769  0.4350
   42MOL    C5937041   2.976   6.697   7.957 -0.6782 -0.0982 -0.1820
   42MOL    C6037042   2.995   6.794   7.854 -0.3384 -0.1374 -0.8710
   42MOL    C6137043   3.116   6.859   7.836 -0.7168 -0.0061  0.1443
   42MOL    O6237044   2.860   6.623   7.984  0.1344  0.0705  0.3441
   42MOL    C6337045   2.780   6.594   7.880  0.0539 -0.0769  0.0776
   42MOL    C6437046   2.654   6.651   7.867  0.0446 -0.8988  0.2112
   42MOL    C6537047   2.574   6.613   7.765  0.8193  0.1762  0.0132
   42MOL    C6637048   2.618   6.514   7.667 -0.8732  0.6340 -0.1072
   42MOL    C6737049   2.746   6.463   7.677 -0.2998  0.3311 -0.4391
   42MOL    C6837050   2.825   6.494   7.787  0.4118 -0.4246  0.3740
   42MOL    C6937051   2.532   6.475   7.554 -0.3862  0.6039  0.2158
   42MOL    C7037052   2.503   6.339   7.526 -0.6583  0.4410  0.4453
   42MOL    C7137053   2.404   6.296   7.443  0.4067 -0.1887  0.1886
   42MOL    C7237054   2.311   6.391   7.387 -0.7740 -0.2223  0.2022
   42MOL    C7337055   2.339   6.528   7.410  0.3820  0.2663  0.6118
   42MOL    C7437056   2.450   6.570   7.482  0.2072 -0.6260 -0.2578
   42MOL    O7537057   2.202   6.362   7.302  0.4464 -0.2011  0.2952
   42MOL    H7637058   3.733   6.798   7.565  0.1116  1.1182  1.6001
   42MOL    H7737059   3.628   6.932   7.732 -1.7016  0.3448 -1.3169
   42MOL    H7837060   3.351   6.615   7.818 -0.1001  0.0918  1.1620
   42MOL    H7937061   3.490   6.463   7.674  1.2430 -0.0195 -1.0985
   42MOL    H8037062   3.303   6.708   8.079 -1.7378 -1.1959  0.1476
   42MOL    H8137063   3.089   6.590   8.120  1.8332 -0.6697 -0.3467
   42MOL    H8237064   2.917   6.832   7.790  0.7533  1.0638 -1.5172
   42MOL    H8337065   3.125   6.944   7.769  0.6549  2.0774  2.8737
   42MOL    H8437066   2.619   6.722   7.941  0.5383  0.7823 -1.1135
   42MOL    H8537067   2.474   6.651   7.750  1.5174  2.0320 -0.1550
   42MOL    H8637068   2.788   6.406   7.596  0.5995 -1.0745  0.9883
   42MOL    H8737069   2.918   6.440   7.796  1.2037  0.4577 -1.9153
   42MOL    H8837070   2.556   6.258   7.573 -2.3547 -0.9027  0.0850
   42MOL    H8937071   2.387   6.195   7.411  0.0258 -0.3162  0.7767
   42MOL    H9037072   2.271   6.601   7.369  0.3162 -1.5782 -2.7200
   42MOL    H9137073   2.474   6.675   7.488 -1.1080 -0.0395 -4.0525
   42MOL    C9237074   2.252   6.346   7.174  0.1929 -0.2751 -0.2704
   42MOL    C9337075   2.320   6.228   7.129  0.0816  0.3134  0.5946
   42MOL    C9437076   2.368   6.222   6.999  1.1201  0.5963  0.3348
   42MOL    C9537077   2.356   6.329   6.914 -0.1016  0.0219  0.0987
   42MOL    C9637078   2.286   6.443   6.955 -0.6655 -0.3430  0.0242
   42MOL    C9737079   2.226   6.448   7.078 -0.0727 -0.6197  0.5466
   42MOL    S9837080   2.421   6.321   6.748  0.3071 -0.0221 -0.1199
   42MOL    O9937081   2.375   6.439   6.671  0.6617  0.2585  0.3959
   42MOL   O10037082   2.389   6.190   6.700  0.2457 -0.3239 -0.1028
   42MOL   C10137083   2.589   6.348   6.767  0.2329  0.3490 -0.1627
   42MOL   C10237084   2.643   6.412   6.875  0.6128 -0.3962 -0.4056
   42MOL   C10337085   2.780   6.414   6.892 -0.3382  0.5998 -0.8235
   42MOL   C10437086   2.866   6.357   6.794 -0.1513 -0.2079  0.2928
   42MOL   C10537087   2.807   6.317   6.669  0.0544 -0.3163  0.1395
   42MOL   C10637088   2.668   6.297   6.662  0.0073  0.4725  0.3970
   42MOL   O10737089   3.000   6.377   6.807 -0.0605 -0.0558 -0.2793
   42MOL   C10837090   3.087   6.356   6.700 -0.5408  0.5297  0.4128
   42MOL   C10937091   3.140   6.225   6.670 -0.2271  0.2978 -0.4023
   42MOL   C11037092   3.212   6.202   6.549  0.9507 -0.4751  0.2166
   42MOL   C11137093   3.243   6.310   6.463 -0.0546  0.3161  0.4157
   42MOL   C11237094   3.199   6.440   6.500 -0.1139 -0.0997  0.5662
   42MOL   C11337095   3.113   6.461   6.614 -0.0712  0.0746  0.7167
   42MOL   C11437096   3.319   6.289   6.336 -0.0950  0.4915  0.1138
   42MOL   C11537097   3.460   6.298   6.338  0.2672  0.0406  0.0409
   42MOL   C11637098   3.530   6.268   6.222  0.0505 -0.1679  0.2808
   42MOL   C11737099   3.466   6.220   6.108  1.2823 -0.2798  0.0408
   42MOL   C11837100   3.325   6.220   6.103  0.3822 -0.6959  0.5896
   42MOL   C11937101   3.252   6.248   6.224  0.1520 -0.5984  0.3094
   42MOL   O12037102   3.542   6.181   6.001 -0.4515 -0.1663  0.2653
   42MOL   H12137103   2.340   6.147   7.198 -2.7172 -1.2990 -0.4110
   42MOL   H12237104   2.428   6.138   6.967  2.3014  1.7703 -0.5447
   42MOL   H12337105   2.273   6.522   6.882 -1.4104  0.7104  1.2710
   42MOL   H12437106   2.176   6.535   7.118  1.8187  0.7396  0.0220
   42MOL   H12537107   2.577   6.447   6.953  0.3372  1.1781 -1.3435
   42MOL   H12637108   2.825   6.456   6.981  0.2871 -0.7423 -0.5063
   42MOL   H12737109   2.866   6.272   6.590 -1.1961  0.5774 -1.3191
   42MOL   H12837110   2.618   6.255   6.576  0.9078  1.9576 -0.8814
   42MOL   H12937111   3.133   6.144   6.741  2.4108 -0.1206 -0.5534
   42MOL   H13037112   3.250   6.105   6.521  1.5863  0.4152 -2.1732
   42MOL   H13137113   3.210   6.525   6.434 -1.8305 -0.0601  0.3156
   42MOL   H13237114   3.064   6.557   6.626  1.6372  1.3046 -1.5343
   42MOL   H13337115   3.507   6.302   6.435  3.4978  3.7456 -1.5898
   42MOL   H13437116   3.638   6.274   6.218 -0.0418  1.0697 -0.8451
   42MOL   H13537117   3.274   6.189   6.012  0.1283  2.8046 -0.5357
   42MOL   H13637118   3.144   6.238   6.221 -0.0809  0.6859  2.6664
   42MOL   C13737119   3.573   6.045   5.993 -0.4993 -0.2563 -0.0187
   42MOL   C13837120   3.702   6.016   5.947 -0.5386 -1.9742  0.4088
   42MOL   C13937121   3.749   5.882   5.926  0.0581 -0.3563 -0.2946
   42MOL   C14037122   3.656   5.781   5.971  0.3244  0.1309 -0.0170
   42MOL   C14137123   3.530   5.803   6.026 -0.4499  0.5433  0.3544
   42MOL   C14237124   3.490   5.937   6.037 -0.2289  0.1262  0.0564
   42MOL   S14337125   3.713   5.609   5.963  0.3243  0.2642 -0.2330
   42MOL   O14437126   3.851   5.601   5.910  0.2465 -0.3503 -0.2386
   42MOL   O14537127   3.609   5.525   5.890  0.2901  0.6094 -0.9688
   42MOL   C14637128   3.704   5.552   6.137  0.3663 -0.8340  0.3526
   42MOL   C14737129   3.629   5.440   6.175  0.1443  0.2304  0.3014
   42MOL   C14837130   3.629   5.404   6.309 -0.2966 -0.3495 -0.5690
   42MOL   C14937131   3.724   5.466   6.404  0.2041  0.2669 -0.0237
   42MOL   C15037132   3.806   5.570   6.358 -0.0445 -0.3817  0.0799
   42MOL   C15137133   3.783   5.623   6.231  0.1490  0.1571  0.1844
   42MOL   O15237134   3.732   5.423   6.536  0.2330 -0.2464 -0.2161
   42MOL   C15337135   3.620   5.418   6.621 -0.0342 -0.5443  0.5857
   42MOL   C15437136   3.576   5.537   6.679  0.7643 -0.3607 -0.2653
   42MOL   C15537137   3.472   5.535   6.776  0.2203  0.6113 -0.6397
   42MOL   C15637138   3.397   5.416   6.792  0.1119 -0.1039  0.4838
   42MOL   C15737139   3.424   5.295   6.709 -0.1338 -0.4155  0.3272
   42MOL   C15837140   3.540   5.304   6.626 -0.2820  0.6647  0.0513
   42MOL   C15937141   3.285   5.418   6.894 -0.4922 -0.2670  0.3176
   42MOL   C16037142   3.300   5.486   7.017 -0.3314 -0.6711 -0.1109
   42MOL   C16137143   3.198   5.497   7.110 -0.2125 -0.2208 -0.1307
   42MOL   C16237144   3.075   5.432   7.081 -0.2777  0.1154 -0.5445
   42MOL   C16337145   3.053   5.358   6.965 -0.5090 -0.0233  0.7251
   42MOL   C16437146   3.163   5.348   6.873  0.6624 -0.1874 -0.2669
   42MOL   O16537147   2.963   5.454   7.164  0.4661 -0.4026 -0.0295
   42MOL   H16637148   3.771   6.096   5.924 -1.4394 -0.6559  2.2208
   42MOL   H16737149   3.840   5.860   5.871 -1.2149  0.1782 -2.6750
   42MOL   H16837150   3.470   5.715   6.046 -2.4192  1.9835  0.8662
   42MOL   H16937151   3.385   5.959   6.051 -0.8245 -1.9414 -0.8655
   42MOL   H17037152   3.568   5.390   6.101 -0.5748 -0.6194  1.4255
   42MOL   H17137153   3.559   5.331   6.347 -1.7320  2.5073  2.5827
   42MOL   H17237154   3.869   5.621   6.430  0.1445 -1.3041  0.5698
   42MOL   H17337155   3.833   5.712   6.196 -0.7744  0.8910  0.7110
   42MOL   H17437156   3.627   5.631   6.665  1.4434 -0.4477  1.5565
   42MOL   H17537157   3.450   5.625   6.833 -1.4988 -0.1488 -0.0776
   42MOL   H17637158   3.366   5.207   6.732  0.8971 -1.0062  0.7047
   42MOL   H17737159   3.574   5.218   6.570 -0.3033  0.5609  0.1992
   42MOL   H17837160   3.391   5.540   7.040 -1.5721  0.9642  1.0694
   42MOL   H17937161   3.211   5.555   7.200  2.9029 -2.1478  0.7650
   42MOL   H18037162   2.958   5.311   6.941  0.4463 -1.7840  0.2988
   42MOL   H18137163   3.144   5.306   6.775 -2.9310 -0.3672  0.4220
   42MOL   C18237164   2.913   5.580   7.130  0.3834  0.2534 -0.1563
   42MOL   C18337165   2.932   5.691   7.209 -0.3931  0.4209 -0.3897
   42MOL   C18437166   2.901   5.817   7.165 -0.0740 -0.2444 -0.1079
   42MOL   C18537167   2.844   5.837   7.039  0.0532 -0.1970 -0.1069
   42MOL   C18637168   2.809   5.723   6.965  0.3721  0.1402  0.0191
   42MOL   C18737169   2.845   5.598   7.009 -0.0451 -0.0019  0.7573
   42MOL   S18837170   2.819   5.997   6.960 -0.1901  0.4020 -0.0171
   42MOL   O18937171   2.673   5.999   6.926 -0.6584  0.0392  0.0959
   42MOL   O19037172   2.916   6.009   6.848  0.1569  0.0153  0.1169
   42MOL   C19137173   2.851   6.131   7.082 -0.2840 -0.2818 -0.2537
   42MOL   C19237174   2.968   6.203   7.071 -0.4918  0.3718 -0.4271
   42MOL   C19337175   3.004   6.288   7.172  0.4522  0.4346  0.3725
   42MOL   C19437176   2.937   6.295   7.298  0.1579 -0.1263 -0.0447
   42MOL   C19537177   2.818   6.222   7.312  0.2258  0.4869 -0.4013
   42MOL   C19637178   2.768   6.144   7.200  0.6290  0.1936 -0.1131
   42MOL   O19737179   2.983   6.375   7.405  0.3012 -0.0875 -0.1630
   42MOL   C19837180   3.045   6.317   7.514 -0.0797 -0.5671 -0.0638
   42MOL   C19937181   2.996   6.206   7.583 -0.7107  0.3139 -0.4234
   42MOL   C20037182   3.059   6.154   7.696 -0.1215 -0.0477  0.1885
   42MOL   C20137183   3.174   6.218   7.743  0.1018 -0.1290 -0.2458
   42MOL   C20237184   3.234   6.326   7.672 -0.1767 -0.1444  0.2404
   42MOL   C20337185   3.162   6.381   7.565  0.2534  0.2564  0.5977
   42MOL   C20437186   3.246   6.171   7.864  0.1568  0.5517  0.4140
   42MOL   C20537187   3.172   6.147   7.981 -0.4251 -0.5409  0.5880
   42MOL   C20637188   3.234   6.081   8.090  0.1927 -0.1850  0.4723
   42MOL   C20737189   3.370   6.035   8.088  0.1117  0.2261  0.1959
   42MOL   C20837190   3.441   6.061   7.974  0.3223 -0.0356 -0.2252
   42MOL   C20937191   3.384   6.129   7.865 -0.1146 -0.4195 -0.4176
   42MOL   O21037192   3.419   5.958   8.192 -0.1585 -0.0671 -0.0681
   42MOL   H21137193   2.988   5.677   7.301  0.8190 -1.3837 -1.3856
   42MOL   H21237194   2.922   5.902   7.227 -0.4903  0.3410 -0.7599
   42MOL   H21337195   2.765   5.733   6.867  0.5853 -0.0531 -0.0980
   42MOL   H21437196   2.816   5.509   6.955  0.2879 -0.6775  1.6757
   42MOL   H21537197   3.031   6.197   6.983  2.0097 -0.3654  1.3436
   42MOL   H21637198   3.092   6.350   7.158 -0.2761  1.8497  1.7897
   42MOL   H21737199   2.760   6.235   7.402  2.0542 -2.6271  1.2790
   42MOL   H21837200   2.676   6.089   7.208 -1.0329  2.5538 -2.1041
   42MOL   H21937201   2.904   6.157   7.555 -1.4442  0.3102  1.8700
   42MOL   H22037202   3.019   6.067   7.746  0.2242  0.2836  1.0501
   42MOL   H22137203   3.327   6.366   7.710 -0.3544 -0.1130  0.6424
   42MOL   H22237204   3.211   6.458   7.507  3.0512 -1.8213  0.0989
   42MOL   H22337205   3.068   6.174   7.982  0.1199  1.6979  0.2376
   42MOL   H22437206   3.176   6.067   8.180  0.0929 -0.6004  0.3400
   42MOL   H22537207   3.546   6.034   7.969  1.1358  2.0932  3.5117
   42MOL   H22637208   3.451   6.144   7.781  0.3500 -0.9859 -0.1593
   42MOL   C22737209   3.508   6.007   8.286 -0.6867 -0.4732  0.5729
   42MOL   C22837210   3.542   5.916   0.025 -0.4605  0.2877  0.2759
   42MOL   C22937211   3.631   5.963   0.124  0.3337 -0.0384 -0.7312
   42MOL   C23037212   3.679   6.094   0.129  0.7286 -0.0238  0.2670
   42MOL   C23137213   3.642   6.183   0.020  0.2135  0.3001  0.1776
   42MOL   C23237214   3.557   6.138   8.281 -0.1785  0.5129 -0.4202
   42MOL   S23337215   3.784   6.158   0.258 -0.3119 -0.0530 -0.5860
   42MOL   O23437216   3.915   6.095   0.238 -0.3640 -0.0195  0.2964
   42MOL   O23537217   3.723   6.133   0.387 -0.8840 -0.4732  0.1996
   42MOL   C23637218   3.805   6.331   0.253 -0.0727 -0.1868  0.2303
   42MOL   C23737219   3.900   6.379   0.157  0.1033  0.2162  0.0465
   42MOL   C23837220   3.919   6.514   0.134  0.2093 -0.2788 -0.1441
   42MOL   C23937221   3.836   6.606   0.203  0.0273  0.3520  0.5830
   42MOL   C24037222   3.743   6.567   0.296  0.0569  0.0720  0.2642
   42MOL   C24137223   3.729   6.426   0.323 -0.3137  0.7852 -0.2191
   42MOL   O24237224   3.851   6.743   0.185  0.0592 -0.1413  0.5411
   42MOL   C24337225   3.952   6.811   0.246 -0.3361  0.4717 -0.2128
   42MOL   C24437226   4.056   6.753   0.321 -0.6113  0.1866 -0.2992
   42MOL   C24537227   4.159   6.827   0.379  0.1090  0.7560 -0.1513
   42MOL   C24637228   4.170   6.969   0.373 -0.4332 -0.0140  0.2312
   42MOL   C24737229   4.066   7.028   0.299 -0.5489 -0.3822 -0.1562
   42MOL   C24837230   3.963   6.950   0.228 -0.4520  0.2893  0.5023
   42MOL   C24937231   4.271   7.047   0.439  0.1290  0.6090 -0.9312
   42MOL   C25037232   4.377   6.982   0.512  0.1072  0.2104  0.1329
   42MOL   C25137233   4.472   7.058   0.583  0.1001 -0.2782  0.0563
   42MOL   C25237234   4.476   7.198   0.580 -0.9244  0.0112 -0.4532
   42MOL   C25337235   4.363   7.260   0.525  0.6875  0.1726  0.1638
   42MOL   C25437236   4.261   7.186   0.457  0.2208  0.0665  0.4906
   42MOL   O25537237   4.567   7.274   0.650  0.4592 -0.0485  0.4494
   42MOL   H25637238   3.515   5.812   0.013  0.5994  0.1539 -1.1023
   42MOL   H25737239   3.659   5.890   0.198  1.0613 -0.9405 -1.8796
   42MOL   H25837240   3.682   6.284   0.023  0.1633  0.2942  1.2165
   42MOL   H25937241   3.538   6.215   8.207  0.1058  0.7406 -0.2612
   42MOL   H26037242   3.959   6.303   0.107 -2.3680 -1.5246 -0.3049
   42MOL   H26137243   3.994   6.553   0.067 -0.5241  2.9194  0.7756
   42MOL   H26237244   3.687   6.646   0.343 -0.5320 -0.1501 -0.0606
   42MOL   H26337245   3.654   6.385   0.388 -0.3804 -1.3469 -1.6019
   42MOL   H26437246   4.059   6.647   0.338  1.7090  0.1034 -1.0485
   42MOL   H26537247   4.228   6.764   0.433 -3.6616 -1.4337  2.3432
   42MOL   H26637248   4.059   7.135   0.281 -1.2862 -0.5688 -1.0582
   42MOL   H26737249   3.892   6.993   0.160 -1.2973  1.2004  1.9308
   42MOL   H26837250   4.396   6.875   0.516  2.0461  0.5103 -0.4270
   42MOL   H26937251   4.554   7.007   0.632 -1.1043 -2.2109  0.1007
   42MOL   H27037252   4.349   7.365   0.542 -0.3691  0.0255  0.2276
   42MOL   H27137253   4.177   7.247   0.429  1.1462  0.8215 -0.7133
   42MOL   C27237254   4.679   7.320   0.591 -0.2364  0.0934 -0.0221
   42MOL   C27337255   4.689   7.428   0.494 -0.6396  0.1456 -0.2874
   42MOL   C27437256   4.815   7.470   0.448 -0.1333 -0.0759  0.1893
   42MOL   C27537257   4.935   7.410   0.489 -0.5944 -0.6656  0.3366
   42MOL   C27637258   4.924   7.302   0.584 -0.2377  0.2070  0.1543
   42MOL   C27737259   4.797   7.264   0.638  0.6334 -0.2504  0.3310
   42MOL   S27837260   5.095   7.472   0.440 -0.3555  0.9059  0.3649
   42MOL   O27937261   5.086   7.535   0.309 -0.5194  0.2451 -0.2236
   42MOL   O28037262   5.187   7.356   0.449 -0.2578 -0.0882  0.3541
   42MOL   C28137263   5.137   7.601   0.564 -0.8016  0.0439  0.0257
   42MOL   C28237264   5.101   7.581   0.698  0.3778 -0.2130  0.4169
   42MOL   C28337265   5.136   7.680   0.784 -0.2872  0.2948 -0.4454
   42MOL   C28437266   5.219   7.795   0.756  0.3616  0.3962  0.0564
   42MOL   C28537267   5.255   7.809   0.621 -0.0744 -0.6009 -1.2133
   42MOL   C28637268   5.215   7.713   0.530 -0.1751 -0.1040  0.5272
   42MOL   O28737269   5.275   7.880   0.847  0.3420 -0.1519 -0.3245
   42MOL   C28837270   5.201   7.980   0.900 -0.2495 -0.8004  0.0198
   42MOL   C28937271   5.063   7.971   0.912  0.1802  0.7261 -0.3391
   42MOL   C29037272   4.988   8.072   0.974  0.2228 -0.5612  0.2430
   42MOL   C29137273   5.054   8.185   1.030  0.1296 -0.7744 -0.3004
   42MOL   C29237274   5.191   8.196   1.013  0.9152 -0.4680  0.2021
   42MOL   C29337275   5.267   8.097   0.948  0.5176  0.0116 -0.3458
   42MOL   C29437276   4.976   8.291   1.106 -0.3185  0.3200  0.4923
   42MOL   C29537277   5.014   0.059   1.100 -0.0452  0.7189  0.2170
   42MOL   C29637278   4.966   0.154   1.193  0.0763 -0.4572 -0.2016
   42MOL   C29737279   4.875   0.119   1.294  0.2218  0.1082  0.8213
   42MOL   C29837280   4.822   8.354   1.290  0.1110  0.2915 -1.1277
   42MOL   C29937281   4.875   8.257   1.204  0.7276 -0.3346  0.2956
   42MOL   O30037282   4.835   0.207   1.385  0.4843 -0.1392  0.0725
   42MOL   H30137283   4.599   7.484   0.470 -0.9519  0.1626  0.8487
   42MOL   H30237284   4.816   7.554   0.380 -0.8891 -1.4691 -1.5758
   42MOL   H30337285   5.006   7.246   0.626 -2.0244 -1.5498  1.3729
   42MOL   H30437286   4.788   7.168   0.687 -0.7226  0.5395  1.6514
   42MOL   H30537287   5.052   7.490   0.729  0.0334 -0.3928 -0.6381
   42MOL   H30637288   5.123   7.658   0.889  0.4670 -1.4603 -0.6914
   42MOL   H30737289   5.316   7.888   0.580  1.1890 -0.5705  0.6314
   42MOL   H30837290   5.254   7.723   0.430  0.2380 -1.4266  0.5568
   42MOL   H30937291   5.000   7.891   0.877 -1.5331  1.3888  1.1123
   42MOL   H31037292   4.881   8.070   0.982  0.0397  0.0074 -1.8720
   42MOL   H31137293   5.242   8.282   1.055  1.0740  0.0546 -1.0521
   42MOL   H31237294   5.375   8.100   0.945  0.5085  1.0154  0.1222
   42MOL   H31337295   5.087   0.093   1.027  2.3603  1.0017  2.6400
   42MOL   H31437296   5.011   0.252   1.203  1.0638 -0.8864 -0.3814
   42MOL   H31537297   4.747   8.325   1.362  0.5855 -2.6907 -1.7672
   42MOL   H31637298   4.841   8.155   1.220  0.3137  0.0994  2.3393
   42MOL   C31737299   4.931   0.256   1.470  0.4436 -0.7827  0.9103
   42MOL   C31837300   4.939   0.394   1.489 -0.2542  0.0046 -0.0778
   42MOL   C31937301   5.048   0.454   1.546  0.7623 -0.1860  0.1830
   42MOL   C32037302   5.146   0.369   1.612  0.3704 -0.5515 -0.1413
   42MOL   C32137303   5.131   0.230   1.600  0.2678 -0.1855  0.5630
   42MOL   C32237304   5.022   0.169   1.536 -0.5317  0.4156  0.0694
   42MOL   S32337305   5.271   0.446   1.713 -0.7237  0.2805 -0.2203
   42MOL   O32437306   5.315   0.345   1.811  0.3862 -0.3675 -0.0460
   42MOL   O32537307   5.219   0.576   1.753  0.6949 -0.3008  0.1423
   42MOL   C32637308   5.409   0.470   1.607  0.2714 -0.0631 -0.5496
   42MOL   C32737309   5.462   0.598   1.598  0.4506  0.2426 -0.0474
   42MOL   C32837310   5.573   0.621   1.514  0.6004 -0.0926 -0.7656
   42MOL   C32937311   5.621   0.518   1.431 -0.1940 -0.2576 -0.0235
   42MOL   C33037312   5.569   0.388   1.439 -0.2344  0.1789  0.9639
   42MOL   C33137313   5.465   0.366   1.528  0.4677 -0.2555 -0.6299
   42MOL   O33237314   5.722   0.552   1.345 -0.6832 -0.1761  0.0081
   42MOL   C33337315   5.843   0.596   1.391 -0.0492  0.3944  0.1604
   42MOL   C33437316   5.929   0.664   1.304 -0.4637 -0.1674 -0.1272
   42MOL   C33537317   6.055   0.706   1.346 -0.1946  0.3815 -0.1698
   42MOL   C33637318   6.105   0.670   1.471 -0.7419 -0.1939  0.3894
   42MOL   C33737319   6.023   0.609   1.567 -0.0365 -0.2109 -0.0582
   42MOL   C33837320   5.887   0.579   1.526 -0.1117  0.4085  0.0389
   42MOL   C33937321   6.242   0.697   1.515  0.1349  0.2370 -0.0409
   42MOL   C34037322   6.293   0.829   1.513  0.2061  0.1489 -0.9611
   42MOL   C34137323   6.429   0.849   1.530 -0.2166 -0.7376 -0.2018
   42MOL   C34237324   6.505   0.751   1.597  0.1424  0.0430  0.4505
   42MOL   C34337325   6.458   0.622   1.606  0.1696  0.1723 -0.4125
   42MOL   C34437326   6.325   0.591   1.565 -0.6674 -0.5786 -0.3919
   42MOL   O34537327   6.634   0.786   1.637  0.7350  0.0030 -0.0810
   42MOL   H34637328   4.871   0.450   1.426  0.9694 -1.2004 -2.5603
   42MOL   H34737329   5.056   0.561   1.543  0.7678 -0.1365  1.5411
   42MOL   H34837330   5.208   0.166   1.641  0.6427  1.5864  2.7921
   42MOL   H34937331   5.014   0.062   1.520  0.6066  0.5912 -1.7935
   42MOL   H35037332   5.427   0.673   1.668 -1.6454 -0.9907  0.2880
   42MOL   H35137333   5.625   0.715   1.502 -0.0009  0.2284 -0.8904
   42MOL   H35237334   5.615   0.310   1.380 -0.0777  0.3658  0.8369
   42MOL   H35337335   5.422   0.268   1.540 -0.7270  0.1526 -1.4600
   42MOL   H35437336   5.900   0.688   1.203 -2.3352  1.0575  0.6677
   42MOL   H35537337   6.120   0.753   1.274  0.7007 -1.3232 -0.5162
   42MOL   H35637338   6.058   0.578   1.664  1.5522  1.6720 -0.0085
   42MOL   H35737339   5.829   0.508   1.583 -0.3672  1.1555  0.7164
   42MOL   H35837340   6.233   0.908   1.469 -0.1115 -0.2980 -1.3275
   42MOL   H35937341   6.463   0.951   1.521  1.5470 -1.3867 -1.1234
   42MOL   H36037342   6.518   0.542   1.647 -1.0105 -0.6114 -0.1851
   42MOL   H36137343   6.284   0.491   1.562 -0.6363 -0.7710  3.2509
   42MOL   C36237344   6.656   0.767   1.769  0.2577  0.2957  0.0450
   42MOL   C36337345   6.750   0.671   1.812  0.3113  0.4462 -0.0902
   42MOL   C36437346   6.767   0.662   1.950 -0.4273  0.1506  0.2611
   42MOL   C36537347   6.695   0.736   2.042  0.2820  0.0396 -0.4587
   42MOL   C36637348   6.609   0.837   1.997  0.3379  0.0528 -0.7894
   42MOL   C36737349   6.593   0.854   1.861 -0.2895  0.7424  0.1165
   42MOL   S36837350   6.705   0.712   2.221  0.3569  0.0583 -0.0524
   42MOL   O36937351   6.669   0.837   2.288  0.2517 -0.4154 -0.9873
   42MOL   O37037352   6.833   0.652   2.264 -0.2709 -0.5303 -0.2118
   42MOL   C37137353   6.571   0.596   2.252  0.0194 -0.2172  0.2477
   42MOL   C37237354   6.585   0.466   2.197 -0.9506  0.4823  0.0353
   42MOL   C37337355   6.481   0.372   2.221 -0.5643  1.0531  0.6467
   42MOL   C37437356   6.359   0.411   2.279 -0.0955 -0.6647  0.2102
   42MOL   C37537357   6.349   0.543   2.326  0.1845 -0.6706 -0.4986
   42MOL   C37637358   6.452   0.635   2.313  0.2204  0.4834  0.5741
   42MOL   O37737359   6.255   0.328   2.304  0.0852 -0.5096  0.6650
   42MOL   C37837360   6.175   0.297   2.195 -0.8336  0.3476  0.3276
   42MOL   C37937361   6.175   0.164   2.137 -0.8093 -0.3087  0.0589
   42MOL   C38037362   6.094   0.130   2.028 -0.3084  0.3026  0.5374
   42MOL   C38137363   6.001   0.226   1.984 -0.4508  0.6272 -0.2775
   42MOL   C38237364   5.994   0.357   2.046  0.9952  0.0347 -0.6783
   42MOL   C38337365   6.073   0.384   2.158 -0.9266 -0.4478 -0.4497
   42MOL   C38437366   5.916   0.191   1.876  0.1688 -0.3141 -0.0065
   42MOL   C38537367   5.777   0.195   1.887 -0.1580  0.2329  0.2261
   42MOL   C38637368   5.702   0.146   1.772 -0.2372  0.3411 -0.1714
   42MOL   C38737369   5.760   0.109   1.649 -0.5462 -0.7749 -0.2697
   42MOL   C38837370   5.903   0.123   1.643 -0.5390 -0.4712 -0.4603
   42MOL   C38937371   5.977   0.153   1.756 -1.0260 -0.7927 -0.1679
   42MOL   O39037372   5.674   0.093   1.544  0.0279  0.7329 -0.0609
   42MOL   H39137373   6.812   0.621   1.739  1.2742 -0.1933  1.1457
   42MOL   H39237374   6.842   0.593   1.984  1.2528  2.4161  1.2952
   42MOL   H39337375   6.567   0.904   2.071 -1.2860  0.6233 -2.1634
   42MOL   H39437376   6.545   0.936   1.809  0.0631  0.5416 -0.5279
   42MOL   H39537377   6.675   0.433   2.148 -1.3823 -0.0013 -0.4449
   42MOL   H39637378   6.485   0.267   2.193 -1.7901  1.3371 -0.6196
   42MOL   H39737379   6.257   0.578   2.371 -1.2835 -2.1264 -2.2711
   42MOL   H39837380   6.453   0.736   2.351 -0.8472  0.5302  0.4942
   42MOL   H39937381   6.244   0.090   2.175 -1.0314 -0.7804 -0.4559
   42MOL   H40037382   6.096   0.028   1.991 -0.3364  0.0863  1.1192
   42MOL   H40137383   5.925   0.434   2.016  2.3867  2.2141  1.4997
   42MOL   H40237384   6.052   0.479   2.205  0.3980 -0.2835 -0.1753
   42MOL   H40337385   5.726   0.218   1.979  1.7102 -1.6564  1.7757
   42MOL   H40437386   5.599   0.122   1.794 -0.0698 -0.7827 -0.6119
   42MOL   H40537387   5.955   0.101   1.550  1.1644 -1.2691  0.6591
   42MOL   H40637388   6.085   0.147   1.752 -1.1643 -2.5364 -2.3350
   42MOL   C40737389   5.699   8.362   1.444  0.1899  0.2870  0.0791
   42MOL   C40837390   5.650   0.023   1.312 -0.5102 -0.3359  0.1363
   42MOL   C40937391   5.677   8.297   1.205 -0.0966  0.6918 -0.3607
   42MOL   C41037392   5.756   8.178   1.230  0.2505 -0.4884 -0.2712
   42MOL   C41137393   5.798   8.154   1.360 -0.2886 -0.3662  0.8603
   42MOL   C41237394   5.774   8.246   1.464 -0.5892  0.1242  0.7126
   42MOL   S41337395   5.814   8.077   1.094  0.0739  0.3023  0.3257
   42MOL   O41437396   5.934   8.010   1.127  0.2392  0.0323  0.1887
   42MOL   O41537397   5.801   8.148   0.957 -0.3787  0.6706 -0.0006
   42MOL   C41637398   5.697   7.940   1.068  0.1445  1.3307 -0.2939
   42MOL   C41737399   5.688   7.878   0.943  0.1540  0.4856 -0.5932
   42MOL   C41837400   5.607   7.765   0.923 -0.5950  0.0115  0.1659
   42MOL   C41937401   5.550   7.703   1.041 -0.6231  0.4501  0.2798
   42MOL   C42037402   5.574   7.754   1.171 -0.3828 -0.5213  0.1921
   42MOL   C42137403   5.644   7.879   1.183  0.0440  0.2208 -0.2240
   42MOL   O42237404   5.472   7.593   1.031 -0.1342  0.1975 -0.1962
   42MOL   C42337405   5.502   7.490   0.946 -0.3304 -0.0538  0.1476
   42MOL   C42437406   5.400   7.438   0.872 -0.0378  0.4095 -0.0457
   42MOL   C42537407   5.414   7.323   0.784 -0.0634  0.2246 -1.2076
   42MOL   C42637408   5.539   7.265   0.775  0.1815  0.2787 -0.2484
   42MOL   C42737409   5.643   7.323   0.844 -0.4259  0.0905  0.3276
   42MOL   C42837410   5.626   7.438   0.929  0.0778  0.2454 -0.2214
   42MOL   C42937411   5.559   7.150   0.682 -0.4748 -0.2289 -0.1467
   42MOL   C43037412   5.630   7.033   0.726  0.0079  0.0078  0.9635
   42MOL   C43137413   5.639   6.927   0.634 -0.3718  0.5695 -0.0219
   42MOL   C43237414   5.586   6.927   0.507  0.2048 -0.0349 -0.0797
   42MOL   C43337415   5.526   7.042   0.463  0.0821 -0.3891 -0.4119
   42MOL   C43437416   5.509   7.154   0.551 -0.1271 -0.2234 -0.3301
   42MOL   O43537417   5.611   6.820   0.422  0.8339  0.0794  0.2289
   42MOL   H43637418   5.600   0.118   1.301  1.4306  0.5380 -1.3999
   42MOL   H43737419   5.655   8.313   1.101 -1.1976 -1.7086 -0.5343
   42MOL   H43837420   5.851   8.063   1.383 -1.6462 -0.9103  1.8619
   42MOL   H43937421   5.797   8.222   1.567 -0.8326 -1.0850  0.5023
   42MOL   H44037422   5.725   7.930   0.857 -0.1049  0.1606 -0.9044
   42MOL   H44137423   5.607   7.728   0.822 -2.4411 -0.3333  0.2782
   42MOL   H44237424   5.537   7.697   1.255 -1.4900 -0.0396  0.0474
   42MOL   H44337425   5.659   7.918   1.283 -0.8204  0.6218 -0.2507
   42MOL   H44437426   5.302   7.478   0.891 -0.9113 -1.3186 -0.8456
   42MOL   H44537427   5.327   7.282   0.735 -0.2475  0.8207 -1.3779
   42MOL   H44637428   5.742   7.284   0.824  0.3462  2.7300 -1.1902
   42MOL   H44737429   5.711   7.476   0.985 -0.6027 -0.0469  1.0295
   42MOL   H44837430   5.672   7.023   0.825  0.3264 -1.0592  0.7320
   42MOL   H44937431   5.708   6.846   0.655 -0.5699  0.3451 -0.2216
   42MOL   H45037432   5.490   7.032   0.362 -1.5939 -0.6872  0.1984
   42MOL   H45137433   5.456   7.240   0.511  2.1627  1.3585 -0.0574
   42MOL   C45237434   5.678   6.849   0.307  0.7668  0.1869 -0.6821
   42MOL   C45337435   5.625   6.793   0.183  0.0073  0.7458 -0.1248
   42MOL   C45437436   5.681   6.830   0.057  0.0467  0.2985  0.0415
   42MOL   C45537437   5.789   6.912   0.054 -0.0573 -1.0490 -0.3098
   42MOL   C45637438   5.841   6.972   0.172  0.2956  0.5615 -0.7187
   42MOL   C45737439   5.790   6.937   0.298  0.3239 -0.3373  0.6514
   42MOL   S45837440   5.865   6.962   8.262 -0.3083  0.1590  0.3190
   42MOL   O45937441   5.883   6.840   8.186 -0.3992  0.0786 -0.4899
   42MOL   O46037442   5.977   7.042   8.306  0.6156  0.6193 -0.3809
   42MOL   C46137443   5.756   7.057   8.160  0.8200  0.0703 -0.2318
   42MOL   C46237444   5.628   7.116   8.195  0.4347  0.0798  0.2917
   42MOL   C46337445   5.553   7.188   8.101 -1.1000  0.8846  0.4422
   42MOL   C46437446   5.606   7.206   7.969  0.2538  0.0119 -0.0512
   42MOL   C46537447   5.737   7.155   7.939  0.3382 -0.6646  0.3039
   42MOL   C46637448   5.812   7.090   8.037  0.3776  1.1598 -0.7578
   42MOL   O46737449   5.552   7.283   7.865  0.2519 -0.2446 -0.1894
   42MOL   C46837450   5.482   7.394   7.899 -0.6545 -0.4834 -0.8274
   42MOL   C46937451   5.343   7.402   7.884  0.4075  0.5912  0.3153
   42MOL   C47037452   5.272   7.518   7.915  0.3900 -0.3552  0.0643
   42MOL   C47137453   5.344   7.629   7.967  0.9953 -0.6154 -0.7149
   42MOL   C47237454   5.483   7.609   8.004  0.8129 -0.0875  0.0059
   42MOL   C47337455   5.548   7.492   7.967 -0.5066  0.2458 -0.0155
   42MOL   C47437456   5.281   7.752   7.998  0.2553 -1.1379  0.0814
   42MOL   C47537457   5.349   7.874   7.983 -0.3546  0.2291 -0.4512
   42MOL   C47637458   5.295   7.998   8.024  0.5820  0.5250  0.0111
   42MOL   C47737459   5.165   7.992   8.072  0.0269 -0.1589 -0.0816
   42MOL   C47837460   5.094   7.875   8.090  0.6477 -0.2010 -0.7125
   42MOL   C47937461   5.153   7.754   8.053  0.2059  0.2812 -0.4687
   42MOL   O48037462   5.099   8.103   8.109  0.1703  0.1336 -0.0471
   42MOL   H48137463   5.544   6.722   0.192 -1.4110  2.3385 -0.3363
   42MOL   H48237464   5.653   6.780   8.332  0.3373 -3.1053  1.7626
   42MOL   H48337465   5.927   7.038   0.179  0.6001  0.0514  0.4372
   42MOL   H48437466   5.837   6.975   0.387  0.1335  1.2795  0.0606
   42MOL   H48537467   5.587   7.096   8.293 -0.2095 -0.6292 -0.1113
   42MOL   H48637468   5.463   7.231   8.143 -0.1414  0.5738  2.8599
   42MOL   H48737469   5.784   7.160   7.842  0.1905 -1.1358  0.2034
   42MOL   H48837470   5.909   7.052   8.007  0.3266 -0.0837  0.5918
   42MOL   H48937471   5.292   7.319   7.836 -1.5053 -0.2387  3.6191
   42MOL   H49037472   5.167   7.523   7.889  0.6360 -0.9247 -1.0685
   42MOL   H49137473   5.550   7.688   8.036  2.1581 -0.4736 -1.7584
   42MOL   H49237474   5.650   7.475   7.998 -0.5357  1.1814  0.6273
   42MOL   H49337475   5.451   7.870   7.946 -0.9193 -0.4213 -1.9635
   42MOL   H49437476   5.362   8.082   8.019  3.4219 -1.6393  0.7376
   42MOL   H49537477   4.990   7.870   8.122  0.4467  3.9139 -0.4540
   42MOL   H49637478   5.099   7.663   8.077  1.3516 -0.1181  0.6416
   42MOL   C49737479   4.980   8.123   8.042 -1.0429 -0.0952  0.5311
   42MOL   C49837480   4.984   8.149   7.903 -0.2044  0.0580  0.5178
   42MOL   C49937481   4.859   8.163   7.837  0.1725  0.4115 -1.2072
   42MOL   C50037482   4.735   8.144   7.895 -0.0765  0.7469  0.3204
   42MOL   C50137483   4.734   8.120   8.035 -0.0451  0.6248  0.2717
   42MOL   C50237484   4.854   8.111   8.110 -0.3161 -0.2283 -0.0261
   42MOL   S50337485   4.578   8.149   7.798 -0.2425  0.1126  0.5441
   42MOL   O50437486   4.479   8.067   7.872  0.0617 -0.1405  0.2923
   42MOL   O50537487   4.613   8.113   7.663 -0.4802  0.8778 -0.4793
   42MOL   C50637488   4.540   8.324   7.805 -0.5470 -0.6528  1.0898
   42MOL   C50737489   4.524   0.020   7.932  0.0594 -0.0876 -0.3850
   42MOL   C50837490   4.503   0.158   7.936 -0.6198  0.1048  0.3219
   42MOL   C50937491   4.486   0.230   7.819 -0.4379 -0.1053  0.4872
   42MOL   C51037492   4.503   0.165   7.695 -0.5548 -0.6862  0.5677
   42MOL   C51137493   4.535   0.030   7.685 -0.3115 -0.2147  0.3188
   42MOL   O51237494   4.477   0.372   7.823  0.4890  0.0491 -0.0760
   42MOL   C51337495   4.386   0.446   7.749 -0.0761  0.6238  0.2183
   42MOL   C51437496   4.268   0.387   7.702 -0.0223  0.2097  0.0152
   42MOL   C51537497   4.165   0.460   7.641 -0.3067 -0.2147 -0.1024
   42MOL   C51637498   4.175   0.602   7.624  0.1991 -0.8922 -0.0470
   42MOL   C51737499   4.306   0.657   7.654 -0.1564 -0.0381  0.0126
   42MOL   C51837500   4.406   0.581   7.725  0.4239 -0.5724  0.3844
   42MOL   C51937501   4.058   0.683   7.578 -0.1391 -0.3152 -0.2513
   42MOL   C52037502   4.069   0.805   7.502 -0.5451 -0.0372 -0.1789
   42MOL   C52137503   3.956   0.878   7.462 -0.4240  0.9067  0.3540
   42MOL   C52237504   3.827   0.845   7.509 -0.2673 -0.7643 -0.2962
   42MOL   C52337505   3.812   0.721   7.575  0.1029  0.2442  0.1080
   42MOL   C52437506   3.924   0.640   7.611  0.2233 -0.2480 -0.2537
   42MOL   O52537507   3.719   0.923   7.470 -0.0818 -0.0945  0.6153
   42MOL   H52637508   5.075   8.157   7.846  0.4258 -1.8276  1.2300
   42MOL   H52737509   4.859   8.188   7.732  0.3313 -0.5939 -1.4522
   42MOL   H52837510   4.638   8.107   8.085  0.0568 -0.5043  0.1828
   42MOL   H52937511   4.855   8.100   8.217 -0.0154  3.1932  0.3807
   42MOL   H53037512   4.540   8.338   8.027 -2.2714 -0.4808 -0.1647
   42MOL   H53137513   4.502   0.217   8.026 -2.1256  1.3939 -0.5232
   42MOL   H53237514   4.506   0.223   7.605 -4.1000  0.2903  0.9889
   42MOL   H53337515   4.550   8.353   7.587  1.1016 -0.4639  0.6231
   42MOL   H53437516   4.250   0.281   7.714  1.2745  0.1361  1.3764
   42MOL   H53537517   4.067   0.421   7.619 -1.9298  2.6076  1.7008
   42MOL   H53637518   4.319   0.762   7.634 -1.8744  0.0047 -0.9656
   42MOL   H53737519   4.493   0.630   7.767  1.6646 -0.1827 -2.5054
   42MOL   H53837520   4.164   0.850   7.477 -0.2023 -0.7375 -0.1617
   42MOL   H53937521   3.979   0.965   7.402  3.2609 -0.7973 -0.8210
   42MOL   H54037522   3.718   0.675   7.603  0.4979 -1.4223 -1.1962
   42MOL   H54137523   3.912   0.546   7.663  0.2032  0.0067  0.2101
   42MOL   C54237524   3.626   0.943   7.571 -0.2740  0.1568  0.1736
   42MOL   C54337525   3.634   1.053   7.649 -0.0971  1.3595 -0.7506
   42MOL   C54437526   3.543   1.072   7.751  0.4258 -0.2212  0.0560
   42MOL   C54537527   3.431   0.979   7.765 -0.5546 -0.6308  0.0172
   42MOL   C54637528   3.427   0.860   7.687  0.4112  0.6958 -0.6133
   42MOL   C54737529   3.519   0.847   7.589  0.4503 -0.1397  0.4154
   42MOL   S54837530   3.312   1.001   7.900  0.1201  0.2688 -0.4909
   42MOL   O54937531   3.249   0.870   7.917  0.1086  0.0891  0.1463
   42MOL   O55037532   3.229   1.116   7.869 -0.0405 -0.1109 -0.0199
   42MOL   C55137533   3.407   1.039   8.040  0.5778  0.0306 -0.1878
   42MOL   C55237534   3.441   0.930   8.124 -0.9616  0.4102 -0.2539
   42MOL   C55337535   3.528   0.956   8.230 -0.1068  0.3615  0.4572
   42MOL   C55437536   3.563   1.090   8.274  0.2358 -0.3732 -0.1256
   42MOL   C55537537   3.515   1.194   8.191 -0.1796 -0.5205 -0.7067
   42MOL   C55637538   3.442   1.170   8.077 -0.3623  0.0716  0.0245
   42MOL   O55737539   3.637   1.113   0.016  0.4029  0.7118  0.5366
   42MOL   C55837540   3.766   1.058   0.021  0.0743  0.7046  0.6196
   42MOL   C55937541   3.868   1.094   8.299  0.3230  0.0621  0.0352
   42MOL   C56037542   3.993   1.037   8.296  0.4142 -0.2628 -0.1852
   42MOL   C56137543   4.022   0.938   0.027 -0.2020  0.4565 -0.6229
   42MOL   C56237544   3.918   0.905   0.119 -0.9255 -0.3403 -0.1777
   42MOL   C56337545   3.796   0.965   0.121 -0.2020 -0.3414 -0.4582
   42MOL   C56437546   4.151   0.872   0.035  0.3263  0.7958 -0.0303
   42MOL   C56537547   4.159   0.735   0.070  0.4276  0.0223 -0.1439
   42MOL   C56637548   4.276   0.671   0.096 -0.1181  0.1114 -0.4572
   42MOL   C56737549   4.399   0.736   0.060 -0.6955 -0.0245 -0.0199
   42MOL   C56837550   4.395   0.874   0.022 -0.3001  0.3293  0.1652
   42MOL   C56937551   4.272   0.937   0.010  0.8576  0.1912 -0.6059
   42MOL   O57037552   4.526   0.692   0.090 -1.0063 -0.0821  0.2086
   42MOL   H57137553   3.704   1.134   7.630  0.6163  1.1382  0.8314
   42MOL   H57237554   3.553   1.154   7.820  2.0252 -0.5892  0.2726
   42MOL   H57337555   3.347   0.788   7.694 -0.2221  1.4349 -0.1349
   42MOL   H57437556   3.503   0.764   7.521  2.2518  0.5454 -0.9092
   42MOL   H57537557   3.416   0.831   8.089  2.6805  0.1072 -2.3105
   42MOL   H57637558   3.562   0.877   8.296  0.4012 -0.0340 -0.2703
   42MOL   H57737559   3.524   1.300   8.210 -0.3716 -0.6231 -0.0147
   42MOL   H57837560   3.408   1.253   8.016 -0.2145 -0.3908 -0.6863
   42MOL   H57937561   3.854   1.174   8.228  1.0716 -0.2209 -0.4326
   42MOL   H58037562   4.073   1.061   8.227  0.6307 -0.4713 -0.0067
   42MOL   H58137563   3.938   0.831   0.195 -0.1097  1.6862  1.6208
   42MOL   H58237564   3.720   0.937   0.192  0.4335  1.2733  0.8994
   42MOL   H58337565   4.069   0.681   0.093  0.8962 -0.2050  1.2178
   42MOL   H58437566   4.274   0.570   0.135 -1.1087  0.3005 -0.0025
   42MOL   H58537567   4.482   0.934   8.366  0.6122 -0.3090  1.8862
   42MOL   H58637568   4.263   1.044   8.360 -0.6698  0.1971  0.1423
   42MOL   C58737569   4.567   0.567   0.051 -0.0483 -0.5418 -0.7478
   42MOL   C58837570   4.677   0.511   0.125  0.3934 -0.0517 -0.4222
   42MOL   C58937571   4.729   0.380   0.087  0.1902 -0.4689  0.2635
   42MOL   C59037572   4.667   0.306   8.355 -0.1150 -0.1763  0.7735
   42MOL   C59137573   4.565   0.367   8.281  0.0354 -0.1980 -1.1300
   42MOL   C59237574   4.517   0.498   8.307  0.3943 -0.1833  0.0075
   42MOL   S59337575   4.732   0.148   8.294 -0.2894 -0.0680 -0.1747
   42MOL   O59437576   4.875   0.151   8.325  0.3451 -0.4566 -0.2472
   42MOL   O59537577   4.679   0.123   8.157 -0.3475 -0.5618  0.6887
   42MOL   C59637578   4.661   0.027   0.043  0.5888  0.6685 -0.6271
   42MOL   C59737579   4.728   8.338   0.149  0.0353  0.2338  0.7835
   42MOL   C59837580   4.667   8.240   0.232  0.9729 -0.1295  0.2019
   42MOL   C59937581   4.532   8.192   0.197  0.3986  0.3346 -0.2877
   42MOL   C60037582   4.466   8.252   0.089 -0.3504  0.2307 -0.4950
   42MOL   C60137583   4.522   8.355   0.013 -0.1496 -0.2791 -0.1324
   42MOL   O60237584   4.467   8.090   0.255  0.1276  0.1271  0.1121
   42MOL   C60337585   4.478   7.959   0.222  0.1252 -0.2951 -0.0846
   42MOL   C60437586   4.508   7.914   0.097 -1.3608 -0.3230  0.6169
   42MOL   C60537587   4.538   7.774   0.077 -0.2280  0.1001 -0.5747
   42MOL   C60637588   4.516   7.681   0.180  0.1481  0.1875 -0.3027
   42MOL   C60737589   4.468   7.733   0.303  0.0899  0.0332 -0.4786
   42MOL   C60837590   4.446   7.866   0.322 -0.6457  0.4028 -0.0921
   42MOL   C60937591   4.549   7.537   0.165 -0.5286 -0.8722 -0.5805
   42MOL   C61037592   4.673   7.504   0.110 -0.6612 -0.1365 -0.0831
   42MOL   C61137593   4.721   7.375   0.098  0.1898 -0.2217  0.5225
   42MOL   C61237594   4.635   7.273   0.140  0.7185 -0.3046 -0.5866
   42MOL   C61337595   4.507   7.295   0.194  0.5152  0.1756 -0.1439
   42MOL   C61437596   4.461   7.429   0.201 -0.2625 -0.2874  0.2120
   42MOL   O61537597   4.676   7.145   0.128 -0.7465  0.1965  0.2265
   42MOL   H61637598   4.724   0.572   0.200 -2.0748  3.3336 -1.4997
   42MOL   H61737599   4.812   0.327   0.129  1.1648  0.3174 -0.6359
   42MOL   H61837600   4.527   0.309   8.198 -0.3500 -3.1203  1.0126
   42MOL   H61937601   4.447   0.537   8.234  0.3961 -2.6093 -1.3148
   42MOL   H62037602   4.833   8.359   0.164  0.5002 -0.2977 -1.5935
   42MOL   H62137603   4.729   8.201   0.311  0.5541 -4.0295 -1.2783
   42MOL   H62237604   4.368   8.215   0.062 -0.7011 -0.2192  1.3082
   42MOL   H62337605   4.469   0.040   8.300 -0.3348  0.2636  0.3346
   42MOL   H62437606   4.538   7.975   0.013  0.4932 -1.2877  0.5479
   42MOL   H62537607   4.573   7.731   8.350  1.8763 -0.7004  0.5413
   42MOL   H62637608   4.450   7.679   0.394  0.3419 -1.7655 -1.4843
   42MOL   H62737609   4.413   7.900   0.419 -2.0215  0.8920 -0.7111
   42MOL   H62837610   4.738   7.582   0.073 -2.1782  1.1183 -0.1742
   42MOL   H62937611   4.821   7.357   0.062 -0.0125  2.3219 -1.4497
   42MOL   H63037612   4.447   7.207   0.211  0.7263  0.0069 -0.2554
   42MOL   H63137613   4.360   7.444   0.236  0.1009  0.3226  1.0228
   42MOL   C63237614   4.812   7.114   0.129  0.0596 -0.1277 -0.1915
   42MOL   C63337615   4.903   7.137   0.241  0.2494  0.5045  0.1595
   42MOL   C63437616   5.039   7.115   0.223 -0.8629 -0.0055  0.2243
   42MOL   C63537617   5.091   7.078   0.093  0.1853  0.3852  0.1563
   42MOL   C63637618   5.004   7.052   8.353  0.4523  0.3122 -0.3714
   42MOL   C63737619   4.865   7.069   0.006 -0.3721  0.4015 -0.8689
   42MOL   S63837620   5.267   7.096   0.065 -0.6450 -0.1277 -0.1375
   42MOL   O63937621   5.300   7.027   8.307 -0.6347  0.1270  0.1081
   42MOL   O64037622   5.334   7.052   0.188  0.3004 -0.3904 -0.6806
   42MOL   C64137623   5.287   7.271   0.052 -0.0042 -0.3659 -0.8851
   42MOL   C64237624   5.330   7.361   0.149 -0.4768  0.5225  0.3888
   42MOL   C64337625   5.350   7.493   0.125  0.3095 -0.9589 -0.2931
   42MOL   C64437626   5.316   7.547   8.361  0.0960  0.5923 -0.4004
   42MOL   C64537627   5.257   7.459   8.266 -0.6752 -0.9560 -0.4392
   42MOL   C64637628   5.247   7.324   8.295  1.1095  0.3351 -0.1007
   42MOL   O64737629   5.323   7.680   8.333 -0.8065 -0.4143  0.1426
   42MOL   C64837630   5.256   7.758   0.052 -0.0790 -0.0363 -0.1910
   42MOL   C64937631   5.114   7.750   0.048  0.0097 -0.0287  0.0533
   42MOL   C65037632   5.042   7.818   0.144 -0.5512 -0.5784 -0.4740
   42MOL   C65137633   5.107   7.893   0.249  0.4232  0.0870  0.8299
   42MOL   C65237634   5.252   7.895   0.252 -0.7367  0.0545  0.5076
   42MOL   C65337635   5.327   7.832   0.149 -0.5169 -0.5494 -0.5234
   42MOL   C65437636   5.031   7.964   0.356  0.0261 -1.0581 -0.3637
   42MOL   C65537637   4.892   7.928   0.376 -0.2778  0.2267 -0.3382
   42MOL   C65637638   4.817   7.978   0.484  0.4250 -0.2184  0.1381
   42MOL   C65737639   4.869   8.086   0.563 -0.3926  0.1209  0.1387
   42MOL   C65837640   5.008   8.117   0.551 -0.0085 -0.5762 -0.9766
   42MOL   C65937641   5.087   8.060   0.448 -0.1796  0.1344 -0.3781
   42MOL   O66037642   4.794   8.148   0.664 -0.0668  0.1594  0.1292
   42MOL   H66137643   4.859   7.177   0.331 -0.4546  1.7440 -0.7269
   42MOL   H66237644   5.109   7.143   0.300  0.2862  0.7595 -1.0855
   42MOL   H66337645   5.048   7.029   8.257  1.8643  2.2595 -0.2058
   42MOL   H66437646   4.804   7.054   8.284 -2.8323  1.7710  0.5377
   42MOL   H66537647   5.360   7.331   0.248 -0.2875  1.3213  0.5729
   42MOL   H66637648   5.389   7.563   0.197 -0.9875  0.0776 -0.5791
   42MOL   H66737649   5.221   7.507   8.176  3.6811  2.1729 -0.6165
   42MOL   H66837650   5.207   7.258   8.219  0.9544  3.3027 -2.6903
   42MOL   H66937651   5.068   7.700   8.330 -0.7869  1.4896 -0.4337
   42MOL   H67037652   4.936   7.832   0.125  0.3103  1.2372 -4.5685
   42MOL   H67137653   5.301   7.956   0.326 -2.4073  0.8552  0.9866
   42MOL   H67237654   5.433   7.816   0.151  0.1269  2.9281 -2.7278
   42MOL   H67337655   4.839   7.860   0.311  0.0753 -1.7906  1.4536
   42MOL   H67437656   4.714   7.948   0.494  0.4932 -0.2302  0.7958
   42MOL   H67537657   5.063   8.180   0.619  2.2417 -1.9342 -1.4570
   42MOL   H67637658   5.193   8.084   0.446 -0.2623  0.3761 -3.2011
   42MOL   C67737659   4.709   8.242   0.618  0.7652  0.3993 -1.3829
   42MOL   C67837660   4.571   8.216   0.634 -0.0884  0.1942  0.1907
   42MOL   C67937661   4.472   8.305   0.589  0.3742  0.1749  0.3811
   42MOL   C68037662   4.515   0.061   0.534  0.5363 -0.5134  0.0189
   42MOL   C68137663   4.650   0.086   0.518 -0.3045 -0.0085 -0.5551
   42MOL   C68237664   4.744   8.365   0.557  0.5467 -0.2475 -0.2452
   42MOL   S68337665   4.400   0.191   0.498 -0.1244 -0.3081  0.0716
   42MOL   O68437666   4.483   0.311   0.501 -0.9698 -0.2512 -0.0668
   42MOL   O68537667   4.283   0.171   0.582  0.8721 -0.0434 -0.0741
   42MOL   C68637668   4.348   0.169   0.332  0.0317 -0.2459 -0.0591
   42MOL   C68737669   4.267   0.059   0.299 -0.2502 -0.7368  0.0535
   42MOL   C68837670   4.193   0.061   0.178 -0.2489  0.3440  0.4038
   42MOL   C68937671   4.222   0.165   0.080 -0.1665 -0.0514  0.3499
   42MOL   C69037672   4.308   0.269   0.117 -0.1596 -0.2274 -0.1621
   42MOL   C69137673   4.364   0.281   0.247  0.2327 -0.0525 -0.6800
   42MOL   O69237674   4.147   0.159   8.331 -0.0126 -0.5534 -0.4999
   42MOL   C69337675   4.145   0.272   8.257 -0.4524 -0.2836 -0.4297
   42MOL   C69437676   4.241   0.291   8.156 -0.1727 -0.7952  0.3627
   42MOL   C69537677   4.243   0.416   8.088  0.1077 -0.4593 -0.4562
   42MOL   C69637678   4.150   0.515   8.104 -0.3873  0.1323  0.2382
   42MOL   C69737679   4.049   0.493   8.204  0.8863  0.4122 -0.1514
   42MOL   C69837680   4.048   0.372   8.273 -0.4945  1.0457  0.1841
   42MOL   C69937681   4.154   0.639   8.024  0.1692  0.2090  0.6582
   42MOL   C70037682   4.270   0.714   8.019  0.5352  0.5755 -0.0849
   42MOL   C70137683   4.269   0.836   7.947 -0.0568  0.3885  0.7817
   42MOL   C70237684   4.149   0.887   7.893 -0.3920 -0.7121 -0.8311
   42MOL   C70337685   4.040   0.809   7.897 -0.6141  0.4619 -0.0628
   42MOL   C70437686   4.039   0.688   7.969 -0.5851  0.0073 -0.3460
   42MOL   O70537687   4.152   1.004   7.818 -0.4101 -0.9636  0.0048
   42MOL   H70637688   4.537   8.122   0.675  2.0080 -1.1333 -1.0032
   42MOL   H70737689   4.368   8.290   0.613  0.6454 -0.3178  1.2551
   42MOL   H70837690   4.684   0.177   0.471 -2.3533  0.1725 -1.7220
   42MOL   H70937691   4.848   0.024   0.546  0.8369 -1.0018  0.6955
   42MOL   H71037692   4.243   8.343   0.365 -1.2492 -0.7279 -0.2873
   42MOL   H71137693   4.128   8.344   0.155 -1.2973  0.7172  1.9636
   42MOL   H71237694   4.308   0.347   0.042 -2.0913  0.0328  0.0907
   42MOL   H71337695   4.421   0.366   0.280  1.1138 -1.2209  0.8618
   42MOL   H71437696   4.318   0.217   8.139  0.0412  0.0651 -2.7763
   42MOL   H71537697   4.327   0.422   8.020  0.9548  0.7195  0.6802
   42MOL   H71637698   3.976   0.570   8.224  0.7795 -0.0418  1.2716
   42MOL   H71737699   3.971   0.349   8.345  0.9032 -0.8304  1.1468
   42MOL   H71837700   4.356   0.667   8.064  1.2654  0.1048 -1.9243
   42MOL   H71937701   4.358   0.898   7.942  0.1930 -0.1066 -1.8382
   42MOL   H72037702   3.949   0.846   7.854  0.5718  2.0277 -1.2801
   42MOL   H72137703   3.948   0.631   7.985  0.7789 -1.4699  2.3548
   42MOL   C72237704   4.079   1.116   7.871 -0.1603 -0.1585  0.5423
   42MOL   C72337705   4.132   1.190   7.975  0.2163  0.2642 -0.4207
   42MOL   C72437706   4.059   1.298   8.029  0.2493 -0.4304 -0.0140
   42MOL   C72537707   3.923   1.318   7.991  0.0376 -0.0185 -0.9246
   42MOL   C72637708   3.861   1.231   7.896  0.0206 -0.5071  0.3011
   42MOL   C72737709   3.945   1.133   7.829 -0.0362 -0.6525 -0.0964
   42MOL   S72837710   3.833   1.446   8.074  0.2962 -0.1816  0.2077
   42MOL   O72937711   3.872   1.439   8.214 -0.2259  0.5897 -0.5552
   42MOL   O73037712   3.688   1.436   8.048 -0.3266 -0.4169  0.3548
   42MOL   C73137713   3.901   1.593   8.000 -0.1354  0.0087  0.1308
   42MOL   C73237714   3.852   1.634   7.879 -0.5557  0.3789 -0.1979
   42MOL   C73337715   3.891   1.760   7.833  0.0586  0.2210  0.2101
   42MOL   C73437716   3.984   1.837   7.905  0.4614 -0.0854  0.8944
   42MOL   C73537717   4.047   1.789   8.022 -0.3483  0.2950  0.4441
   42MOL   C73637718   4.010   1.663   8.066  0.3381 -0.1826  0.3184
   42MOL   O73737719   4.000   1.963   7.852  0.4227  0.7059  0.0646
   42MOL   C73837720   4.105   2.042   7.900  0.1035 -0.4257  0.2598
   42MOL   C73937721   4.089   2.140   7.995 -0.0467 -0.5153  0.5084
   42MOL   C74037722   4.198   2.209   8.049  0.8019 -0.0772  0.4055
   42MOL   C74137723   4.328   2.196   7.993  0.0090 -0.7365 -0.0550
   42MOL   C74237724   4.342   2.102   7.888  0.1372 -0.4362 -0.3886
   42MOL   C74337725   4.231   2.027   7.842 -0.6083 -0.4947  0.3525
   42MOL   C74437726   4.435   2.274   8.054 -0.2345  0.7531  0.1347
   42MOL   C74537727   4.423   2.398   8.119  0.6751  0.0678 -0.4888
   42MOL   C74637728   4.530   2.458   8.190  0.1476  0.0704 -0.2949
   42MOL   C74737729   4.651   2.387   8.193 -0.1095 -0.0308 -0.1952
   42MOL   C74837730   4.672   2.271   8.123 -0.7916 -0.7905  0.6131
   42MOL   C74937731   4.561   2.214   8.060 -0.4876  0.0242 -0.0673
   42MOL   O75037732   4.752   2.446   8.260 -0.3817 -0.9114 -0.2788
   42MOL   H75137733   4.233   1.174   8.010 -0.2594 -0.9078  0.4331
   42MOL   H75237734   4.095   1.371   8.099  1.7069 -0.4071 -0.7823
   42MOL   H75337735   3.758   1.257   7.877  0.1414  1.7563  2.4907
   42MOL   H75437736   3.916   1.078   7.740 -0.0346 -0.5555 -0.1572
   42MOL   H75537737   3.777   1.571   7.833  1.2550 -0.7223 -1.7267
   42MOL   H75637738   3.850   1.805   7.744  0.4050  1.5292  0.7097
   42MOL   H75737739   4.128   1.843   8.067 -0.4415  0.8801 -0.0827
   42MOL   H75837740   4.033   1.637   8.168 -0.5725 -0.5799  0.4270
   42MOL   H75937741   3.996   2.165   8.045  1.8995  4.7453  1.8898
   42MOL   H76037742   4.197   2.273   8.136  2.7058  0.5116  0.0194
   42MOL   H76137743   4.436   2.097   7.834  1.4630 -1.1752  1.8893
   42MOL   H76237744   4.239   1.965   7.754  0.1055  0.0189  0.0454
   42MOL   H76337745   4.331   2.454   8.111 -0.1552 -0.9435  1.5946
   42MOL   H76437746   4.514   2.554   8.237 -1.4663 -0.7462  0.8724
   42MOL   H76537747   4.764   2.223   8.150  0.0645  2.5003  4.0278
   42MOL   H76637748   4.578   2.124   8.003  0.2118 -0.4812  0.9128
   42MOL   C76737749   4.806   2.382   0.005  0.6881 -0.6356  0.1145
   42MOL   C76837750   4.944   2.347   8.358  0.4664 -0.3658  0.1434
   42MOL   C76937751   5.003   2.276   0.095 -0.3035  0.6259 -0.6197
   42MOL   C77037752   4.928   2.239   0.210  0.1991 -0.2986 -0.0880
   42MOL   C77137753   4.790   2.273   0.219 -0.2675  0.0567  0.1802
   42MOL   C77237754   4.730   2.346   0.116 -0.0456 -0.4188 -0.3034
   42MOL   S77337755   5.020   2.157   0.345 -0.5701 -0.1331  0.1776
   42MOL   O77437756   5.157   2.150   0.297  0.7368 -0.3010  0.0344
   42MOL   O77537757   4.942   2.039   0.372 -0.4591  0.3863 -0.0202
   42MOL   C77637758   5.011   2.288   0.474 -0.5441 -0.1799 -0.9541
   42MOL   C77737759   4.920   2.276   0.583 -0.6876  0.6707 -0.3282
   42MOL   C77837760   4.923   2.356   0.695  0.0028  1.1916 -0.7264
   42MOL   C77937761   5.017   2.459   0.694  0.0377 -0.4167 -0.8337
   42MOL   C78037762   5.101   2.485   0.584  0.4441 -0.3001 -0.1844
   42MOL   C78137763   5.103   2.393   0.478  0.2012  0.4971 -0.4115
   42MOL   O78237764   5.018   2.551   0.795  0.1488 -0.6606 -0.1567
   42MOL   C78337765   5.132   2.568   0.871 -0.2496 -0.1999  0.2833
   42MOL   C78437766   5.173   2.692   0.932  0.1240  0.3254  0.4255
   42MOL   C78537767   5.294   2.689   1.006 -0.2904  0.6550 -0.3590
   42MOL   C78637768   5.371   2.579   1.036 -0.1674  0.1576  0.2895
   42MOL   C78737769   5.344   2.464   0.959 -0.3846  0.5403  0.2480
   42MOL   C78837770   5.225   2.456   0.885 -0.1765  0.0406  0.4482
   42MOL   C78937771   5.475   2.594   1.131  0.3916 -0.2378 -1.0274
   42MOL   C79037772   5.490   2.495   1.229  0.0353  0.2987 -0.1553
   42MOL   C79137773   5.596   2.505   1.327  0.1367  0.3842  0.9497
   42MOL   C79237774   5.683   2.619   1.326  0.0609  0.0851 -0.5785
   42MOL   C79337775   5.664   2.718   1.229 -0.1530  0.0809 -0.5496
   42MOL   C79437776   5.565   2.704   1.132 -0.1804  0.3842 -0.2875
   42MOL   O79537777   5.773   2.638   1.424  0.3306  0.3543 -0.4819
   42MOL   H79637778   5.008   2.373   8.276  1.0421 -1.3623  0.2744
   42MOL   H79737779   5.106   2.243   0.088 -0.0330  1.4763 -0.6832
   42MOL   H79837780   4.732   2.259   0.309 -0.3621 -0.5871  0.0269
   42MOL   H79937781   4.625   2.368   0.125 -0.4867 -2.7240  0.5171
   42MOL   H80037782   4.850   2.193   0.587 -0.5586  0.4953 -1.4568
   42MOL   H80137783   4.855   2.335   0.777 -0.1637  0.5156 -1.0282
   42MOL   H80237784   5.166   2.571   0.582  2.3249 -1.7276 -1.8803
   42MOL   H80337785   5.175   2.420   0.402  1.3212  1.1321  0.8445
   42MOL   H80437786   5.114   2.781   0.915  0.5291  0.7363  1.1332
   42MOL   H80537787   5.314   2.782   1.057 -2.9881  0.4667  1.1760
   42MOL   H80637788   5.409   2.381   0.982 -0.1798  0.8846  0.9437
   42MOL   H80737789   5.199   2.366   0.831 -0.6241 -1.6356  3.3982
   42MOL   H80837790   5.440   2.400   1.236 -0.0441  0.2101 -1.8829
   42MOL   H80937791   5.619   2.430   1.401  1.2483  0.6879  0.9291
   42MOL   H81037792   5.731   2.803   1.229  0.5922 -0.4869 -1.1277
   42MOL   H81137793   5.554   2.778   1.055  0.9884  0.5826 -0.2660
   42MOL   C81237794   5.883   2.568   1.439  0.6835  0.4521  0.3062
   42MOL   C81337795   5.976   2.539   1.333 -0.3993 -0.3601 -0.2441
   42MOL   C81437796   6.102   2.476   1.353 -0.9128  0.6984 -0.3619
   42MOL   C81537797   6.142   2.456   1.488 -0.9225 -1.0179 -0.0968
   42MOL   C81637798   6.049   2.479   1.587 -0.7803 -0.4435 -0.1408
   42MOL   C81737799   5.915   2.524   1.564 -0.1182  0.1337 -0.1685
   42MOL   S81837800   6.298   2.378   1.523 -0.0332 -0.0618 -0.3100
   42MOL   O81937801   6.387   2.415   1.414  0.0649  0.3545  0.1291
   42MOL   O82037802   6.280   2.236   1.554 -0.0940  0.8092 -0.9981
   42MOL   C82137803   6.362   2.463   1.671  0.6122  0.6572  0.2261
   42MOL   C82237804   6.415   2.595   1.661  0.2351 -0.4497  0.1711
   42MOL   C82337805   6.452   2.657   1.785  0.1863  0.1366 -0.1697
   42MOL   C82437806   6.432   2.592   1.915 -0.9122  0.9328 -0.3250
   42MOL   C82537807   6.379   2.462   1.918  0.9298 -0.1728  0.6258
   42MOL   C82637808   6.353   2.398   1.793  0.6362 -0.8568 -0.1977
   42MOL   O82737809   6.453   2.662   2.032 -0.7296 -0.2138  0.1498
   42MOL   C82837810   6.449   2.604   2.159  0.0572 -0.3888 -0.2694
   42MOL   C82937811   6.566   2.543   2.216 -0.2434 -0.5747  0.2916
   42MOL   C83037812   6.564   2.486   2.343  0.6207  0.3544 -0.3537
   42MOL   C83137813   6.443   2.493   2.420  0.6493 -0.1108  0.2732
   42MOL   C83237814   6.330   2.555   2.364  0.4407  0.1942 -0.4772
   42MOL   C83337815   6.329   2.615   2.237 -0.4921 -1.0308  0.1394
   42MOL   C83437816   6.447   2.407   2.540 -0.0889  0.2285  0.2528
   42MOL   C83537817   6.335   2.338   2.583  0.3857  0.1725 -0.2811
   42MOL   C83637818   6.333   2.264   2.703  0.0403  0.6902 -0.2458
   42MOL   C83737819   6.450   2.257   2.781 -0.1350 -0.3962 -0.3268
   42MOL   C83837820   6.565   2.320   2.739 -1.2287  0.4322 -0.2708
   42MOL   C83937821   6.564   2.405   2.627  0.2126 -0.0750 -0.2922
   42MOL   O84037822   6.458   2.181   2.901  0.2784 -0.0843  0.5478
   42MOL   H84137823   5.939   2.567   1.236  1.0258  0.6068 -0.5251
   42MOL   H84237824   6.162   2.451   1.267  0.6579 -0.7219  1.1084
   42MOL   H84337825   6.072   2.445   1.687 -0.7665  0.8174  0.2911
   42MOL   H84437826   5.836   2.531   1.638  2.2280 -0.3665  2.4700
   42MOL   H84537827   6.427   2.636   1.562  0.1500  0.1795  0.4162
   42MOL   H84637828   6.476   2.762   1.780  2.8334 -0.4501 -0.5499
   42MOL   H84737829   6.363   2.416   2.014 -0.3287 -2.7921 -0.7938
   42MOL   H84837830   6.311   2.299   1.801  0.2760 -0.5547  2.0905
   42MOL   H84937831   6.655   2.529   2.157  0.3635 -2.8341  1.6827
   42MOL   H85037832   6.657   2.439   2.372 -0.8607 -1.5771  1.3729
   42MOL   H85137833   6.234   2.555   2.415  0.7266  0.3086  0.0700
   42MOL   H85237834   6.238   2.662   2.203  0.1215 -0.6055 -0.9496
   42MOL   H85337835   6.247   2.337   2.520  1.3159  0.9038 -1.6173
   42MOL   H85437836   6.240   2.215   2.728  1.3489 -0.8064  1.8058
   42MOL   H85537837   6.650   2.321   2.806 -0.5366  1.8542 -1.1452
   42MOL   H85637838   6.658   2.448   2.595  0.4621  0.0849  0.6632
   42MOL   C85737839   6.485   2.048   2.887 -0.1263 -0.4657  0.4980
   42MOL   C85837840   6.400   1.967   2.804 -0.5769 -0.0250 -0.1551
   42MOL   C85937841   6.430   1.827   2.773 -0.3702 -0.1252 -0.7035
   42MOL   C86037842   6.547   1.772   2.831 -0.1876 -0.1659  0.6528
   42MOL   C86137843   6.638   1.854   2.895  0.1905 -0.4940  0.0139
   42MOL   C86237844   6.612   1.994   2.919 -0.0730  0.8655  0.1104
   42MOL   S86337845   6.592   1.602   2.819  0.1140  0.1579  0.1327
   42MOL   O86437846   6.630   1.563   2.952 -0.3280 -0.1131 -0.3323
   42MOL   O86537847   6.677   1.578   2.699  0.0968 -0.4645  0.2879
   42MOL   C86637848   6.426   1.519   2.782 -0.8027 -0.3098 -0.1987
   42MOL   C86737849   6.310   1.564   2.853  1.0615  0.6954  0.7891
   42MOL   C86837850   6.195   1.481   2.835 -0.4725  0.1532 -0.1326
   42MOL   C86937851   6.192   1.372   2.743  0.7059 -0.2336 -0.0255
   42MOL   C87037852   6.316   1.325   2.688  0.1792 -0.5411  0.3765
   42MOL   C87137853   6.435   1.398   2.708 -0.8259  0.7241 -0.2967
   42MOL   O87237854   6.076   1.300   2.719  0.3595 -0.1860 -0.6853
   42MOL   C87337855   6.003   1.336   2.614 -0.4326 -0.0897 -0.3793
   42MOL   C87437856   5.862   1.337   2.628 -0.8467  0.3230 -0.0435
   42MOL   C87537857   5.781   1.388   2.525 -0.3527 -0.0569 -0.3515
   42MOL   C87637858   5.834   1.433   2.403 -0.5350  0.2808 -0.2099
   42MOL   C87737859   5.973   1.419   2.385  0.1280  0.3244 -0.1300
   42MOL   C87837860   6.058   1.374   2.489  0.4550  0.2785 -0.0348
   42MOL   C87937861   5.747   1.474   2.285  0.1212 -0.5892 -0.1663
   42MOL   C88037862   5.785   1.573   2.198  0.0041 -0.1144  1.0642
   42MOL   C88137863   5.703   1.603   2.092  0.4090  1.0019  0.2418
   42MOL   C88237864   5.580   1.532   2.074 -0.2920  0.1602  0.0476
   42MOL   C88337865   5.538   1.430   2.162  0.2775  0.5410  0.6136
   42MOL   C88437866   5.624   1.405   2.270  0.0508  0.0664  0.7981
   42MOL   O88537867   5.515   1.554   1.954  0.0046  0.4915 -0.0030
   42MOL   H88637868   6.307   2.006   2.765 -0.8122 -0.7796 -0.3744
   42MOL   H88737869   6.356   1.763   2.727 -0.8114 -1.0255  1.2248
   42MOL   H88837870   6.724   1.809   2.942  0.3789  0.8036  0.9575
   42MOL   H88937871   6.680   2.052   2.979 -0.3931  3.6485 -2.0892
   42MOL   H89037872   6.317   1.637   2.932 -0.6820  1.0341  0.6549
   42MOL   H89137873   6.113   1.508   2.900 -0.3386  0.0575  0.0719
   42MOL   H89237874   6.306   1.245   2.616 -0.1380 -0.2260  0.0691
   42MOL   H89337875   6.525   1.373   2.654 -0.5482 -0.7214  0.7833
   42MOL   H89437876   5.814   1.311   2.721 -2.0292 -2.3307 -1.3546
   42MOL   H89537877   5.673   1.389   2.531 -0.3807  0.5434 -0.8520
   42MOL   H89637878   6.025   1.444   2.294  1.6623 -2.6070 -0.1334
   42MOL   H89737879   6.163   1.352   2.479  0.5327  0.8063 -0.3689
   42MOL   H89837880   5.874   1.635   2.202  0.9745 -1.5579  2.3069
   42MOL   H89937881   5.738   1.679   2.023 -0.4477 -0.3726 -1.7759
   42MOL   H90037882   5.447   1.372   2.167  0.1183  0.8579  1.7691
   42MOL   H90137883   5.604   1.322   2.336 -0.7799  0.8922  1.5970
   42MOL   H90237884   5.467   1.478   1.926  0.7347  0.1216 -0.2526
   43MOL     C137885   3.634   6.433   1.324 -0.5739  0.4166  0.6065
   43MOL     C237886   3.748   6.515   1.321 -0.0026 -0.1158  0.1389
   43MOL     C337887   3.870   6.464   1.282 -0.6809  0.1913 -0.0737
   43MOL     C437888   3.882   6.328   1.239 -0.2345  0.2309 -0.2489
   43MOL     C537889   3.772   6.244   1.235 -0.1378 -0.5958  0.2666
   43MOL     C637890   3.653   6.295   1.283  0.6318  1.0569  0.1336
   43MOL     S737891   4.044   6.261   1.194  0.0129  0.0764  0.2924
   43MOL     O837892   4.071   6.347   1.079 -0.0493 -0.7052  0.0952
   43MOL     O937893   4.041   6.115   1.179  0.0143 -0.2799  0.3095
   43MOL    C1037894   4.142   6.302   1.330 -1.2929  0.5849 -0.0653
   43MOL    C1137895   4.102   6.267   1.459 -0.1424  0.2967  0.1733
   43MOL    C1237896   4.185   6.310   1.565  0.1000 -0.0089  0.1373
   43MOL    C1337897   4.300   6.386   1.540 -0.3173 -0.6776 -0.7170
   43MOL    C1437898   4.335   6.413   1.404 -0.3489  0.0422 -0.0233
   43MOL    C1537899   4.261   6.365   1.297  0.2660  0.5925 -0.2386
   43MOL    O1637900   4.382   6.414   1.648  0.2768  0.5272 -0.4683
   43MOL    C1737901   4.420   6.543   1.662 -0.1870 -0.0751  0.4283
   43MOL    C1837902   4.327   6.647   1.645 -0.0454  0.3402 -0.3064
   43MOL    C1937903   4.364   6.783   1.657 -0.1752  1.4057 -0.0813
   43MOL    C2037904   4.486   6.817   1.711 -0.5064  0.3408  0.0774
   43MOL    C2137905   4.575   6.708   1.731 -0.0995 -0.4951 -0.6427
   43MOL    C2237906   4.549   6.579   1.692 -0.0076  0.0837 -0.0091
   43MOL    C2337907   4.526   6.949   1.755  0.5977  0.1098  0.3281
   43MOL    C2437908   4.655   7.009   1.729 -0.2240  0.0122 -0.1468
   43MOL    C2537909   4.675   7.152   1.755 -0.0683  0.0794 -0.1140
   43MOL    C2637910   4.583   7.221   1.833 -0.9045 -0.4254  0.4597
   43MOL    C2737911   4.466   7.160   1.870 -0.0219 -0.2384  0.6719
   43MOL    C2837912   4.436   7.027   1.827  0.4289  1.1820 -0.2361
   43MOL    O2937913   4.602   7.355   1.877 -0.9517 -0.0701 -0.5594
   43MOL    H3037914   3.749   6.614   1.364 -0.6198  0.4296 -1.0850
   43MOL    H3137915   3.952   6.534   1.274 -0.7022  0.1924 -0.2855
   43MOL    H3237916   3.783   6.139   1.216 -0.1013 -0.7229  0.9905
   43MOL    H3337917   3.575   6.223   1.303  1.8032 -0.0573  0.7727
   43MOL    H3437918   4.008   6.219   1.482 -0.4946  0.2795 -1.2597
   43MOL    H3537919   4.162   6.300   1.670  3.0915 -1.3716  0.6878
   43MOL    H3637920   4.424   6.473   1.389 -1.9727  2.6894  0.5419
   43MOL    H3737921   4.290   6.383   1.194 -1.3203  2.9589 -0.3177
   43MOL    H3837922   4.227   6.610   1.626  0.5007 -1.3230  0.0173
   43MOL    H3937923   4.291   6.862   1.644 -0.6659  0.9089 -0.3856
   43MOL    H4037924   4.676   6.730   1.765  0.0936 -1.2443 -0.7165
   43MOL    H4137925   4.620   6.498   1.698  0.2696  0.3365  0.1202
   43MOL    H4237926   4.732   6.950   1.682  1.1845  0.1032  1.9606
   43MOL    H4337927   4.763   7.203   1.719  0.1770  1.8196  2.8069
   43MOL    H4437928   4.400   7.214   1.936 -0.8448  1.4457 -1.4795
   43MOL    H4537929   4.340   6.981   1.847  1.3493  0.1142  1.9035
   43MOL    H4637930   3.533   6.456   1.356 -1.2344 -0.1504 -0.9837
   43MOL    C4737931   4.704   7.381   1.966 -0.4647  0.8887 -0.7570
   43MOL    C4837932   4.744   7.515   1.993 -0.2738  0.0633  0.3614
   43MOL    C4937933   4.855   7.531   2.076  0.1803 -0.0567  0.0593
   43MOL    C5037934   4.919   7.423   2.145  0.0771  0.7592 -0.1084
   43MOL    C5137935   4.865   7.290   2.128 -0.2540 -0.0618 -0.2623
   43MOL    C5237936   4.755   7.274   2.041 -0.2538  0.5053 -0.7331
   43MOL    S5337937   5.055   7.456   2.259  0.6719  0.0008  0.1054
   43MOL    O5437938   5.114   7.591   2.238  0.5960  0.5877  0.2885
   43MOL    O5537939   5.138   7.332   2.255  0.0442  0.0054  0.6068
   43MOL    C5637940   4.977   7.463   2.417  0.7066  0.7393  0.5546
   43MOL    C5737941   4.844   7.414   2.443  0.0105  0.0308 -0.4756
   43MOL    C5837942   4.788   7.436   2.570  0.9468 -0.0341 -0.0675
   43MOL    C5937943   4.867   7.498   2.669 -0.1311  0.0232  0.0291
   43MOL    C6037944   4.993   7.549   2.646  0.1455  0.5819  0.3129
   43MOL    C6137945   5.048   7.533   2.515 -0.2912  0.6706 -0.3699
   43MOL    O6237946   4.803   7.532   2.791  0.0606 -0.2609 -0.0620
   43MOL    C6337947   4.758   7.656   2.792  0.2383 -0.3044 -0.0559
   43MOL    C6437948   4.844   7.768   2.821  0.7003  0.0661  0.3045
   43MOL    C6537949   4.794   7.897   2.819  0.3115 -0.7655 -0.3214
   43MOL    C6637950   4.657   7.920   2.798  0.7528 -0.1392 -0.0795
   43MOL    C6737951   4.573   7.813   2.776 -0.1557  0.4474 -0.1335
   43MOL    C6837952   4.622   7.686   2.769  0.1224 -0.4180  0.2034
   43MOL    C6937953   4.604   8.066   2.815  0.0113 -0.2464  0.8911
   43MOL    C7037954   4.475   8.103   2.776  0.1436 -0.4241 -0.2843
   43MOL    C7137955   4.430   8.235   2.774  0.2059  0.3398  0.8633
   43MOL    C7237956   4.519   8.338   2.817  0.1005 -0.0749  0.3243
   43MOL    C7337957   4.649   8.304   2.860  0.5679 -0.4062  0.0732
   43MOL    C7437958   4.690   8.166   2.862 -0.0953  0.2423 -0.0482
   43MOL    O7537959   4.471   0.096   2.824 -0.0785  0.3049 -0.2900
   43MOL    H7637960   4.686   7.594   1.949 -0.2258  0.0507  0.2759
   43MOL    H7737961   4.878   7.631   2.108  1.1660  0.0311 -0.9081
   43MOL    H7837962   4.909   7.202   2.173  1.2043  2.4386  3.4559
   43MOL    H7937963   4.723   7.173   2.020 -1.3200  0.7035 -0.1182
   43MOL    H8037964   4.783   7.361   2.371  1.8726 -0.6490 -1.5790
   43MOL    H8137965   4.686   7.410   2.592  0.1241  2.1568 -1.2095
   43MOL    H8237966   5.041   7.607   2.724  0.0711  0.7417  0.2387
   43MOL    H8337967   5.145   7.575   2.495  0.5210 -1.6994 -1.7086
   43MOL    H8437968   4.950   7.753   2.834  0.4757  0.7609  3.2907
   43MOL    H8537969   4.867   7.974   2.836 -0.2547  0.3469 -2.6839
   43MOL    H8637970   4.467   7.831   2.766 -0.9297 -1.8195  3.1806
   43MOL    H8737971   4.551   7.606   2.750 -0.1655  0.0166 -0.5831
   43MOL    H8837972   4.404   8.029   2.742 -0.8713 -0.1582  1.1980
   43MOL    H8937973   4.331   8.267   2.746  0.8825  1.9800  0.3132
   43MOL    H9037974   4.722   0.011   2.890 -1.9779  1.8419  1.0576
   43MOL    H9137975   4.794   8.149   2.885 -0.2372 -3.2559 -1.5746
   43MOL    C9237976   4.512   0.187   2.735  0.0116  0.0020  0.3248
   43MOL    C9337977   4.550   0.158   2.602  0.3549 -0.3410  0.2627
   43MOL    C9437978   4.597   0.260   2.512 -0.3497 -0.1117 -0.2109
   43MOL    C9537979   4.618   0.393   2.559  0.4724  0.0929 -0.4857
   43MOL    C9637980   4.576   0.421   2.690 -0.0349  0.9356  0.1937
   43MOL    C9737981   4.528   0.319   2.784  0.0776  0.2207  0.2701
   43MOL    S9837982   4.673   0.521   2.445 -0.0330  0.5046 -0.1995
   43MOL    O9937983   4.553   0.602   2.403  0.1595  0.8406 -0.2746
   43MOL   O10037984   4.752   0.453   2.347  0.2457  1.0274  0.0933
   43MOL   C10137985   4.791   0.622   2.533  0.1130 -0.3174 -0.3412
   43MOL   C10237986   4.925   0.579   2.529 -0.6350  0.8710  0.5116
   43MOL   C10337987   5.019   0.647   2.613  0.9161 -0.5734 -0.0518
   43MOL   C10437988   4.986   0.767   2.682  0.3817  0.4277  0.1045
   43MOL   C10537989   4.851   0.806   2.683 -0.0271  0.2091 -0.2760
   43MOL   C10637990   4.750   0.734   2.618  0.6279  0.4900  0.4845
   43MOL   O10737991   5.080   0.846   2.745 -0.6669 -0.0896  0.0399
   43MOL   C10837992   5.139   0.797   2.864  0.2099 -0.3094 -0.6490
   43MOL   C10937993   5.070   0.747   2.974 -0.4905 -0.0149 -0.0606
   43MOL   C11037994   5.134   0.704   3.087 -0.1406  0.5640 -0.1370
   43MOL   C11137995   5.274   0.702   3.098  0.6057  0.2005 -0.7544
   43MOL   C11237996   5.350   0.748   2.987 -0.4240  0.7104 -0.7255
   43MOL   C11337997   5.279   0.798   2.873 -0.2570 -0.0233  0.7704
   43MOL   C11437998   5.333   0.649   3.225 -0.1081 -0.0797 -0.0622
   43MOL   C11537999   5.444   0.712   3.290  0.0242 -0.4223 -0.2367
   43MOL   C11638000   5.493   0.659   3.411 -0.3796 -0.4234 -0.6858
   43MOL   C11738001   5.433   0.546   3.469  0.3722 -0.3793  0.1993
   43MOL   C11838002   5.324   0.483   3.408  0.6265 -0.4944 -0.0308
   43MOL   C11938003   5.273   0.537   3.290 -0.6609 -0.7689 -0.3427
   43MOL   O12038004   5.492   0.488   3.580  0.1115  0.4503  0.1712
   43MOL   H12138005   4.529   0.060   2.561  2.1214 -1.1389  1.2222
   43MOL   H12238006   4.618   0.227   2.411  2.0949  1.4820 -0.2649
   43MOL   H12338007   4.582   0.524   2.724  1.0546  0.9447 -0.0018
   43MOL   H12438008   4.508   0.347   2.886  0.6509  0.1835  0.3944
   43MOL   H12538009   4.963   0.504   2.462  2.6946  1.1133  1.9917
   43MOL   H12638010   5.121   0.612   2.608  1.0315 -0.0929 -0.9664
   43MOL   H12738011   4.816   0.883   2.750 -1.5338 -0.7525  0.0670
   43MOL   H12838012   4.643   0.742   2.634  0.8352  2.3512  0.9361
   43MOL   H12938013   4.962   0.751   2.964 -0.1962  0.1190 -3.5981
   43MOL   H13038014   5.070   0.678   3.171  1.2737  0.8552  1.0650
   43MOL   H13138015   5.458   0.759   2.985 -0.2575 -0.8287 -0.7742
   43MOL   H13238016   5.340   0.823   2.787 -0.1783 -0.5411  0.6721
   43MOL   H13338017   5.492   0.803   3.257  1.9301 -1.1751  0.3574
   43MOL   H13438018   5.585   0.694   3.456  0.1434 -2.0331 -0.4708
   43MOL   H13538019   5.262   0.411   3.458 -0.4642 -0.0552 -0.7343
   43MOL   H13638020   5.190   0.487   3.241 -0.5146 -1.5085  0.1412
   43MOL   C13738021   5.523   0.572   3.685  0.4591  0.3698  0.5418
   43MOL   C13838022   5.657   0.590   3.718  0.6923  0.6469  0.2473
   43MOL   C13938023   5.699   0.669   3.828 -0.0112  0.1679  0.6288
   43MOL   C14038024   5.601   0.724   3.913 -0.9958  0.3012 -0.4724
   43MOL   C14138025   5.465   0.715   3.869  0.2778  0.0150 -0.2144
   43MOL   C14238026   5.427   0.623   3.767 -0.5223 -0.4637 -0.0020
   43MOL   S14338027   5.640   0.821   4.059 -0.2073 -0.1429 -0.0282
   43MOL   O14438028   5.786   0.812   4.081 -0.0607 -0.0794  0.0580
   43MOL   O14538029   5.543   0.785   4.165  0.1814  0.2638  0.1745
   43MOL   C14638030   5.623   0.993   4.017  0.5961  0.0616 -0.2819
   43MOL   C14738031   5.533   1.081   4.084 -0.5419  0.6184 -0.2244
   43MOL   C14838032   5.510   1.209   4.035 -0.0751  0.6116  0.2081
   43MOL   C14938033   5.569   1.248   3.913  0.6127 -0.0435  0.9039
   43MOL   C15038034   5.669   1.165   3.856 -0.2698 -0.0381 -0.0552
   43MOL   C15138035   5.697   1.037   3.911  0.6212  0.2742  0.8211
   43MOL   O15238036   5.534   1.369   3.864 -0.2255  0.4591  0.5357
   43MOL   C15338037   5.460   1.358   3.747 -0.3112 -0.1550 -0.6738
   43MOL   C15438038   5.326   1.336   3.741  0.3533 -0.0706 -0.2704
   43MOL   C15538039   5.258   1.290   3.629 -0.2043 -0.4254 -0.2484
   43MOL   C15638040   5.327   1.295   3.507 -0.2879 -0.3950 -0.2424
   43MOL   C15738041   5.462   1.342   3.506 -0.2646 -0.8337 -0.3197
   43MOL   C15838042   5.531   1.368   3.626  0.2559  0.0133  0.4443
   43MOL   C15938043   5.264   1.250   3.386  0.4328  0.3641  0.4628
   43MOL   C16038044   5.236   1.346   3.282 -0.8403 -0.5172  0.3664
   43MOL   C16138045   5.177   1.307   3.163 -0.2122 -0.4840  0.3569
   43MOL   C16238046   5.152   1.169   3.142  0.5518  0.3368  0.9734
   43MOL   C16338047   5.175   1.070   3.242  0.1724 -0.2720 -0.3735
   43MOL   C16438048   5.234   1.112   3.364  0.1057  0.1430  0.9196
   43MOL   O16538049   5.104   1.131   3.016 -0.1677 -0.1005  0.4923
   43MOL   H16638050   5.728   0.542   3.651 -0.7171 -1.7236  0.3926
   43MOL   H16738051   5.801   0.689   3.858 -0.1172  0.3552  0.8622
   43MOL   H16838052   5.391   0.769   3.927  1.1357  3.3997 -2.1132
   43MOL   H16938053   5.325   0.601   3.740 -0.2240 -4.3679  1.7875
   43MOL   H17038054   5.478   1.045   4.170 -0.9916 -0.0545 -0.7861
   43MOL   H17138055   5.444   1.278   4.084 -1.0429  1.4862 -2.2222
   43MOL   H17238056   5.731   1.196   3.772 -0.6459  0.4801 -0.1433
   43MOL   H17338057   5.773   0.982   3.859 -1.0569 -0.5967 -0.7902
   43MOL   H17438058   5.271   1.325   3.834 -0.2434 -1.8474 -0.8156
   43MOL   H17538059   5.155   1.257   3.625 -0.8347  1.6386 -1.4167
   43MOL   H17638060   5.521   1.351   3.417  1.7774  2.0911  1.2401
   43MOL   H17738061   5.639   1.378   3.626  0.4290 -1.7230  1.4747
   43MOL   H17838062   5.258   1.450   3.302 -0.1506 -1.0120  2.2263
   43MOL   H17938063   5.158   1.374   3.081  1.3956  1.9374  1.9116
   43MOL   H18038064   5.157   0.965   3.223 -0.0054 -0.3607  0.2556
   43MOL   H18138065   5.255   1.037   3.440 -2.8617  0.1044  1.7659
   43MOL   C18238066   4.973   1.150   2.983  0.6879  0.5807  0.2741
   43MOL   C18338067   4.870   1.148   3.079 -0.1242  0.0124  0.6817
   43MOL   C18438068   4.740   1.143   3.038 -0.7684 -0.3251  0.1732
   43MOL   C18538069   4.709   1.143   2.901  0.0991  0.1120 -0.1572
   43MOL   C18638070   4.812   1.143   2.802  0.8009  0.2600 -0.1150
   43MOL   C18738071   4.945   1.153   2.850  0.8542  0.6991 -0.3191
   43MOL   S18838072   4.532   1.129   2.861 -0.0264 -0.2651 -0.2087
   43MOL   O18938073   4.476   1.264   2.882  0.1611 -0.4497 -0.2282
   43MOL   O19038074   4.481   1.017   2.939  0.1975  0.2643  0.0011
   43MOL   C19138075   4.514   1.089   2.691 -0.2857  0.3038 -0.5595
   43MOL   C19238076   4.560   1.177   2.597 -1.1600  0.6459  0.5553
   43MOL   C19338077   4.523   1.154   2.464 -0.7381 -0.0541  0.2025
   43MOL   C19438078   4.450   1.036   2.424  0.1838  0.7907 -0.5131
   43MOL   C19538079   4.409   0.945   2.523  0.1860  0.9813 -0.0976
   43MOL   C19638080   4.435   0.978   2.656  0.0956  0.3295  0.0984
   43MOL   O19738081   4.433   0.998   2.295  0.2926 -0.0041  0.2245
   43MOL   C19838082   4.304   0.962   2.243  0.0896 -0.9307  0.0441
   43MOL   C19938083   4.298   0.872   2.134 -0.1121  0.3445  0.1254
   43MOL   C20038084   4.171   0.829   2.089 -0.3347 -0.7160 -0.4391
   43MOL   C20138085   4.057   0.879   2.147 -0.5302  0.5080 -0.1400
   43MOL   C20238086   4.062   0.969   2.256  0.3528 -0.4792 -0.5818
   43MOL   C20338087   4.185   1.013   2.304 -0.0852  0.3098 -0.4113
   43MOL   C20438088   3.923   0.845   2.095 -1.0709 -0.6115  0.3738
   43MOL   C20538089   3.825   0.804   2.186  0.5654 -0.1888  0.2049
   43MOL   C20638090   3.699   0.759   2.137 -0.4768 -0.8157 -0.1632
   43MOL   C20738091   3.678   0.753   1.995  0.2805  0.4788 -0.1416
   43MOL   C20838092   3.775   0.795   1.903 -0.0242  0.2587 -0.6001
   43MOL   C20938093   3.899   0.836   1.953  0.4101 -0.5992  0.1409
   43MOL   O21038094   3.559   0.712   1.938 -0.3620 -0.1125 -0.1566
   43MOL   H21138095   4.893   1.142   3.184  1.1096 -1.8745  0.3460
   43MOL   H21238096   4.659   1.142   3.109  0.3974 -0.7151  1.5334
   43MOL   H21338097   4.797   1.135   2.696 -1.9420 -0.6132  0.2756
   43MOL   H21438098   5.015   1.142   2.768  0.9362  1.3760 -0.3477
   43MOL   H21538099   4.604   1.271   2.627  0.7803 -0.2476  0.5831
   43MOL   H21638100   4.557   1.221   2.387  1.2542 -1.7539 -0.4576
   43MOL   H21738101   4.351   0.861   2.488  1.3163 -0.4620  1.4229
   43MOL   H21838102   4.394   0.905   2.725  0.0598 -0.3864 -0.6613
   43MOL   H21938103   4.388   0.834   2.089 -0.1992 -3.8112  3.2089
   43MOL   H22038104   4.162   0.765   2.003 -1.8334  1.5359 -2.0315
   43MOL   H22138105   3.970   1.011   2.293  1.0525  0.3337  0.2881
   43MOL   H22238106   4.188   1.078   2.390 -1.6796  0.1177 -0.1974
   43MOL   H22338107   3.840   0.803   2.293  1.1457  0.3013  0.1293
   43MOL   H22438108   3.619   0.727   2.203 -1.7001  0.1016 -1.1918
   43MOL   H22538109   3.757   0.767   1.801 -1.4016  0.9419 -0.5514
   43MOL   H22638110   3.979   0.867   1.887  0.9161  1.2676  1.5974
   43MOL   C22738111   3.452   0.792   1.966  0.9016  0.0678 -0.1541
   43MOL   C22838112   3.369   0.772   2.082 -0.0713 -0.0328  0.1889
   43MOL   C22938113   3.254   0.855   2.094 -0.2980  0.2615  0.3932
   43MOL   C23038114   3.234   0.973   2.008  0.0443  0.5588 -0.3901
   43MOL   C23138115   3.317   0.990   1.893 -0.2170  0.2061  0.6947
   43MOL   C23238116   3.417   0.896   1.874 -0.6186 -0.5529  0.2037
   43MOL   S23338117   3.098   1.089   2.023 -0.3102  0.1242 -0.0728
   43MOL   O23438118   2.971   1.015   2.004 -0.5113 -0.6216  0.4913
   43MOL   O23538119   3.119   1.212   1.941  0.0880  0.5041  0.1331
   43MOL   C23638120   3.100   1.140   2.201 -0.4356 -0.0108 -0.4042
   43MOL   C23738121   3.132   1.275   2.230 -0.3298 -0.4812  0.4563
   43MOL   C23838122   3.117   1.312   2.367 -0.4902  0.3699  0.2272
   43MOL   C23938123   3.083   1.222   2.462 -0.0664  0.6123  0.0446
   43MOL   C24038124   3.058   1.083   2.436  0.6619  0.0347  0.5962
   43MOL   C24138125   3.059   1.049   2.298 -0.0559 -0.0789 -0.3928
   43MOL   O24238126   3.067   1.259   2.590  0.0465  0.3739 -0.2569
   43MOL   C24338127   2.943   1.308   2.625  0.8444 -0.6283  1.0689
   43MOL   C24438128   2.855   1.216   2.686 -0.6699 -0.4506  0.5385
   43MOL   C24538129   2.724   1.259   2.724 -0.8085  0.3399  0.1555
   43MOL   C24638130   2.687   1.391   2.698  0.0068  0.0357  0.0870
   43MOL   C24738131   2.780   1.474   2.638 -0.0833 -0.5011  0.5441
   43MOL   C24838132   2.904   1.438   2.591  0.0965  0.6589 -0.2838
   43MOL   C24938133   2.551   1.427   2.736  0.1695  0.2069  0.3671
   43MOL   C25038134   2.460   1.469   2.639  0.4363 -0.2790  0.0532
   43MOL   C25138135   2.327   1.496   2.670 -0.5276  0.2132  0.3533
   43MOL   C25238136   2.281   1.472   2.803 -0.3423  0.5402  0.1770
   43MOL   C25338137   2.377   1.435   2.900  0.3069  0.0381  0.0737
   43MOL   C25438138   2.507   1.405   2.868  0.0567  0.3416 -0.8393
   43MOL   O25538139   2.149   1.502   2.837  0.4961 -0.1072  0.4762
   43MOL   H25638140   3.395   0.694   2.152  0.4346  0.9274  1.0867
   43MOL   H25738141   3.185   0.846   2.177 -0.0810  0.9484  0.6509
   43MOL   H25838142   3.313   1.076   1.829 -1.1459  0.1518  0.6820
   43MOL   H25938143   3.481   0.904   1.787 -1.7723 -2.8107 -0.8675
   43MOL   H26038144   3.160   1.353   2.162 -1.9228 -1.3656 -1.2642
   43MOL   H26138145   3.136   1.414   2.395 -3.6359  1.1830 -0.4602
   43MOL   H26238146   3.036   1.012   2.514  2.4306 -2.4318 -1.0867
   43MOL   H26338147   3.043   0.945   2.276  1.7805 -0.3181 -0.6699
   43MOL   H26438148   2.891   1.116   2.704 -0.5144 -1.2324 -3.5159
   43MOL   H26538149   2.660   1.189   2.775 -1.1290  0.3460 -0.2286
   43MOL   H26638150   2.755   1.577   2.614  2.3409  0.5717  2.3863
   43MOL   H26738151   2.970   1.515   2.554 -1.5022  2.0358 -0.3091
   43MOL   H26838152   2.505   1.478   2.541  3.3452 -2.7737  1.0781
   43MOL   H26938153   2.255   1.534   2.598 -0.7847  1.2058  1.1200
   43MOL   H27038154   2.356   1.424   3.005 -0.8341 -2.7841 -0.4157
   43MOL   H27138155   2.573   1.364   2.942 -1.6180 -0.0266  0.4782
   43MOL   C27238156   2.105   1.473   2.964 -0.1407 -0.0227 -0.4600
   43MOL   C27338157   2.088   1.339   2.994 -0.7349  0.0483 -0.5634
   43MOL   C27438158   2.042   1.302   3.127 -0.5817 -0.1553  0.0330
   43MOL   C27538159   2.022   1.398   3.224  0.6752 -0.1409 -0.8227
   43MOL   C27638160   2.047   1.535   3.191  0.0488  0.0384  0.2184
   43MOL   C27738161   2.084   1.573   3.062 -0.3159 -0.6072  0.0842
   43MOL   S27838162   1.983   1.333   3.386  0.2604  0.0437  0.1351
   43MOL   O27938163   1.876   1.234   3.365 -0.4702 -0.3914  0.5663
   43MOL   O28038164   1.964   1.441   3.483  0.4191 -0.3904 -0.4266
   43MOL   C28138165   2.131   1.248   3.449 -0.6913 -0.0331  0.1192
   43MOL   C28238166   2.255   1.269   3.389  0.1279 -0.5308  0.4450
   43MOL   C28338167   2.366   1.208   3.446  0.3181 -0.2150  0.1793
   43MOL   C28438168   2.362   1.129   3.565 -0.2629 -0.4892  0.2677
   43MOL   C28538169   2.234   1.110   3.619 -0.3895 -0.0635 -0.2215
   43MOL   C28638170   2.120   1.176   3.569  0.1783 -0.0624  0.9765
   43MOL   O28738171   2.473   1.067   3.621 -0.4467  0.2406 -0.0001
   43MOL   C28838172   2.483   0.935   3.588  0.0812  0.1844 -0.3516
   43MOL   C28938173   2.502   0.901   3.457  0.1000 -0.5717  0.8449
   43MOL   C29038174   2.514   0.762   3.422  0.2103  0.0293  0.6163
   43MOL   C29138175   2.509   0.666   3.528 -0.1096  0.2599 -0.1539
   43MOL   C29238176   2.478   0.704   3.656 -0.9172  0.2214  0.7498
   43MOL   C29338177   2.474   0.839   3.693 -0.6926 -0.0823  0.3214
   43MOL   C29438178   2.505   0.522   3.490 -0.0145  0.1306  0.2246
   43MOL   C29538179   2.385   0.457   3.446  0.1190  0.4400 -0.4044
   43MOL   C29638180   2.389   0.325   3.403  0.1692  0.2974 -0.1927
   43MOL   C29738181   2.508   0.249   3.393  0.6077 -0.2493  0.0721
   43MOL   C29838182   2.626   0.317   3.422  0.0620  0.2922  0.8694
   43MOL   C29938183   2.627   0.448   3.470  0.2015 -0.5949 -0.1513
   43MOL   O30038184   2.512   0.117   3.349 -0.2708 -0.1503  0.1136
   43MOL   H30138185   2.098   1.263   2.917 -2.5958 -0.0001 -0.7833
   43MOL   H30238186   2.022   1.197   3.144 -1.4398 -0.0655 -0.3851
   43MOL   H30338187   2.038   1.607   3.272 -2.5337  0.6924 -0.5916
   43MOL   H30438188   2.101   1.678   3.042  0.4440 -0.7205  0.1167
   43MOL   H30538189   2.265   1.329   3.299  0.0578 -1.0418  0.0977
   43MOL   H30638190   2.459   1.222   3.394 -0.7252  1.3158 -1.3139
   43MOL   H30738191   2.221   1.049   3.707 -3.1639  2.2875  1.0931
   43MOL   H30838192   2.024   1.168   3.619 -0.3791 -0.2407 -0.1134
   43MOL   H30938193   2.500   0.975   3.379 -1.1528 -0.8922  0.5567
   43MOL   H31038194   2.522   0.732   3.318 -2.6091  3.0451 -0.5477
   43MOL   H31138195   2.455   0.632   3.733  1.5666 -0.4226  0.9469
   43MOL   H31238196   2.451   0.879   3.791 -2.9960  2.1391 -1.0511
   43MOL   H31338197   2.292   0.512   3.436 -1.4219 -2.0868 -0.4616
   43MOL   H31438198   2.294   0.290   3.367 -0.0186 -0.1710  0.7430
   43MOL   H31538199   2.719   0.263   3.413 -0.2476  0.1560 -2.0339
   43MOL   H31638200   2.724   0.490   3.491  0.3688 -1.6448  1.2747
   43MOL   C31738201   2.495   0.020   3.438  0.4596  0.6161  0.5719
   43MOL   C31838202   2.456   8.257   3.393 -0.0031 -0.2034  0.1078
   43MOL   C31938203   2.449   8.145   3.479  0.9005 -0.1670 -0.1531
   43MOL   C32038204   2.475   8.170   3.613  0.4046 -0.0806 -0.3427
   43MOL   C32138205   2.502   8.302   3.663 -0.2570  0.4472  0.4061
   43MOL   C32238206   2.523   0.040   3.575  0.4426  0.3250  0.7877
   43MOL   S32338207   2.439   8.038   3.732 -0.1882  0.2232  0.2493
   43MOL   O32438208   2.456   8.093   3.865 -0.2811  0.2378 -0.4618
   43MOL   O32538209   2.515   7.917   3.698  0.0001 -0.5990 -0.1913
   43MOL   C32638210   2.264   7.994   3.709  0.0909 -0.5492 -0.0810
   43MOL   C32738211   2.167   8.008   3.809  0.4235 -0.3394  0.8546
   43MOL   C32838212   2.033   7.966   3.791  0.2264 -0.4204  1.0758
   43MOL   C32938213   2.006   7.888   3.671 -0.2991 -0.5348  0.3122
   43MOL   C33038214   2.108   7.867   3.579 -0.9201 -0.4233  0.0631
   43MOL   C33138215   2.235   7.913   3.600  0.1413 -0.0731 -0.0167
   43MOL   O33238216   1.881   7.849   3.638 -0.7937  0.0871  0.5210
   43MOL   C33338217   1.831   7.913   3.529 -0.1204  0.2085  0.0496
   43MOL   C33438218   1.798   8.049   3.546  0.0052  0.0555 -0.4228
   43MOL   C33538219   1.745   8.116   3.428  0.2102 -0.6302 -0.2355
   43MOL   C33638220   1.737   8.051   3.307 -0.0646  0.3925  0.5960
   43MOL   C33738221   1.782   7.920   3.294  0.1594 -0.3177 -0.4349
   43MOL   C33838222   1.828   7.855   3.406 -0.4699 -0.1343 -0.1654
   43MOL   C33938223   1.690   8.120   3.184  0.4044  0.0747  0.0995
   43MOL   C34038224   1.747   8.101   3.053  0.6132  1.2060  0.0476
   43MOL   C34138225   1.700   8.154   2.934  0.4860  0.1179 -0.0767
   43MOL   C34238226   1.584   8.232   2.942 -0.0741 -0.4722 -0.1287
   43MOL   C34338227   1.528   8.266   3.067  0.0988 -0.0114  0.1045
   43MOL   C34438228   1.582   8.210   3.185  0.3153  0.2439 -0.1271
   43MOL   O34538229   1.550   8.284   2.822  0.6367  0.6810 -0.7435
   43MOL   H34638230   2.427   8.244   3.290  0.8835 -1.7831  0.0348
   43MOL   H34738231   2.423   8.047   3.440  1.8592 -0.3405 -0.3724
   43MOL   H34838232   2.510   8.323   3.769  0.4649  2.0768  0.0408
   43MOL   H34938233   2.545   0.140   3.608  0.4487  0.1335  1.3798
   43MOL   H35038234   2.190   8.063   3.899 -1.3052 -2.9707  3.0166
   43MOL   H35138235   1.952   7.991   3.858  0.0565 -0.7438  0.9937
   43MOL   H35238236   2.093   7.794   3.500 -2.7044 -1.0940  1.0028
   43MOL   H35338237   2.315   7.894   3.531  0.9152 -0.3162  0.9428
   43MOL   H35438238   1.814   8.118   3.628 -3.2782 -0.2995  0.6060
   43MOL   H35538239   1.720   8.220   3.441  1.3563 -0.3753 -0.0286
   43MOL   H35638240   1.782   7.870   3.198  0.7001 -0.1349 -0.5294
   43MOL   H35738241   1.867   7.756   3.391  1.0496  0.6073 -1.2240
   43MOL   H35838242   1.836   8.040   3.048 -1.4989 -1.9262 -0.7068
   43MOL   H35938243   1.748   8.141   2.838  1.9437 -3.0142  1.0215
   43MOL   H36038244   1.446   8.336   3.072 -1.0735 -1.5211  2.8603
   43MOL   H36138245   1.536   8.239   3.278  0.6338  1.0171 -0.2073
   43MOL   C36238246   1.438   8.359   2.809  0.0713  0.4557 -0.1400
   43MOL   C36338247   1.312   8.294   2.769 -0.5560  0.3286  0.1948
   43MOL   C36438248   1.195   0.003   2.746 -0.8960 -0.0175 -0.2553
   43MOL   C36538249   1.195   0.145   2.785 -0.3006 -0.2316  0.3630
   43MOL   C36638250   1.317   0.210   2.824 -1.0341  0.4268  0.2212
   43MOL   C36738251   1.439   0.130   2.833 -0.2313 -0.1826 -0.4231
   43MOL   S36838252   1.048   0.244   2.760 -0.3433  0.1761  0.2232
   43MOL   O36938253   0.934   0.150   2.749 -0.2680  0.1539  0.1534
   43MOL   O37038254   1.080   0.350   2.661 -0.0463 -0.6034  0.8450
   43MOL   C37138255   1.025   0.326   2.914 -0.8492 -0.2990 -0.8277
   43MOL   C37238256   1.039   0.465   2.931  0.3548 -0.0426  0.4333
   43MOL   C37338257   1.019   0.532   3.052  0.2847 -0.0850  0.0982
   43MOL   C37438258   0.989   0.455   3.167 -0.2433 -0.0787 -0.1411
   43MOL   C37538259   0.981   0.313   3.156  0.0120 -0.3658  0.4259
   43MOL   C37638260   0.993   0.248   3.031  0.2785  0.7164  0.1395
   43MOL   O37738261   0.972   0.514   3.292 -0.7822  0.3744 -0.1527
   43MOL   C37838262   0.886   0.618   3.311 -0.3623 -0.8218  0.1394
   43MOL   C37938263   0.748   0.595   3.287 -0.1609  0.3171  0.1462
   43MOL   C38038264   0.659   0.697   3.285 -0.1686 -0.4153  0.2298
   43MOL   C38138265   0.699   0.830   3.305  0.1865 -0.1302  0.2270
   43MOL   C38238266   0.833   0.848   3.358 -0.1493  0.1785 -0.0976
   43MOL   C38338267   0.930   0.746   3.357 -0.6439 -0.1565 -0.4479
   43MOL   C38438268   0.611   0.942   3.270 -0.7561 -0.0719 -0.1255
   43MOL   C38538269   0.624   1.011   3.148 -1.0812 -0.0531  0.1438
   43MOL   C38638270   0.547   1.119   3.115  1.0295  0.5854  0.0427
   43MOL   C38738271   0.448   1.167   3.206 -0.6031 -0.2075  0.1250
   43MOL   C38838272   0.426   1.087   3.321 -0.6831  0.6207  0.2314
   43MOL   C38938273   0.508   0.981   3.351 -0.1120 -0.0425  0.1856
   43MOL   O39038274   0.356   1.262   3.172  0.1948  0.1503 -0.1041
   43MOL   H39138275   1.314   8.188   2.749 -1.8393  0.0004  1.8196
   43MOL   H39238276   1.104   8.320   2.716  0.5987 -1.5107 -2.4736
   43MOL   H39338277   1.320   0.313   2.855 -0.8252  0.0922  1.3325
   43MOL   H39438278   1.538   0.165   2.858  0.0001  1.0332 -2.8436
   43MOL   H39538279   1.073   0.523   2.846  0.0728  2.1171  1.7631
   43MOL   H39638280   1.017   0.640   3.054  0.4417 -0.1086  1.7483
   43MOL   H39738281   0.970   0.260   3.249 -2.2760  1.2022  1.1064
   43MOL   H39838282   0.995   0.141   3.014 -0.0672  0.8485 -0.7456
   43MOL   H39938283   0.713   0.495   3.264 -0.0966  0.2488  0.3471
   43MOL   H40038284   0.560   0.666   3.254  0.2227 -0.8605 -0.5821
   43MOL   H40138285   0.864   0.947   3.389  1.2800 -0.2451 -0.1398
   43MOL   H40238286   1.035   0.756   3.383 -0.4014 -0.1576 -1.3921
   43MOL   H40338287   0.705   0.986   3.081 -3.1993 -0.1384 -2.4532
   43MOL   H40438288   0.563   1.173   3.022  1.7834 -0.1913 -0.2868
   43MOL   H40538289   0.351   1.117   3.393  1.0595  0.2005  2.2890
   43MOL   H40638290   0.491   0.935   3.448  0.6248  1.6457  1.1515
   43MOL   C40738291   0.400   1.385   3.135  0.2383 -0.3123 -0.4352
   43MOL   C40838292   0.459   1.470   3.227  0.5875 -0.4200 -0.3230
   43MOL   C40938293   0.496   1.601   3.190 -0.3857  0.8598  0.7382
   43MOL   C41038294   0.494   1.644   3.057 -0.0536 -0.1560 -0.1399
   43MOL   C41138295   0.437   1.561   2.959 -0.4128 -0.1262  0.0003
   43MOL   C41238296   0.393   1.430   2.999  1.0850  0.4537  0.2638
   43MOL   S41338297   0.575   1.794   2.996  0.4981 -0.2980  0.2450
   43MOL   O41438298   0.668   1.753   2.890  0.3239  0.0765 -0.3353
   43MOL   O41538299   0.621   1.857   3.122  0.0028 -0.2523 -0.1056
   43MOL   C41638300   0.453   1.904   2.920  0.0768 -0.0155 -0.2290
   43MOL   C41738301   0.398   2.007   3.009  0.4604  0.1366 -0.1142
   43MOL   C41838302   0.318   2.102   2.946 -0.4727 -0.1416 -0.2841
   43MOL   C41938303   0.285   2.107   2.809 -0.7685 -0.3320  0.6038
   43MOL   C42038304   0.348   2.011   2.718  0.0651  0.5092 -0.2174
   43MOL   C42138305   0.421   1.913   2.780  0.0568  0.2269  0.2105
   43MOL   O42238306   0.206   2.208   2.760 -0.3525 -0.4749 -0.2360
   43MOL   C42338307   0.083   2.177   2.703 -0.0643  0.0851  0.5582
   43MOL   C42438308   8.334   2.157   2.781  0.8691 -0.2155 -0.1067
   43MOL   C42538309   8.213   2.119   2.716 -1.0043 -0.6239  0.3368
   43MOL   C42638310   8.203   2.088   2.582  0.0534 -0.3447 -0.5044
   43MOL   C42738311   8.320   2.117   2.505 -0.6604 -0.1315  0.5724
   43MOL   C42838312   0.081   2.161   2.562  0.7773  0.3164 -0.2755
   43MOL   C42938313   8.079   2.038   2.526  0.1942  0.1223 -0.5020
   43MOL   C43038314   8.047   2.090   2.400 -0.0792 -0.3716 -0.0686
   43MOL   C43138315   7.928   2.046   2.334 -0.0573  0.4335  0.0731
   43MOL   C43238316   7.839   1.957   2.392 -0.7344 -0.3915 -0.3855
   43MOL   C43338317   7.868   1.909   2.518 -0.4699  0.7549  0.1778
   43MOL   C43438318   7.990   1.945   2.583 -0.2027  0.6688 -0.0292
   43MOL   O43538319   7.720   1.935   2.339 -0.7033 -0.2266 -0.1001
   43MOL   H43638320   0.469   1.429   3.327  1.4494  0.4596 -0.0444
   43MOL   H43738321   0.562   1.664   3.248  1.0385  0.1501 -0.0954
   43MOL   H43838322   0.453   1.593   2.857  1.2309  1.7797  0.8087
   43MOL   H43938323   0.361   1.367   2.918 -1.6016  2.0707 -0.0036
   43MOL   H44038324   0.430   2.023   3.111  0.4642  0.0078 -0.0953
   43MOL   H44138325   0.287   2.187   3.005  1.0138  1.8838 -2.3286
   43MOL   H44238326   0.326   2.009   2.612  2.7796  1.1896 -0.8196
   43MOL   H44338327   0.469   1.835   2.723 -2.5801 -0.4295 -1.1733
   43MOL   H44438328   8.333   2.175   2.888  0.1001 -1.0145  0.0311
   43MOL   H44538329   8.124   2.111   2.778 -3.3312 -1.0968 -2.9104
   43MOL   H44638330   8.328   2.102   2.398 -1.3385 -0.0061  0.5052
   43MOL   H44738331   0.164   2.183   2.495 -0.0933  1.9192 -0.8565
   43MOL   H44838332   8.112   2.161   2.351  1.2422 -0.8888  0.8872
   43MOL   H44938333   7.909   2.096   2.241  1.8258  1.9594  0.4660
   43MOL   H45038334   7.798   1.844   2.568 -0.5415  1.8699  1.5473
   43MOL   H45138335   7.992   1.920   2.688  1.6051 -0.1884 -0.2619
   43MOL   C45238336   7.705   1.849   2.234  0.3534 -0.7677  0.0766
   43MOL   C45338337   7.696   1.715   2.257 -0.6765 -0.4816  0.2550
   43MOL   C45438338   7.657   1.624   2.153  0.6382 -0.0083  0.9756
   43MOL   C45538339   7.640   1.668   2.022  0.6971  0.6897  0.1270
   43MOL   C45638340   7.649   1.809   1.997 -1.0889  0.0269  0.3878
   43MOL   C45738341   7.684   1.899   2.103  0.1828 -0.4805 -0.8374
   43MOL   S45838342   7.609   1.553   1.888 -0.0326 -0.0617 -0.1854
   43MOL   O45938343   7.466   1.527   1.887  0.0736  0.1972  0.4356
   43MOL   O46038344   7.703   1.443   1.916 -0.0215  0.1264  0.5030
   43MOL   C46138345   7.653   1.638   1.735  0.2491 -0.3696 -0.1299
   43MOL   C46238346   7.556   1.674   1.643 -0.8790  0.2563  0.7853
   43MOL   C46338347   7.601   1.729   1.522 -1.0788 -0.3677 -0.0923
   43MOL   C46438348   7.740   1.764   1.506 -0.2003  0.8017  0.0299
   43MOL   C46538349   7.838   1.719   1.600  0.0159  0.2997  0.1855
   43MOL   C46638350   7.791   1.653   1.713 -0.0085 -0.3962  0.0339
   43MOL   O46738351   7.795   1.829   1.402  0.3390  0.1701 -0.1660
   43MOL   C46838352   7.753   1.783   1.283  0.3893 -0.9718  0.1627
   43MOL   C46938353   7.656   1.850   1.212 -0.0592  0.0528  0.0991
   43MOL   C47038354   7.616   1.796   1.088 -0.0079 -0.2182  0.1992
   43MOL   C47138355   7.655   1.665   1.047  0.5712  0.0315  0.0368
   43MOL   C47238356   7.750   1.599   1.126 -0.7725 -0.0468 -0.0807
   43MOL   C47338357   7.807   1.661   1.238  0.0137 -0.2059 -0.6527
   43MOL   C47438358   7.595   1.609   0.928  0.1213  0.6260 -0.1163
   43MOL   C47538359   7.535   1.698   0.833  0.1806 -0.1486  0.5477
   43MOL   C47638360   7.481   1.641   0.717  0.3417 -0.3018  0.3323
   43MOL   C47738361   7.475   1.502   0.698 -0.0501  0.7312 -0.5948
   43MOL   C47838362   7.526   1.417   0.789  0.1125 -0.2556 -0.8865
   43MOL   C47938363   7.587   1.470   0.901 -0.1092  0.5525 -0.2468
   43MOL   O48038364   7.407   1.451   0.589  0.5264  0.3968 -0.3176
   43MOL   H48138365   7.706   1.675   2.357  0.5081  1.7639  1.0779
   43MOL   H48238366   7.651   1.518   2.169 -1.8672  0.2460  1.9734
   43MOL   H48338367   7.625   1.842   1.897  2.1876 -3.1549 -1.5762
   43MOL   H48438368   7.672   2.006   2.093  0.4251 -0.1920  1.7066
   43MOL   H48538369   7.453   1.642   1.653 -1.0225 -0.1580 -1.5960
   43MOL   H48638370   7.532   1.759   1.445  0.0218  1.5183 -0.3548
   43MOL   H48738371   7.944   1.728   1.586  0.0557  2.5190  1.5554
   43MOL   H48838372   7.863   1.611   1.782  0.1191  0.8779  0.6843
   43MOL   H48938373   7.600   1.939   1.238  0.4164  0.1743  0.7119
   43MOL   H49038374   7.527   1.843   1.048  0.7264  1.2606  0.2457
   43MOL   H49138375   7.776   1.498   1.100  0.3589  0.2677 -0.1913
   43MOL   H49238376   7.890   1.616   1.290  1.0623  2.5267  0.1279
   43MOL   H49338377   7.543   1.805   0.832 -2.7483  0.1224 -1.4374
   43MOL   H49438378   7.452   1.703   0.634 -3.0715 -0.2757  1.4714
   43MOL   H49538379   7.530   1.309   0.777 -0.7836 -0.8092  3.0956
   43MOL   H49638380   7.627   1.412   0.983 -0.6241  0.7075  0.1193
   43MOL   C49738381   7.272   1.433   0.605  0.2316  0.3369  0.8187
   43MOL   C49838382   7.205   1.427   0.728 -0.6918 -0.0098 -0.0569
   43MOL   C49938383   7.066   1.413   0.733 -0.3368  0.0215 -0.4303
   43MOL   C50038384   6.997   1.382   0.618  0.4181 -0.5851  0.0578
   43MOL   C50138385   7.061   1.384   0.492 -0.0695  0.0271 -0.3633
   43MOL   C50238386   7.198   1.410   0.485 -0.1637  0.4160  0.1070
   43MOL   S50338387   6.820   1.355   0.625  0.1554 -0.1413 -0.1974
   43MOL   O50438388   6.763   1.401   0.499  0.0074  0.2564 -0.7021
   43MOL   O50538389   6.781   1.425   0.747  0.0315 -0.0730 -0.2229
   43MOL   C50638390   6.791   1.182   0.649 -0.0766 -0.2087  0.0442
   43MOL   C50738391   6.883   1.101   0.713  0.6527 -0.3154  1.1951
   43MOL   C50838392   6.857   0.965   0.750  0.1801  0.5661 -0.3075
   43MOL   C50938393   6.726   0.910   0.718  0.9330 -0.4882  0.3695
   43MOL   C51038394   6.634   0.991   0.649 -0.1124  0.6322  0.6955
   43MOL   C51138395   6.666   1.123   0.610 -0.1087  0.0908  0.0255
   43MOL   O51238396   6.689   0.775   0.733  0.2080 -0.2959  0.5886
   43MOL   C51338397   6.746   0.692   0.820  0.7193  0.3125 -0.0057
   43MOL   C51438398   6.799   0.566   0.777  1.0062  0.1364 -0.4356
   43MOL   C51538399   6.855   0.484   0.872  0.3711 -0.2262  0.0192
   43MOL   C51638400   6.856   0.520   1.012  0.3739  0.7613  0.8827
   43MOL   C51738401   6.811   0.643   1.049 -0.6308  0.1759 -0.3436
   43MOL   C51838402   6.762   0.735   0.954  0.7530 -1.0488 -0.2935
   43MOL   C51938403   6.910   0.423   1.110 -0.8416  0.4537 -0.3295
   43MOL   C52038404   6.834   0.312   1.141  0.0007 -0.1257  0.2722
   43MOL   C52138405   6.868   0.214   1.241  0.4445  0.3169  0.3665
   43MOL   C52238406   6.980   0.238   1.322  1.0254  0.0826 -0.1303
   43MOL   C52338407   7.063   0.354   1.289  0.4166  0.4323 -0.8741
   43MOL   C52438408   7.029   0.442   1.186 -0.3488  0.0124 -0.2149
   43MOL   O52538409   6.993   0.163   1.439  0.3614 -0.4240 -0.6355
   43MOL   H52638410   7.247   1.450   0.825 -1.1218  1.5211 -0.2117
   43MOL   H52738411   7.020   1.423   0.831  1.2817  1.5399  0.2108
   43MOL   H52838412   7.006   1.375   0.399 -0.9578  0.8316  0.0749
   43MOL   H52938413   7.241   1.413   0.386  1.3279 -0.1035  0.7209
   43MOL   H53038414   6.977   1.142   0.749  1.1426  2.2491 -2.7182
   43MOL   H53138415   6.925   0.908   0.812 -1.4549 -1.2732 -0.1342
   43MOL   H53238416   6.537   0.947   0.633  0.1350 -0.0632  1.1097
   43MOL   H53338417   6.593   1.175   0.550 -0.0086 -0.1168 -0.2772
   43MOL   H53438418   6.813   0.532   0.676  4.1355  0.6767 -0.2225
   43MOL   H53538419   6.898   0.395   0.829 -0.9978  0.2000 -2.3579
   43MOL   H53638420   6.819   0.681   1.149 -0.2191 -3.8136  1.2209
   43MOL   H53738421   6.719   0.827   0.992  1.9647 -0.9161  0.7848
   43MOL   H53838422   6.752   0.287   1.076  0.6222 -0.5656 -0.3447
   43MOL   H53938423   6.802   0.129   1.254  1.9863 -1.0512 -0.5915
   43MOL   H54038424   7.146   0.366   1.357 -0.4050 -1.4012  0.5206
   43MOL   H54138425   7.088   0.530   1.164  0.9914 -0.1276  2.6580
   43MOL   C54238426   6.915   0.192   1.548  0.0510 -0.4423 -0.0178
   43MOL   C54338427   6.902   0.087   1.645  0.3844 -0.6072  0.3517
   43MOL   C54438428   6.813   0.110   1.748 -0.1266  0.4681 -0.5869
   43MOL   C54538429   6.752   0.232   1.763 -0.8474  0.0156 -0.5340
   43MOL   C54638430   6.777   0.340   1.678 -0.1023 -0.0231  0.3743
   43MOL   C54738431   6.861   0.319   1.568  0.1393 -0.9016 -0.0702
   43MOL   S54838432   6.628   0.263   1.888 -0.2481  0.2720 -0.4612
   43MOL   O54938433   6.578   0.402   1.868  0.0557  0.2576 -0.4861
   43MOL   O55038434   6.690   0.228   2.019 -0.3819 -0.0802  0.6941
   43MOL   C55138435   6.496   0.150   1.850  0.5590 -0.6132 -0.1594
   43MOL   C55238436   6.461   0.051   1.947  0.4837 -0.4645 -0.4693
   43MOL   C55338437   6.361   8.330   1.908  0.5007 -0.0579  0.1281
   43MOL   C55438438   6.293   8.334   1.784  0.0600  0.1925 -0.1977
   43MOL   C55538439   6.333   0.064   1.689 -0.6783 -0.4165  0.1597
   43MOL   C55638440   6.439   0.152   1.722  0.6546 -0.4701  0.0511
   43MOL   O55738441   6.182   8.251   1.760 -0.0948  0.2645 -0.3254
   43MOL   C55838442   6.189   8.125   1.716  0.2791 -0.6773 -0.1070
   43MOL   C55938443   6.270   8.034   1.786  0.0383 -0.2585  0.2293
   43MOL   C56038444   6.282   7.897   1.744 -0.0984  0.5069  0.3699
   43MOL   C56138445   6.215   7.851   1.626  0.3964  0.9011 -0.6129
   43MOL   C56238446   6.116   7.940   1.565 -0.4160 -0.1807 -0.7143
   43MOL   C56338447   6.109   8.076   1.611  0.2518 -0.2503  0.5424
   43MOL   C56438448   6.237   7.717   1.575 -0.1740  0.1449 -0.1245
   43MOL   C56538449   6.274   7.709   1.439 -0.2123 -0.4020 -0.0238
   43MOL   C56638450   6.310   7.580   1.383 -0.0094  0.0585 -0.6774
   43MOL   C56738451   6.303   7.466   1.459 -0.5663 -0.1303  1.7418
   43MOL   C56838452   6.264   7.467   1.593 -0.4393  0.1356  0.0026
   43MOL   C56938453   6.237   7.597   1.655  0.1528 -0.6636  0.5814
   43MOL   O57038454   6.349   7.347   1.402 -0.4512 -0.1279 -0.1271
   43MOL   H57138455   6.964   8.366   1.630  0.7077 -0.0351 -1.6663
   43MOL   H57238456   6.795   0.041   1.829 -2.0705 -0.4082 -1.7297
   43MOL   H57338457   6.729   0.436   1.684 -0.4895 -0.2570  1.0938
   43MOL   H57438458   6.888   0.398   1.500 -0.6636 -1.5738 -1.1803
   43MOL   H57538459   6.508   0.052   2.044 -0.3176  0.9717 -0.0875
   43MOL   H57638460   6.327   8.256   1.979 -3.2829  1.7320  0.3319
   43MOL   H57738461   6.270   0.081   1.604 -0.0053 -1.0654 -0.4823
   43MOL   H57838462   6.468   0.233   1.656  0.0362  0.6993  1.1682
   43MOL   H57938463   6.330   8.064   1.871  0.2194 -1.9091  0.6991
   43MOL   H58038464   6.361   7.840   1.791  0.0220  1.7526  1.7232
   43MOL   H58138465   6.063   7.901   1.479  3.7358 -0.7009 -3.1762
   43MOL   H58238466   6.045   8.141   1.553 -0.4689 -1.2155  0.2437
   43MOL   H58338467   6.283   7.799   1.381  1.0262  0.7146  1.8374
   43MOL   H58438468   6.355   7.585   1.285  1.2669  0.2690 -0.0880
   43MOL   H58538469   6.258   7.372   1.644 -1.9775  0.8551  1.2137
   43MOL   H58638470   6.222   7.614   1.761 -1.4274  0.5825  0.1710
   43MOL   C58738471   6.436   7.265   1.477  0.1640 -0.1413  0.1692
   43MOL   C58838472   6.557   7.322   1.518 -0.0272 -0.0455  0.1844
   43MOL   C58938473   6.644   7.240   1.597 -0.4074  0.2188 -0.6917
   43MOL   C59038474   6.607   7.107   1.631 -0.1156 -0.3835  0.4114
   43MOL   C59138475   6.477   7.060   1.602  0.5882  0.0183 -0.1638
   43MOL   C59238476   6.393   7.135   1.520  0.2832 -0.1957 -0.1957
   43MOL   S59338477   6.705   7.033   1.755 -0.0004 -0.3610 -0.1405
   43MOL   O59438478   6.629   7.038   1.878  0.0643  0.5784 -0.5429
   43MOL   O59538479   6.842   7.095   1.752 -0.2467  0.0371  0.2860
   43MOL   C59638480   6.725   6.864   1.720 -0.4519 -0.3096 -0.3273
   43MOL   C59738481   6.812   6.830   1.613 -0.3997  0.2555  0.7621
   43MOL   C59838482   6.823   6.693   1.580 -0.1897 -0.2371 -0.1149
   43MOL   C59938483   6.741   6.599   1.651  0.2231 -0.6317  0.3453
   43MOL   C60038484   6.664   6.633   1.760  0.5481 -0.3270 -0.0025
   43MOL   C60138485   6.666   6.767   1.799  0.8417 -0.1783  0.3650
   43MOL   O60238486   6.734   6.467   1.608  0.1281  0.2261 -0.1177
   43MOL   C60338487   6.852   6.413   1.562  0.7069 -0.2803 -0.5937
   43MOL   C60438488   6.975   6.435   1.632  0.0789  0.9091 -0.0917
   43MOL   C60538489   7.095   6.403   1.568  0.5120  0.1524 -0.1046
   43MOL   C60638490   7.097   6.353   1.438  0.5374  0.0499 -0.6119
   43MOL   C60738491   6.979   6.329   1.371 -0.0186 -0.1662  0.3548
   43MOL   C60838492   6.853   6.352   1.434 -0.7446 -0.0367 -0.7589
   43MOL   C60938493   7.221   6.325   1.373  0.3133  0.3348  0.0328
   43MOL   C61038494   7.338   6.397   1.401  0.0327  0.5533 -0.5870
   43MOL   C61138495   7.458   6.368   1.340 -0.3162  0.5114 -0.3016
   43MOL   C61238496   7.470   6.261   1.240 -0.4609  0.5737 -0.2089
   43MOL   C61338497   7.351   6.189   1.210 -1.0612  0.7478 -0.4306
   43MOL   C61438498   7.233   6.218   1.280 -0.2695  0.3383  0.7140
   43MOL   O61538499   7.594   6.229   1.192  0.4590 -0.3871  0.0744
   43MOL   H61638500   6.584   7.423   1.492 -1.5436  1.2800  3.4615
   43MOL   H61738501   6.740   7.280   1.623 -0.8080  0.3881  0.5618
   43MOL   H61838502   6.445   6.965   1.642  2.6936 -1.6065 -2.2006
   43MOL   H61938503   6.291   7.108   1.501 -0.0204  0.2071  0.8284
   43MOL   H62038504   6.854   6.912   1.556  1.0903 -0.6626  0.5098
   43MOL   H62138505   6.877   6.665   1.490 -0.0253 -0.3185  0.0090
   43MOL   H62238506   6.602   6.564   1.814  0.4135  1.0383  1.6384
   43MOL   H62338507   6.609   6.803   1.883  0.7300 -0.3207  0.3495
   43MOL   H62438508   6.977   6.477   1.731 -1.1926  1.7646 -0.4157
   43MOL   H62538509   7.186   6.416   1.626  1.7124  0.3664 -1.9940
   43MOL   H62638510   6.971   6.290   1.271  0.3803 -1.2279  0.7332
   43MOL   H62738511   6.755   6.342   1.390 -1.5363 -0.3184  1.0022
   43MOL   H62838512   7.337   6.481   1.469 -0.1998 -0.8725  1.1816
   43MOL   H62938513   7.542   6.429   1.367 -0.3256  1.2503 -1.8913
   43MOL   H63038514   7.352   6.109   1.138 -1.4915  0.5838 -0.2575
   43MOL   H63138515   7.155   6.159   1.235 -0.8599  0.5287  1.4796
   43MOL   C63238516   7.633   6.099   1.211 -0.4317 -0.0480 -0.3731
   43MOL   C63338517   7.719   6.041   1.115  0.3499  0.1270 -0.0875
   43MOL   C63438518   7.764   5.909   1.137  0.6857 -0.1870  0.1140
   43MOL   C63538519   7.731   5.836   1.254  0.1451 -0.1317 -0.6920
   43MOL   C63638520   7.646   5.892   1.349 -0.2406 -0.3165 -0.6298
   43MOL   C63738521   7.590   6.019   1.322  0.1111  0.5707 -0.3912
   43MOL   S63838522   7.804   5.676   1.275  0.0057 -0.2262 -0.5289
   43MOL   O63938523   7.949   5.694   1.285  0.2394 -0.1137 -0.3919
   43MOL   O64038524   7.751   5.579   1.177  0.4802 -0.1192 -0.0887
   43MOL   C64138525   7.740   5.616   1.433 -0.0444  0.1393 -0.4170
   43MOL   C64238526   7.792   5.672   1.550  0.2881  0.0603 -0.7833
   43MOL   C64338527   7.756   5.625   1.677 -0.9082  0.1593  0.6603
   43MOL   C64438528   7.654   5.530   1.684  0.0183  0.0615 -0.3298
   43MOL   C64538529   7.592   5.479   1.569 -0.3808 -0.1173 -0.1817
   43MOL   C64638530   7.635   5.522   1.440  0.0157 -0.7570  0.5387
   43MOL   O64738531   7.602   5.502   1.806  0.1422  0.2388  0.4539
   43MOL   C64838532   7.680   5.426   1.895 -0.3589  0.2870 -0.1864
   43MOL   C64938533   7.756   5.488   1.995 -0.1656 -0.3549 -0.1949
   43MOL   C65038534   7.827   5.401   2.078 -0.1303 -0.2364  0.2375
   43MOL   C65138535   7.837   5.260   2.061  1.0714 -0.4542 -0.2040
   43MOL   C65238536   7.757   5.201   1.960 -0.6060 -0.0789  0.3133
   43MOL   C65338537   7.674   5.285   1.879  0.2232 -0.2063  0.1375
   43MOL   C65438538   7.916   5.174   2.149  0.7055 -0.1045  0.1655
   43MOL   C65538539   7.907   5.190   2.285  0.3159 -0.3705 -0.0776
   43MOL   C65638540   7.968   5.104   2.375 -0.2907 -0.0902  0.1121
   43MOL   C65738541   8.048   5.002   2.330 -0.2156 -0.6909 -0.3137
   43MOL   C65838542   8.069   4.988   2.194 -0.2692  0.0903  0.2024
   43MOL   C65938543   7.995   5.067   2.104 -0.4988  0.3238  0.7165
   43MOL   O66038544   8.100   4.919   2.427 -0.1301 -0.4555  0.1114
   43MOL   H66138545   7.745   6.096   1.026 -0.5555 -0.2748 -0.6065
   43MOL   H66238546   7.826   5.855   1.067 -0.7148  0.3198 -1.5267
   43MOL   H66338547   7.618   5.840   1.439  1.1960 -0.7786 -0.4269
   43MOL   H66438548   7.527   6.068   1.394  0.2513  0.3397 -0.1136
   43MOL   H66538549   7.875   5.741   1.544  0.8435 -0.4916  0.4499
   43MOL   H66638550   7.797   5.656   1.772 -2.4476  0.8995  1.1062
   43MOL   H66738551   7.504   5.416   1.573  1.0224 -2.0089  1.4967
   43MOL   H66838552   7.578   5.488   1.355  0.5741 -1.5970  0.4897
   43MOL   H66938553   7.755   5.596   1.997 -1.7437 -0.3618  0.3908
   43MOL   H67038554   7.899   5.441   2.149  0.3239 -0.4774 -0.0812
   43MOL   H67138555   7.761   5.095   1.943  0.0305 -0.0362  0.1846
   43MOL   H67238556   7.612   5.249   1.798 -0.4144 -2.3593  1.5579
   43MOL   H67338557   7.839   5.266   2.323  1.4560 -0.2997  1.9127
   43MOL   H67438558   7.947   5.122   2.480 -0.8764 -0.1082 -0.0024
   43MOL   H67538559   8.134   4.906   2.166  0.3012  0.4269  0.5392
   43MOL   H67638560   8.008   5.046   1.999 -2.8632  0.6762  0.3306
   43MOL   C67738561   8.055   4.787   2.431  0.2569 -0.3612 -0.1577
   43MOL   C67838562   7.918   4.760   2.422 -0.3415  0.2352  0.2213
   43MOL   C67938563   7.878   4.627   2.428 -0.0622 -0.1462 -0.3608
   43MOL   C68038564   7.974   4.522   2.440 -0.4450  0.5410  0.3474
   43MOL   C68138565   8.108   4.548   2.446 -0.2968 -0.4108  0.7360
   43MOL   C68238566   8.149   4.678   2.438  0.6905  0.5908 -0.1097
   43MOL   S68338567   7.924   4.351   2.417  0.1938  0.3483  0.1446
   43MOL   O68438568   7.780   4.334   2.428 -0.2882 -0.1978 -0.2015
   43MOL   O68538569   8.014   4.267   2.497 -0.2618  0.1161 -0.5219
   43MOL   C68638570   7.968   4.315   2.249  0.1037  0.2925  0.1524
   43MOL   C68738571   8.085   4.241   2.222 -0.2704  0.0777 -0.1823
   43MOL   C68838572   8.132   4.205   2.089 -0.2401 -0.0293 -0.3221
   43MOL   C68938573   8.070   4.261   1.975  0.5908 -0.0895  0.2707
   43MOL   C69038574   7.954   4.334   1.999 -0.9443  0.3331 -0.4118
   43MOL   C69138575   7.907   4.365   2.132  1.0710  0.5433  0.1623
   43MOL   O69238576   8.120   4.240   1.847 -0.7948  0.3691 -0.3358
   43MOL   C69338577   8.092   4.321   1.734  0.2991 -0.0422 -0.3165
   43MOL   C69438578   8.004   4.266   1.639  0.7586  0.4447 -0.4177
   43MOL   C69538579   7.963   4.342   1.526  0.9530  0.7994 -0.1573
   43MOL   C69638580   8.021   4.468   1.498  0.0301  0.2920 -0.4631
   43MOL   C69738581   8.113   4.520   1.593  0.3479  0.5058 -0.0610
   43MOL   C69838582   8.152   4.447   1.710 -0.0402 -0.3727  0.7268
   43MOL   C69938583   7.980   4.543   1.374  0.5293  0.0373  0.4204
   43MOL   C70038584   8.079   4.585   1.281  1.1182 -0.0893 -0.1023
   43MOL   C70138585   8.040   4.678   1.180 -0.4306 -0.0579 -0.0396
   43MOL   C70238586   7.907   4.721   1.163  0.6187  0.4564  0.6072
   43MOL   C70338587   7.812   4.663   1.242 -0.2649  1.1795 -0.7017
   43MOL   C70438588   7.845   4.577   1.348  0.3511 -0.4608 -0.1933
   43MOL   O70538589   7.872   4.822   1.077  0.5602  0.8611 -0.1212
   43MOL   H70638590   7.850   4.843   2.406  0.0340  0.7836  1.3750
   43MOL   H70738591   7.774   4.604   2.414 -0.2567  1.2042 -1.1951
   43MOL   H70838592   8.176   4.466   2.461  0.7854  0.2963 -0.1411
   43MOL   H70938593   8.255   4.695   2.447  0.9394 -0.5339 -0.8648
   43MOL   H71038594   8.145   4.201   2.302  0.4322  0.5410 -0.4688
   43MOL   H71138595   8.211   4.134   2.075 -0.5292 -0.5876  0.7821
   43MOL   H71238596   7.891   4.379   1.924 -1.6480 -1.5286 -0.9456
   43MOL   H71338597   7.818   4.426   2.142  1.0683  0.4345  0.8426
   43MOL   H71438598   7.960   4.169   1.656  3.4754 -0.5740  1.2087
   43MOL   H71538599   7.895   4.292   1.459  0.5516  0.5653  0.4186
   43MOL   H71638600   8.160   4.615   1.574 -2.0705  2.2614  2.2847
   43MOL   H71738601   8.227   4.485   1.778  2.2017 -1.1034 -1.2539
   43MOL   H71838602   8.180   4.546   1.287  2.3440  2.7336 -1.4759
   43MOL   H71938603   8.108   4.721   1.108 -1.0624 -1.9715 -1.8350
   43MOL   H72038604   7.710   4.698   1.231 -1.4907 -1.6818  0.8872
   43MOL   H72138605   7.774   4.524   1.410  1.5257 -1.5956  0.2163
   43MOL   C72238606   7.816   4.795   0.955  0.3353  1.2319 -0.0100
   43MOL   C72338607   7.909   4.760   0.853  0.8199 -0.2356  0.1605
   43MOL   C72438608   7.858   4.728   0.730 -0.0244 -0.5909 -0.4462
   43MOL   C72538609   7.726   4.745   0.697 -0.1957  0.2838 -0.4022
   43MOL   C72638610   7.633   4.780   0.797 -0.5471 -0.1012 -0.3655
   43MOL   C72738611   7.679   4.812   0.928  0.2748  0.5807 -0.5326
   43MOL   S72838612   7.676   4.693   0.533 -0.3377  0.1220 -0.1504
   43MOL   O72938613   7.667   4.543   0.528 -0.2579 -0.1404  0.9502
   43MOL   O73038614   7.764   4.761   0.438  0.0768 -0.0109 -0.2388
   43MOL   C73138615   7.512   4.760   0.505  0.5177 -0.1573  0.9238
   43MOL   C73238616   7.492   4.885   0.448  0.6980  0.3677 -0.2442
   43MOL   C73338617   7.365   4.950   0.454  0.2352  0.0931 -0.6442
   43MOL   C73438618   7.262   4.885   0.526 -0.2361 -0.0745  0.3562
   43MOL   C73538619   7.276   4.751   0.574 -0.3616 -0.4637  0.4628
   43MOL   C73638620   7.399   4.684   0.541 -0.1062 -0.3513 -0.5534
   43MOL   O73738621   7.150   4.961   0.542 -0.3684 -0.1400 -0.6229
   43MOL   C73838622   7.037   4.926   0.483 -1.0773  0.0847 -0.0931
   43MOL   C73938623   7.037   4.848   0.363 -0.2297 -0.0805 -0.5368
   43MOL   C74038624   6.912   4.825   0.301  0.0792 -0.3355 -0.4629
   43MOL   C74138625   6.790   4.879   0.353  0.4340 -0.1602 -0.9541
   43MOL   C74238626   6.794   4.960   0.470 -0.1425 -0.4077  0.3596
   43MOL   C74338627   6.918   4.981   0.537  0.3518  0.4529 -0.2224
   43MOL   C74438628   6.662   4.877   0.285 -0.1667  0.8989  0.8979
   43MOL   C74538629   6.650   4.882   0.146 -0.4426 -1.0840  0.6778
   43MOL   C74638630   6.523   4.890   0.082  0.1647  0.7156  0.2594
   43MOL   C74738631   6.411   4.906   0.159 -0.1079  0.8503 -0.8939
   43MOL   C74838632   6.417   4.881   0.296 -1.1173 -0.0034  0.1756
   43MOL   C74938633   6.541   4.874   0.358  0.0751  0.2560  0.3950
   43MOL   O75038634   6.292   4.937   0.107  0.3257 -0.3649  0.1654
   43MOL   H75138635   8.008   4.727   0.882 -0.0543 -2.1444  1.0182
   43MOL   H75238636   7.930   4.679   0.665  1.8220  0.7925  0.4889
   43MOL   H75338637   7.526   4.769   0.785 -0.3484 -1.1631 -1.2202
   43MOL   H75438638   7.607   4.847   1.001  1.5354  0.2935  0.8623
   43MOL   H75538639   7.584   4.929   0.412  2.3229 -0.2444  2.9478
   43MOL   H75638640   7.355   5.051   0.419  0.1077 -0.0575 -1.0449
   43MOL   H75738641   7.189   4.702   0.615 -1.7793  0.7963 -0.9614
   43MOL   H75838642   7.416   4.579   0.562 -1.5038 -1.1399 -3.1191
   43MOL   H75938643   7.127   4.811   0.315 -0.1345 -0.0361 -0.3928
   43MOL   H76038644   6.897   4.765   0.212 -0.3048 -2.2692  0.8766
   43MOL   H76138645   6.709   5.011   0.512 -0.8972  0.5992 -2.2482
   43MOL   H76238646   6.922   5.036   0.630 -0.0731  0.5551 -0.2647
   43MOL   H76338647   6.737   4.865   0.085 -0.0944  1.3989  0.4637
   43MOL   H76438648   6.514   4.896   8.340 -0.2346 -1.9958  0.1088
   43MOL   H76538649   6.326   4.880   0.355 -0.5680 -0.0670  1.0256
   43MOL   H76638650   6.539   4.864   0.466 -1.7428 -0.1265  0.3485
   43MOL   C76738651   6.237   5.054   0.140  0.1186 -0.9049 -0.8248
   43MOL   C76838652   6.099   5.054   0.161  0.1364  0.4622 -1.0372
   43MOL   C76938653   6.031   5.166   0.196  0.2024 -0.4681 -0.3476
   43MOL   C77038654   6.098   5.290   0.200 -0.4073  0.6171 -0.3213
   43MOL   C77138655   6.238   5.299   0.171  0.1964 -0.6766  1.1194
   43MOL   C77238656   6.310   5.178   0.141  0.3648 -0.3943  0.1944
   43MOL   S77338657   5.995   5.428   0.255 -0.0746 -0.3061 -0.2718
   43MOL   O77438658   5.973   5.411   0.398 -1.2550 -0.3983  0.0176
   43MOL   O77538659   5.885   5.438   0.164 -0.4429 -0.5879 -0.0809
   43MOL   C77638660   6.109   5.570   0.235  0.2011  0.3658  0.0230
   43MOL   C77738661   6.146   5.619   0.111  0.5168 -0.5852  0.2249
   43MOL   C77838662   6.242   5.720   0.106  0.0790 -1.2524 -0.2583
   43MOL   C77938663   6.279   5.794   0.219  0.8338 -0.9636 -0.7264
   43MOL   C78038664   6.241   5.747   0.344 -0.2309 -1.0912 -0.6174
   43MOL   C78138665   6.155   5.632   0.353 -0.1576  0.4540  0.8241
   43MOL   O78238666   6.343   5.914   0.215 -0.5888  0.2630 -0.0310
   43MOL   C78338667   6.476   5.920   0.181  0.5521  0.0957  0.2451
   43MOL   C78438668   6.530   6.027   0.112  0.3871 -0.2955  0.6859
   43MOL   C78538669   6.665   6.049   0.091 -0.3870 -0.4085  0.4568
   43MOL   C78638670   6.757   5.964   0.149 -0.6797  0.5637 -0.0427
   43MOL   C78738671   6.705   5.849   0.214  0.4889  0.0027 -0.0788
   43MOL   C78838672   6.568   5.824   0.233  0.9310 -0.9854  0.5654
   43MOL   C78938673   6.899   5.997   0.158 -0.3509 -0.3177  0.2187
   43MOL   C79038674   6.990   5.902   0.109 -0.3346  0.5821  0.1911
   43MOL   C79138675   7.128   5.921   0.120  0.9709  0.2028  0.5245
   43MOL   C79238676   7.175   6.034   0.191 -0.4023  0.2279  0.9304
   43MOL   C79338677   7.077   6.131   0.235 -0.8624  0.8920 -0.9525
   43MOL   C79438678   6.945   6.117   0.218 -0.5304  0.5324  0.6156
   43MOL   O79538679   7.312   6.060   0.205  0.2926 -0.7347 -0.3090
   43MOL   H79638680   6.042   4.963   0.154 -1.5715  1.4527 -0.3083
   43MOL   H79738681   5.928   5.161   0.230 -0.9428 -0.6986 -3.6516
   43MOL   H79838682   6.288   5.395   0.173  0.0967 -0.5225 -1.8782
   43MOL   H79938683   6.413   5.184   0.109 -0.6729 -2.3868 -3.8615
   43MOL   H80038684   6.112   5.571   0.021  0.6714  0.1081 -0.2022
   43MOL   H80138685   6.267   5.768   0.012 -1.6800 -1.3180 -0.7628
   43MOL   H80238686   6.260   5.799   0.437  0.9673 -1.0080 -0.9040
   43MOL   H80338687   6.129   5.611   0.456  0.9621  2.1552  1.4785
   43MOL   H80438688   6.459   6.092   0.062 -1.1654 -3.4470 -1.4047
   43MOL   H80538689   6.693   6.132   0.028  2.4976 -1.2212  0.6133
   43MOL   H80638690   6.772   5.788   0.273 -0.5573 -1.8006 -0.6992
   43MOL   H80738691   6.534   5.748   0.302  0.8909  0.2714  1.9771
   43MOL   H80838692   6.952   5.815   0.056 -0.7352  1.2896 -0.7067
   43MOL   H80938693   7.192   5.864   0.055  1.5217  1.8579 -0.4175
   43MOL   H81038694   7.116   6.211   0.297 -0.6253 -0.5301  0.7691
   43MOL   H81138695   6.870   6.188   0.248  0.7861  1.8322  0.8750
   43MOL   C81238696   7.353   6.081   0.336  0.6978  0.6637  0.7564
   43MOL   C81338697   7.447   6.177   0.345  0.1862 -0.6139 -0.1291
   43MOL   C81438698   7.518   6.197   0.463  0.2946  0.6174 -0.6307
   43MOL   C81538699   7.481   6.124   0.577  0.2362 -0.1424 -0.5465
   43MOL   C81638700   7.380   6.026   0.565 -0.6610  0.3862  0.6788
   43MOL   C81738701   7.319   5.999   0.443  0.1323 -0.3484  1.4186
   43MOL   S81838702   7.566   6.147   0.730  0.3471  0.4783 -0.4432
   43MOL   O81938703   7.709   6.134   0.697  0.2738  0.6160 -0.1873
   43MOL   O82038704   7.500   6.057   0.827  0.0818  0.7762  0.3502
   43MOL   C82138705   7.532   6.320   0.774 -0.0118  0.1735  0.6647
   43MOL   C82238706   7.627   6.398   0.842  0.8377  0.3341 -0.1139
   43MOL   C82338707   7.610   6.533   0.873  0.1087 -0.4903  0.4957
   43MOL   C82438708   7.491   6.598   0.835  0.1826  0.0109  0.5021
   43MOL   C82538709   7.398   6.525   0.761  0.1082 -0.1570 -0.1378
   43MOL   C82638710   7.413   6.386   0.733 -0.3304 -0.9385  0.5860
   43MOL   O82738711   7.482   6.731   0.869  0.2925  0.3244 -0.1363
   43MOL   C82838712   7.580   6.819   0.837 -0.4580 -0.5113  0.0596
   43MOL   C82938713   7.581   6.866   0.705 -0.8505  0.0964  0.4004
   43MOL   C83038714   7.669   6.976   0.673 -0.1790  0.0151  0.4876
   43MOL   C83138715   7.753   7.023   0.775 -0.3013 -0.3840 -1.3136
   43MOL   C83238716   7.743   6.975   0.907  0.2190  0.1219 -0.4591
   43MOL   C83338717   7.657   6.871   0.939  0.0333  0.3538 -0.0212
   43MOL   C83438718   7.843   7.143   0.752  0.0942  0.2506 -0.4001
   43MOL   C83538719   7.838   7.243   0.849  0.6157  0.7783 -0.3034
   43MOL   C83638720   7.883   7.371   0.825 -0.8383  0.1583 -0.7325
   43MOL   C83738721   7.943   7.398   0.699  0.4164  0.5862 -0.4213
   43MOL   C83838722   7.956   7.296   0.600  0.8110  0.2061 -0.2576
   43MOL   C83938723   7.911   7.165   0.633  0.2046  0.1411  0.5039
   43MOL   O84038724   7.976   7.531   0.682  0.0381  0.6305  0.2141
   43MOL   H84138725   7.479   6.233   0.259 -0.5052 -0.8948 -0.5687
   43MOL   H84238726   7.600   6.268   0.467 -0.9977  2.0614  2.4258
   43MOL   H84338727   7.356   5.972   0.655 -1.2430 -0.0602  0.2574
   43MOL   H84438728   7.240   5.926   0.437 -1.3426  1.3195 -0.5810
   43MOL   H84538729   7.716   6.344   0.871 -0.8859 -3.2118 -1.2022
   43MOL   H84638730   7.691   6.579   0.928 -0.7370  1.5379  0.0904
   43MOL   H84738731   7.316   6.582   0.720  0.0996  0.1017  0.2323
   43MOL   H84838732   7.336   6.338   0.675  1.0636 -0.2613 -1.8967
   43MOL   H84938733   7.525   6.817   0.627 -0.2622  0.4038 -0.2193
   43MOL   H85038734   7.681   7.012   0.572 -0.7999 -2.3446 -0.4516
   43MOL   H85138735   7.805   7.018   0.985 -0.8969  2.3016 -0.7337
   43MOL   H85238736   7.662   6.834   1.040 -1.1314  1.5988  0.4949
   43MOL   H85338737   7.779   7.225   0.937  1.8306 -0.0263  0.3730
   43MOL   H85438738   7.859   7.456   0.888  0.9198  0.6249 -0.6543
   43MOL   H85538739   7.996   7.323   0.503 -0.8356  2.2015 -0.4130
   43MOL   H85638740   7.904   7.089   0.556 -2.3211  0.0029  0.8052
   43MOL   C85738741   7.929   7.602   0.576 -0.1447  0.4621 -0.4406
   43MOL   C85838742   7.792   7.636   0.577  0.0225  0.4756 -0.2908
   43MOL   C85938743   7.739   7.691   0.459  0.3816 -0.6057 -0.3331
   43MOL   C86038744   7.827   7.735   0.355  0.1184  0.0435  0.1950
   43MOL   C86138745   7.962   7.696   0.355 -0.1001 -0.2383 -0.5866
   43MOL   C86238746   8.015   7.633   0.471  0.5308  0.6482 -0.2283
   43MOL   S86338747   7.745   7.811   0.208  0.0359  0.2005 -0.0959
   43MOL   O86438748   7.648   7.916   0.260 -0.3054 -0.2512 -0.1284
   43MOL   O86538749   7.682   7.695   0.142  0.3803 -0.5159  0.1337
   43MOL   C86638750   7.867   7.889   0.095  0.6113 -0.0674 -0.1149
   43MOL   C86738751   7.892   8.031   0.101 -0.2634  0.5442  0.7939
   43MOL   C86838752   8.002   8.092   0.028 -0.7940  0.5361 -1.0992
   43MOL   C86938753   8.083   8.009   8.307 -0.2984 -1.3038 -0.2884
   43MOL   C87038754   8.062   7.872   8.311  1.4412  0.8519  0.8927
   43MOL   C87138755   7.957   7.806   0.018 -0.3150 -0.2702  0.1426
   43MOL   O87238756   8.189   8.055   8.234  0.8410  0.4878 -0.4599
   43MOL   C87338757   8.283   8.131   8.296 -0.3706  0.2509  0.4867
   43MOL   C87438758   8.361   8.222   8.229 -0.9111  0.3979  0.2314
   43MOL   C87538759   0.107   8.280   8.299 -0.5885  1.0008 -0.0954
   43MOL   C87638760   0.137   8.250   0.065  0.0302 -0.4510 -0.2304
   43MOL   C87738761   0.052   8.168   0.136  0.0974  0.2519 -0.7038
   43MOL   C87838762   8.319   8.097   0.064 -0.4050  0.1336 -0.7239
   43MOL   C87938763   0.259   8.311   0.123  0.2481  0.1517  0.3356
   43MOL   C88038764   0.243   0.036   0.229 -0.1896  0.6286  0.4800
   43MOL   C88138765   0.345   0.118   0.278  0.3943 -0.3917 -0.6640
   43MOL   C88238766   0.472   0.105   0.221 -0.5711  0.1216  0.2374
   43MOL   C88338767   0.493   0.001   0.123  0.6738  0.8575 -0.9186
   43MOL   C88438768   0.386   8.296   0.063 -0.3652  0.7774  0.2451
   43MOL   O88538769   0.580   0.175   0.264 -0.4635 -0.6671 -0.6375
   43MOL   H88638770   7.735   7.606   0.663 -0.0052 -0.0009 -0.4738
   43MOL   H88738771   7.634   7.706   0.441  0.1121 -1.4998  0.4488
   43MOL   H88838772   8.019   7.735   0.272 -0.8588  0.1194 -0.9421
   43MOL   H88938773   8.118   7.603   0.480  0.2837 -0.1232 -0.0044
   43MOL   H89038774   7.831   8.095   0.164  0.9808  3.7399 -1.1037
   43MOL   H89138775   8.012   8.198   0.041 -0.2296  0.2608  0.8602
   43MOL   H89238776   8.116   7.803   8.248  0.8508  0.9607  0.2632
   43MOL   H89338777   7.943   7.699   0.027  0.9155 -0.3375  1.4806
   43MOL   H89438778   8.343   8.241   8.124 -1.2534  2.4817  0.6434
   43MOL   H89538779   0.177   8.349   8.255  2.3308 -1.7368  0.1415
   43MOL   H89638780   0.072   8.150   0.241  1.4669  1.0149 -0.8277
   43MOL   H89738781   8.267   8.017   0.115 -0.6767  1.5126  1.2027
   43MOL   H89838782   0.142   0.043   0.266  0.5825 -2.4960  3.4427
   43MOL   H89938783   0.328   0.185   0.361  0.8446  0.8295 -1.5361
   43MOL   H90038784   0.591   8.354   0.080  0.3157 -1.5705 -1.0769
   43MOL   H90138785   0.397   8.226   8.348  0.0907  0.1565  0.8375
   43MOL   H90238786   0.660   0.148   0.222  1.3620 -0.0720  2.3413
   44MOL     C138787   3.424   0.085   5.512 -0.3692 -0.8076  0.2249
   44MOL     C238788   3.288   0.059   5.493  0.2857  0.2353  0.7618
   44MOL     C338789   3.194   0.149   5.549 -0.0724 -0.7166 -0.6288
   44MOL     C438790   3.237   0.272   5.606 -0.3708  0.3956 -0.6081
   44MOL     C538791   3.378   0.298   5.616  0.1307  0.2526 -0.3253
   44MOL     C638792   3.468   0.203   5.577 -0.1395  0.2964 -0.4478
   44MOL     S738793   3.115   0.398   5.664  0.4166  0.2288  0.0692
   44MOL     O838794   3.189   0.486   5.757  0.3861 -0.0403 -0.0495
   44MOL     O938795   2.995   0.325   5.702 -0.4450  0.3547 -0.8527
   44MOL    C1038796   3.077   0.487   5.509  0.0053  0.7917 -0.2480
   44MOL    C1138797   3.123   0.620   5.488  0.8998 -0.4528 -0.0003
   44MOL    C1238798   3.109   0.672   5.356 -0.5020 -0.6405 -0.3714
   44MOL    C1338799   3.044   0.610   5.257  0.0123 -0.2011  0.2121
   44MOL    C1438800   2.992   0.481   5.279  0.8098  0.7030  0.6539
   44MOL    C1538801   3.010   0.412   5.404 -0.8910 -0.0528  0.1872
   44MOL    O1638802   3.040   0.675   5.135 -0.0929 -0.5874  0.9588
   44MOL    C1738803   2.956   0.627   5.034  0.1971 -0.4744  0.2164
   44MOL    C1838804   2.819   0.613   5.061  0.5347  0.7972  0.5178
   44MOL    C1938805   2.740   0.550   4.965  0.0206 -0.1082  0.4223
   44MOL    C2038806   2.784   0.505   4.837  0.4293  1.1117 -0.2114
   44MOL    C2138807   2.926   0.510   4.817  1.0317 -1.1304 -0.2312
   44MOL    C2238808   3.008   0.567   4.918  0.4254  0.3243  0.1467
   44MOL    C2338809   2.702   0.431   4.744  0.6999 -0.1046 -0.4055
   44MOL    C2438810   2.586   0.484   4.681 -0.4557  0.4080 -0.6261
   44MOL    C2538811   2.534   0.421   4.568  0.0308  0.7336  0.3693
   44MOL    C2638812   2.572   0.291   4.536 -0.5669 -0.1612 -0.7815
   44MOL    C2738813   2.682   0.237   4.604  0.3000  0.1691  0.1935
   44MOL    C2838814   2.743   0.306   4.707 -0.6873 -0.7438 -0.2413
   44MOL    O2938815   2.502   0.220   4.449 -0.1893 -0.7572 -0.4987
   44MOL    H3038816   3.260   8.328   5.455 -0.4577 -1.7414  5.9800
   44MOL    H3138817   3.089   0.127   5.536  0.0901 -1.4176 -0.7955
   44MOL    H3238818   3.400   0.389   5.669 -3.0871  0.6306  0.4221
   44MOL    H3338819   3.573   0.220   5.593  0.1047 -2.1284  0.7466
   44MOL    H3438820   3.170   0.675   5.568 -2.1418  0.8983  0.9255
   44MOL    H3538821   3.155   0.769   5.340  0.3547 -0.5575  2.3454
   44MOL    H3638822   2.943   0.424   5.201 -0.8060  0.0245  2.1306
   44MOL    H3738823   2.975   0.312   5.425 -2.0922  0.5902  1.2617
   44MOL    H3838824   2.768   0.653   5.147 -2.1153 -0.0853 -0.5955
   44MOL    H3938825   2.637   0.530   4.990 -0.2661  0.2403 -0.4769
   44MOL    H4038826   2.970   0.455   4.735  2.2309  0.2248 -0.5352
   44MOL    H4138827   3.111   0.574   4.887  0.1722  0.0245 -0.7607
   44MOL    H4238828   2.556   0.582   4.715 -0.5718 -0.1403  0.8934
   44MOL    H4338829   2.452   0.471   4.519 -0.3963 -0.2780  0.0445
   44MOL    H4438830   2.709   0.134   4.583  0.9217  1.0469 -3.5679
   44MOL    H4538831   2.822   0.260   4.765  0.0690  1.2841  0.3804
   44MOL    H4638832   3.496   0.011   5.479 -0.2333  0.5457 -2.6919
   44MOL    C4738833   2.382   0.169   4.486  0.5255  0.2138  0.3650
   44MOL    C4838834   2.299   0.127   4.378  0.0899 -0.3935  0.5477
   44MOL    C4938835   2.168   0.089   4.412  0.0471 -0.5350 -0.1996
   44MOL    C5038836   2.112   0.104   4.541 -0.8049 -0.2192 -1.0787
   44MOL    C5138837   2.200   0.141   4.645  0.9352 -0.6998 -0.2427
   44MOL    C5238838   2.330   0.170   4.619 -0.7504 -0.2541  0.0189
   44MOL    S5338839   1.935   0.085   4.569  0.0021 -0.0814  0.4208
   44MOL    O5438840   1.895   0.195   4.655 -0.3316 -0.1091 -0.0701
   44MOL    O5538841   1.913   8.308   4.608  0.3654 -0.4667  0.3221
   44MOL    C5638842   1.851   0.111   4.407  0.3445 -0.5401  0.1076
   44MOL    C5738843   1.771   0.230   4.384  0.1787  0.2365 -0.1829
   44MOL    C5838844   1.699   0.245   4.261 -1.6988 -0.4449  0.5044
   44MOL    C5938845   1.713   0.149   4.156  0.1194  0.3610 -0.4057
   44MOL    C6038846   1.794   0.037   4.183  0.7471  0.1730  0.0714
   44MOL    C6138847   1.863   0.013   4.305  0.7185 -0.6621  0.4128
   44MOL    O6238848   1.637   0.165   4.044 -0.3076 -0.6503  0.3997
   44MOL    C6338849   1.598   0.059   3.968 -0.5282  0.1333  0.1137
   44MOL    C6438850   1.531   8.325   4.040 -0.0522  0.0634 -0.0276
   44MOL    C6538851   1.484   8.212   3.967  0.2620 -0.3947 -0.3847
   44MOL    C6638852   1.506   8.193   3.828 -0.6015  0.9564 -0.5097
   44MOL    C6738853   1.580   8.289   3.760  0.3693 -0.2356 -0.4505
   44MOL    C6838854   1.624   0.041   3.828  0.0547  0.5376  0.1815
   44MOL    C6938855   1.444   8.073   3.764 -1.0749 -0.3106 -0.0696
   44MOL    C7038856   1.439   7.951   3.839  0.2711 -0.0838 -0.3083
   44MOL    C7138857   1.393   7.833   3.784 -0.0086 -0.1430  0.2473
   44MOL    C7238858   1.374   7.820   3.641  0.8075 -0.1493  0.1876
   44MOL    C7338859   1.380   7.946   3.563 -0.3175  0.0033 -0.4028
   44MOL    C7438860   1.418   8.064   3.622  0.5206 -0.5601 -1.0639
   44MOL    O7538861   1.345   7.697   3.589  0.1864  0.7547  0.2393
   44MOL    H7638862   2.330   0.128   4.274  2.0545  0.8099  1.1030
   44MOL    H7738863   2.097   0.058   4.336  0.0920 -2.4085  0.5031
   44MOL    H7838864   2.155   0.145   4.743  0.4615 -3.4355 -0.3104
   44MOL    H7938865   2.387   0.194   4.707 -2.5086 -0.8859  1.3399
   44MOL    H8038866   1.753   0.296   4.468  0.0376 -0.3292  0.2319
   44MOL    H8138867   1.629   0.326   4.250 -1.0848  0.1403  0.9262
   44MOL    H8238868   1.792   8.327   4.106 -0.5255 -0.3509  0.5929
   44MOL    H8338869   1.928   8.295   4.325  1.4963  0.1420  1.3065
   44MOL    H8438870   1.518   8.325   4.147 -1.8661  0.9077 -0.2338
   44MOL    H8538871   1.426   8.139   4.022 -1.6449 -0.1315 -1.9817
   44MOL    H8638872   1.597   8.282   3.654 -0.1296  0.9771 -0.6203
   44MOL    H8738873   1.688   0.112   3.778 -0.7305  0.2472 -1.2621
   44MOL    H8838874   1.465   7.942   3.943  1.1980 -1.5209 -0.6491
   44MOL    H8938875   1.391   7.744   3.845 -2.8024  0.9254  1.8245
   44MOL    H9038876   1.351   7.940   3.459  0.2405 -0.3376 -0.5399
   44MOL    H9138877   1.416   8.147   3.553  0.5932  0.4254  0.1090
   44MOL    C9238878   1.287   7.604   3.675  0.2732  0.8625  0.1968
   44MOL    C9338879   1.367   7.504   3.732  0.5007 -0.8364  1.0038
   44MOL    C9438880   1.310   7.410   3.810  0.2122  0.3092 -0.1003
   44MOL    C9538881   1.174   7.396   3.822  0.0741 -0.3886  0.7672
   44MOL    C9638882   1.086   7.503   3.771 -0.0582  0.1446  0.7040
   44MOL    C9738883   1.148   7.603   3.692 -0.0301  0.1712  0.6137
   44MOL    S9838884   1.101   7.267   3.920  0.0671 -0.0624  0.2597
   44MOL    O9938885   1.008   7.321   4.015 -0.2852  0.8378  0.7816
   44MOL   O10038886   1.214   7.185   3.968  0.0380  0.1574  0.5188
   44MOL   C10138887   1.009   7.164   3.808 -0.3252  0.0290 -0.6517
   44MOL   C10238888   0.887   7.208   3.750  0.4278  0.1479 -0.2701
   44MOL   C10338889   0.812   7.118   3.675 -0.0505 -0.5547  0.0815
   44MOL   C10438890   0.851   6.986   3.650 -0.1490 -0.3073  0.5686
   44MOL   C10538891   0.976   6.943   3.704  0.1742  0.0008 -0.5347
   44MOL   C10638892   1.052   7.030   3.783  0.1044  0.1311  0.5409
   44MOL   O10738893   0.770   6.903   3.579 -0.0599  0.0713 -0.4256
   44MOL   C10838894   0.691   6.957   3.484 -0.1081  0.2476 -0.4259
   44MOL   C10938895   0.735   7.034   3.370 -0.2034  0.2141  0.0150
   44MOL   C11038896   0.649   7.096   3.285 -0.3272  0.6361 -0.3072
   44MOL   C11138897   0.512   7.085   3.306 -0.1603  0.1255 -0.4821
   44MOL   C11238898   0.463   7.019   3.415 -0.6600  0.6201  0.5358
   44MOL   C11338899   0.550   6.955   3.506  0.1175 -0.3584 -0.1494
   44MOL   C11438900   0.417   7.151   3.219 -0.0597 -0.7492 -0.2096
   44MOL   C11538901   0.326   7.081   3.138  1.1348  0.1010  0.3351
   44MOL   C11638902   0.233   7.143   3.057 -0.4024 -0.4816  1.2481
   44MOL   C11738903   0.228   7.280   3.053 -0.0843  0.0676 -0.0285
   44MOL   C11838904   0.312   7.357   3.133  0.0207  0.2260  0.4662
   44MOL   C11938905   0.414   7.291   3.211 -0.0276 -0.7964  0.5215
   44MOL   O12038906   0.147   7.339   2.961 -0.0980 -0.1851 -0.4238
   44MOL   H12138907   1.473   7.506   3.712  0.0879 -1.3466 -1.3863
   44MOL   H12238908   1.362   7.326   3.854  1.3453  0.8866 -0.3116
   44MOL   H12338909   0.979   7.494   3.788 -0.0848 -1.5133 -0.2313
   44MOL   H12438910   1.078   7.674   3.651  2.3048  0.2650 -3.5016
   44MOL   H12538911   0.847   7.305   3.778  0.2053  0.5172 -1.8174
   44MOL   H12638912   0.716   7.157   3.643 -0.2846  1.0246  2.5196
   44MOL   H12738913   1.003   6.841   3.679 -2.1207 -1.0879  1.2174
   44MOL   H12838914   1.144   6.998   3.831  0.7458 -0.6966 -1.2068
   44MOL   H12938915   0.841   7.046   3.353 -0.1082  1.0630  1.0962
   44MOL   H13038916   0.688   7.152   3.201 -0.0521  1.7114  0.5221
   44MOL   H13138917   0.355   7.025   3.421 -1.0377 -4.0957  0.1789
   44MOL   H13238918   0.503   6.898   3.584 -2.0414  2.0872  0.3775
   44MOL   H13338919   0.330   6.973   3.138  0.3333  0.0643 -0.1531
   44MOL   H13438920   0.178   7.091   2.980 -1.0696  2.6634 -0.4936
   44MOL   H13538921   0.297   7.463   3.125  0.4552  0.2578  0.0920
   44MOL   H13638922   0.484   7.351   3.266  0.4413  1.9805 -2.9088
   44MOL   C13738923   0.178   7.334   2.831  0.6312  0.5877 -0.3700
   44MOL   C13838924   0.075   7.330   2.730  0.0149 -0.2349  0.2488
   44MOL   C13938925   0.111   7.316   2.599  0.2817 -0.1672 -0.5104
   44MOL   C14038926   0.247   7.327   2.557  0.2648 -0.2805  0.5382
   44MOL   C14138927   0.349   7.323   2.655 -0.0620 -0.1280 -0.3555
   44MOL   C14238928   0.312   7.320   2.792  0.0198  0.5731 -0.0143
   44MOL   S14338929   0.285   7.297   2.382 -0.0395  0.1608 -0.0330
   44MOL   O14438930   0.173   7.362   2.310 -0.4300 -0.2584  0.0908
   44MOL   O14538931   0.319   7.154   2.363 -0.6975  0.3293  0.3859
   44MOL   C14638932   0.433   7.384   2.352 -0.5676  0.4049 -0.3610
   44MOL   C14738933   0.459   7.514   2.405 -0.1190  0.0145 -0.0596
   44MOL   C14838934   0.587   7.575   2.378 -0.2308 -0.0331 -0.0085
   44MOL   C14938935   0.680   7.517   2.294  0.6844  1.0128 -0.3236
   44MOL   C15038936   0.657   7.385   2.250 -0.4404 -0.1783 -0.0060
   44MOL   C15138937   0.539   7.319   2.279  0.6104  0.1523  0.2554
   44MOL   O15238938   0.796   7.573   2.261 -0.5292  0.4053 -0.6698
   44MOL   C15338939   0.801   7.704   2.217  0.5500 -0.2669  0.3428
   44MOL   C15438940   0.877   7.797   2.291 -0.3017  0.5888  0.1509
   44MOL   C15538941   0.899   7.925   2.241 -0.2263  0.1920  0.4784
   44MOL   C15638942   0.849   7.968   2.113  0.7767  0.9391 -0.1187
   44MOL   C15738943   0.765   7.877   2.049  0.1028  1.0534  0.2617
   44MOL   C15838944   0.728   7.746   2.101 -0.2257  0.1909  0.1754
   44MOL   C15938945   0.886   8.094   2.050  0.3925 -0.3773  0.0952
   44MOL   C16038946   0.904   8.109   1.906 -0.1606 -0.0916 -0.0568
   44MOL   C16138947   0.919   8.229   1.841 -0.3501 -0.2375  0.6188
   44MOL   C16238948   0.929   8.346   1.921 -0.7912  0.5749  0.4370
   44MOL   C16338949   0.922   8.343   2.055 -0.5344  0.2281 -0.6718
   44MOL   C16438950   0.891   8.223   2.121 -0.1801 -0.0739  0.2214
   44MOL   O16538951   0.946   0.098   1.854  0.1773 -0.5197  0.8005
   44MOL   H16638952   8.339   7.335   2.765  0.0484 -0.6506  0.4083
   44MOL   H16738953   0.052   7.291   2.512 -0.8784  1.2553 -0.1536
   44MOL   H16838954   0.454   7.318   2.630 -0.8308  0.5878 -4.0794
   44MOL   H16938955   0.391   7.310   2.865  1.5426  2.6373 -1.3255
   44MOL   H17038956   0.388   7.562   2.472 -1.0744 -2.1124  0.4854
   44MOL   H17138957   0.602   7.669   2.429 -0.8518 -0.5245  1.0969
   44MOL   H17238958   0.734   7.342   2.188 -0.1302  1.6262 -0.9245
   44MOL   H17338959   0.514   7.226   2.231  1.5823 -0.1865  0.3986
   44MOL   H17438960   0.931   7.775   2.382 -2.0266  1.9560  1.5398
   44MOL   H17538961   0.961   8.000   2.288 -2.6348  2.2551  0.4710
   44MOL   H17638962   0.725   7.904   1.952  0.7324 -0.3532 -0.4136
   44MOL   H17738963   0.668   7.678   2.042 -1.1580  0.7232  0.5023
   44MOL   H17838964   0.906   8.021   1.843 -1.5697  0.4936 -0.9353
   44MOL   H17938965   0.914   8.222   1.733  4.4533  0.1655  0.2711
   44MOL   H18038966   0.912   0.067   2.114 -1.3731 -1.3567  1.7100
   44MOL   H18138967   0.870   8.227   2.227 -0.4805  0.8206  0.1369
   44MOL   C18238968   0.836   0.186   1.860 -0.3443  0.6429 -0.2718
   44MOL   C18338969   0.863   0.307   1.922  0.3812  0.0540  0.4441
   44MOL   C18438970   0.765   0.405   1.933 -0.0619  0.0810 -0.6715
   44MOL   C18538971   0.640   0.376   1.872 -0.2330 -0.0691  0.5586
   44MOL   C18638972   0.614   0.255   1.809 -0.7743 -0.9688  0.3968
   44MOL   C18738973   0.711   0.158   1.805  0.5605  0.2730  0.3915
   44MOL   S18838974   0.504   0.492   1.898 -0.2470  0.4865 -0.7781
   44MOL   O18938975   0.417   0.466   1.783  0.5099 -0.4998 -0.2682
   44MOL   O19038976   0.565   0.625   1.910 -0.4303 -0.7177  0.0224
   44MOL   C19138977   0.427   0.448   2.051  0.5324 -0.4645 -0.1750
   44MOL   C19238978   0.354   0.332   2.062  1.0321  0.3874 -0.6434
   44MOL   C19338979   0.293   0.294   2.186 -0.0850 -0.4793 -0.2696
   44MOL   C19438980   0.319   0.369   2.304 -0.1430 -0.7916  0.5073
   44MOL   C19538981   0.383   0.491   2.290  0.6581 -0.0078 -0.1898
   44MOL   C19638982   0.441   0.527   2.165 -0.4797  0.3009  0.0029
   44MOL   O19738983   0.269   0.333   2.428  0.3256 -0.9308 -0.2071
   44MOL   C19838984   0.158   0.392   2.483 -0.1907 -0.2638  0.1116
   44MOL   C19938985   0.081   0.489   2.411 -0.1517  0.0897 -0.3976
   44MOL   C20038986   8.331   0.542   2.476 -0.0004 -0.1774  0.3379
   44MOL   C20138987   8.299   0.514   2.607  0.6880 -0.6719 -0.0690
   44MOL   C20238988   0.011   0.422   2.673 -0.5452  0.2672 -0.2496
   44MOL   C20338989   0.119   0.355   2.608 -0.5881  0.0471 -0.1810
   44MOL   C20438990   8.181   0.575   2.674 -0.2698 -0.4250 -0.2810
   44MOL   C20538991   8.102   0.498   2.761 -0.5649  0.8399 -0.1461
   44MOL   C20638992   8.007   0.559   2.839 -0.3677  0.0152  0.1231
   44MOL   C20738993   7.983   0.697   2.838 -0.2614 -0.5955  0.6005
   44MOL   C20838994   8.064   0.777   2.758 -0.5626 -0.1179  0.0821
   44MOL   C20938995   8.154   0.716   2.665  0.5047  0.6729  0.3904
   44MOL   O21038996   7.882   0.756   2.920 -0.3386 -0.0503 -0.7635
   44MOL   H21138997   0.964   0.313   1.960 -0.3256 -2.6498  2.9268
   44MOL   H21238998   0.784   0.496   1.988 -1.0403  1.4845 -2.5853
   44MOL   H21338999   0.522   0.243   1.753 -0.5839  0.5557 -0.2807
   44MOL   H21439000   0.687   0.064   1.757 -1.7588  0.7727  0.5545
   44MOL   H21539001   0.329   0.266   1.980 -1.5315 -0.5677  0.8691
   44MOL   H21639002   0.230   0.207   2.198 -1.5850  0.4421 -1.3383
   44MOL   H21739003   0.402   0.549   2.379  1.4695  1.1041 -1.0732
   44MOL   H21839004   0.499   0.617   2.150 -0.1507  0.4621  2.1825
   44MOL   H21939005   0.101   0.524   2.311  0.2021  0.2912 -0.2599
   44MOL   H22039006   8.274   0.618   2.425  1.6863 -0.2641 -1.7566
   44MOL   H22139007   8.350   0.377   2.767  1.9714 -2.8057 -0.9009
   44MOL   H22239008   0.171   0.294   2.681 -0.4229 -0.9801 -1.1314
   44MOL   H22339009   8.115   0.391   2.767 -2.4887  0.5637 -0.3994
   44MOL   H22439010   7.939   0.492   2.891  0.0602  0.7985  1.7380
   44MOL   H22539011   8.060   0.885   2.753 -0.0132 -0.0602  0.8381
   44MOL   H22639012   8.216   0.786   2.612  0.7746  0.2149  0.0970
   44MOL   C22739013   7.753   0.703   2.908  0.4887 -0.3462 -0.6230
   44MOL   C22839014   7.668   0.692   3.021 -0.3690 -0.4623 -0.3079
   44MOL   C22939015   7.537   0.642   3.015  0.0408 -0.2294  0.2302
   44MOL   C23039016   7.491   0.609   2.888 -0.1340 -0.2334 -0.0890
   44MOL   C23139017   7.568   0.631   2.769  0.3702 -1.1220 -0.7132
   44MOL   C23239018   7.700   0.679   2.781  0.3760 -0.7720  0.4761
   44MOL   S23339019   7.322   0.565   2.866  1.1008 -0.1652 -0.3039
   44MOL   O23439020   7.264   0.542   3.001  0.0505 -0.2298 -0.4788
   44MOL   O23539021   7.328   0.454   2.767 -0.2217  0.3282  0.6446
   44MOL   C23639022   7.249   0.703   2.792  0.0746  0.6902  0.0870
   44MOL   C23739023   7.201   0.696   2.657 -0.3406  0.6562  0.6452
   44MOL   C23839024   7.123   0.801   2.604  0.4164 -0.4785 -0.4102
   44MOL   C23939025   7.114   0.923   2.672 -0.0926 -0.7658  0.5992
   44MOL   C24039026   7.173   0.935   2.796 -0.2124 -0.1517 -0.5187
   44MOL   C24139027   7.243   0.823   2.859  0.6589  0.1166  0.4874
   44MOL   O24239028   7.068   1.039   2.618  0.0421  0.1439 -1.2116
   44MOL   C24339029   7.077   1.046   2.483 -1.0975 -0.5538  0.1977
   44MOL   C24439030   6.957   1.023   2.415  0.7734 -0.4707  0.2099
   44MOL   C24539031   6.955   1.016   2.274  0.3787 -0.3817 -0.6202
   44MOL   C24639032   7.075   1.031   2.200 -0.2346  0.2069 -0.1441
   44MOL   C24739033   7.194   1.064   2.269  0.6629 -0.1373  0.4336
   44MOL   C24839034   7.197   1.070   2.409  0.0326 -0.1356  0.2521
   44MOL   C24939035   7.079   1.038   2.059 -0.4226 -0.1298 -0.3168
   44MOL   C25039036   7.003   0.948   1.980  0.5232 -0.0595  0.1220
   44MOL   C25139037   7.011   0.937   1.841 -0.6608 -0.7148  0.4954
   44MOL   C25239038   7.100   1.025   1.767 -0.5973  0.6857 -0.1781
   44MOL   C25339039   7.173   1.119   1.848 -0.2804 -0.1385 -0.8718
   44MOL   C25439040   7.157   1.133   1.987 -0.3843 -0.4711  0.6796
   44MOL   O25539041   7.113   1.003   1.631  0.3665 -0.8230 -0.6189
   44MOL   H25639042   7.698   0.720   3.120 -0.3783  0.9861 -0.7040
   44MOL   H25739043   7.478   0.632   3.105  0.3223  1.3510  0.6029
   44MOL   H25839044   7.524   0.619   2.671 -0.6322 -0.4820 -0.3494
   44MOL   H25939045   7.762   0.706   2.697 -1.1973  0.8681 -0.1844
   44MOL   H26039046   7.213   0.612   2.590 -0.1214  1.0558  0.1819
   44MOL   H26139047   7.079   0.792   2.506  1.2336  0.5830 -0.9004
   44MOL   H26239048   7.161   1.032   2.843  0.9956 -1.1768  1.9837
   44MOL   H26339049   7.290   0.842   2.955  1.6446 -1.2009  0.2903
   44MOL   H26439050   6.860   0.998   2.455  0.0260  2.3091  0.2038
   44MOL   H26539051   6.862   1.005   2.220  0.5680 -1.5630 -0.7267
   44MOL   H26639052   7.282   1.082   2.210 -1.2668 -1.0189 -2.8651
   44MOL   H26739053   7.285   1.098   2.464  1.8704  0.3070 -2.7719
   44MOL   H26839054   6.928   0.883   2.022  0.2423  0.7597  0.9017
   44MOL   H26939055   6.951   0.861   1.793 -0.7365 -0.2105 -0.2157
   44MOL   H27039056   7.247   1.184   1.805  0.5121 -0.7066 -0.3889
   44MOL   H27139057   7.212   1.209   2.041 -1.4307  0.4378  0.4768
   44MOL   C27239058   7.204   1.079   1.570  0.2967 -0.8686 -0.1103
   44MOL   C27339059   7.325   1.020   1.533  0.1155 -0.3796 -0.6270
   44MOL   C27439060   7.418   1.091   1.454  0.6765  0.4479  0.1739
   44MOL   C27539061   7.388   1.225   1.424 -0.1853 -0.4452  0.2422
   44MOL   C27639062   7.266   1.288   1.467 -0.2502 -0.7381  0.4519
   44MOL   C27739063   7.172   1.216   1.543 -0.7209  0.4320  0.7063
   44MOL   S27839064   7.495   1.316   1.307 -0.2334  0.4874  0.0675
   44MOL   O27939065   7.469   1.461   1.323 -0.4465  0.5075 -0.0538
   44MOL   O28039066   7.476   1.246   1.179  0.3496  0.3729 -0.0960
   44MOL   C28139067   7.656   1.284   1.368  0.2969  0.1875 -0.4024
   44MOL   C28239068   7.746   1.218   1.281  0.7551 -0.6633  0.0238
   44MOL   C28339069   7.877   1.208   1.322 -0.0636  0.6290 -0.5831
   44MOL   C28439070   7.924   1.260   1.449  0.3661  0.0809  0.4403
   44MOL   C28539071   7.830   1.329   1.526  0.5982 -0.0119  0.3762
   44MOL   C28639072   7.697   1.347   1.481  0.3245 -0.2271 -0.1149
   44MOL   O28739073   8.053   1.243   1.493  0.7952 -0.5229  0.0798
   44MOL   C28839074   8.100   1.297   1.611 -0.4520  0.0979 -0.1501
   44MOL   C28939075   8.127   1.435   1.633  0.1706 -0.0091 -0.1357
   44MOL   C29039076   8.139   1.479   1.767 -0.8012  0.1802  0.0815
   44MOL   C29139077   8.132   1.397   1.882 -0.6027 -0.4339 -0.3189
   44MOL   C29239078   8.118   1.257   1.854 -0.2794 -0.3867  0.8954
   44MOL   C29339079   8.106   1.207   1.719  1.1794 -0.7490 -0.0419
   44MOL   C29439080   8.112   1.457   2.015  0.5286  0.2935  0.2397
   44MOL   C29539081   8.181   1.577   2.043  0.2649 -0.4655  0.3874
   44MOL   C29639082   8.172   1.642   2.164  0.7821 -0.7514  0.2347
   44MOL   C29739083   8.087   1.595   2.259 -0.0371 -0.1969 -1.1491
   44MOL   C29839084   8.004   1.481   2.233  0.3280 -0.3582  0.0379
   44MOL   C29939085   8.025   1.409   2.117 -0.0676 -0.1424  0.1371
   44MOL   O30039086   8.072   1.662   2.380 -0.3540  0.4669 -0.5215
   44MOL   H30139087   7.347   0.916   1.551 -1.8359 -0.7262 -0.0864
   44MOL   H30239088   7.510   1.045   1.421  1.4840  0.3601  2.4495
   44MOL   H30339089   7.241   1.391   1.443 -0.8936 -0.8547  0.6000
   44MOL   H30439090   7.079   1.259   1.578 -0.9739 -0.2681  0.9084
   44MOL   H30539091   7.715   1.173   1.188  0.7524 -3.9804  1.5354
   44MOL   H30639092   7.950   1.155   1.263 -1.0572 -2.0403  0.5098
   44MOL   H30739093   7.844   1.366   1.626  2.1280  0.6355 -0.0541
   44MOL   H30839094   7.622   1.404   1.535 -1.5807  0.0855 -2.9719
   44MOL   H30939095   8.127   1.506   1.552  2.8944 -1.6997 -1.7090
   44MOL   H31039096   8.152   1.586   1.781 -1.0336  0.2480 -0.2218
   44MOL   H31139097   8.113   1.186   1.935 -0.9905 -0.5760  0.6917
   44MOL   H31239098   8.088   1.102   1.699  0.7715 -0.8295  0.7193
   44MOL   H31339099   8.262   1.607   1.979  0.5517 -4.4836 -1.2562
   44MOL   H31439100   8.225   1.735   2.179 -1.0446  0.9088 -3.1268
   44MOL   H31539101   7.933   1.435   2.301 -1.6921  0.8850 -1.1622
   44MOL   H31639102   7.961   1.325   2.091 -1.7341  1.2043 -0.1827
   44MOL   C31739103   8.165   1.657   2.474 -0.4403 -0.3156  0.1461
   44MOL   C31839104   8.265   1.761   2.488 -0.6595  0.6747  0.0403
   44MOL   C31939105   0.001   1.747   2.585 -0.2279  0.1597  0.6942
   44MOL   C32039106   0.006   1.633   2.664  0.7423  0.2532  0.9414
   44MOL   C32139107   8.279   1.532   2.644 -0.0489 -0.5830 -0.0761
   44MOL   C32239108   8.166   1.546   2.558 -0.8548 -0.0886  0.4709
   44MOL   S32339109   0.128   1.602   2.793 -0.4531  0.0742 -0.5661
   44MOL   O32439110   0.208   1.726   2.818  0.4811 -0.4726  0.2467
   44MOL   O32539111   0.208   1.482   2.746 -0.2742  0.5082  0.1149
   44MOL   C32639112   0.040   1.547   2.947  0.4565 -0.3686 -0.6547
   44MOL   C32739113   8.304   1.641   2.996  0.0183  0.0404 -0.0948
   44MOL   C32839114   8.234   1.601   3.111  0.1951  0.5590  0.0700
   44MOL   C32939115   8.258   1.477   3.173  0.6400  0.0679 -0.5702
   44MOL   C33039116   8.354   1.388   3.123 -0.3579 -0.3438  0.3989
   44MOL   C33139117   0.065   1.425   3.010  0.6525 -0.3504  0.6905
   44MOL   O33239118   8.199   1.444   3.287  0.2352  0.6937  0.7366
   44MOL   C33339119   8.081   1.379   3.281 -0.0545 -0.1823 -0.0971
   44MOL   C33439120   8.026   1.330   3.401 -0.2923  0.1894 -0.6476
   44MOL   C33539121   7.905   1.255   3.399 -0.3043  0.3314 -0.3494
   44MOL   C33639122   7.836   1.240   3.280 -0.4228 -0.4473 -0.4462
   44MOL   C33739123   7.887   1.292   3.161 -0.6498 -0.0334  0.6463
   44MOL   C33839124   8.009   1.361   3.159 -0.1609  0.3473 -0.3770
   44MOL   C33939125   7.717   1.155   3.268 -0.4815 -0.2704 -0.5144
   44MOL   C34039126   7.621   1.172   3.368 -0.6446  0.2956  0.4446
   44MOL   C34139127   7.493   1.109   3.357 -0.0355 -0.7030 -0.1985
   44MOL   C34239128   7.467   1.020   3.252 -0.3617 -0.2268 -0.2403
   44MOL   C34339129   7.563   1.002   3.156  0.5180 -0.2679 -0.0798
   44MOL   C34439130   7.687   1.071   3.156 -0.4177 -0.7093 -0.0784
   44MOL   O34539131   7.344   0.961   3.240 -0.5842  0.2418 -0.0245
   44MOL   H34639132   8.265   1.847   2.422 -0.3077 -0.9859 -2.1668
   44MOL   H34739133   0.077   1.822   2.600  2.0196 -2.1785  1.4059
   44MOL   H34839134   8.285   1.444   2.706  2.0309 -0.2774  0.1876
   44MOL   H34939135   8.084   1.476   2.552 -1.7173  0.8914  0.7406
   44MOL   H35039136   8.281   1.737   2.953  1.1214  0.7471  0.8539
   44MOL   H35139137   8.166   1.670   3.158  1.2592  0.2489  2.1192
   44MOL   H35239138   0.008   1.290   3.163  3.0350  1.0060  2.1927
   44MOL   H35339139   0.132   1.351   2.967 -0.3949 -0.4699 -0.7814
   44MOL   H35439140   8.074   1.346   3.497  1.5165 -1.2579 -1.2832
   44MOL   H35539141   7.872   1.214   3.493  0.3414  0.2327 -0.1610
   44MOL   H35639142   7.841   1.275   3.065 -0.1602  1.8621  0.0436
   44MOL   H35739143   8.056   1.384   3.064  0.8022  3.5243  0.7962
   44MOL   H35839144   7.611   1.236   3.455 -1.9134  0.0237  0.5125
   44MOL   H35939145   7.408   1.122   3.422 -0.6157  0.2055 -1.1289
   44MOL   H36039146   7.537   0.948   3.067 -1.4155 -1.8223  1.3607
   44MOL   H36139147   7.753   1.047   3.074  1.2159 -1.0388  1.3012
   44MOL   C36239148   7.326   0.831   3.287 -0.6417 -0.2231  0.6477
   44MOL   C36339149   7.398   0.771   3.394  0.1738 -0.0541  0.1433
   44MOL   C36439150   7.372   0.634   3.432 -0.2946 -0.2671  0.2848
   44MOL   C36539151   7.269   0.562   3.373  0.1260 -0.2544 -0.2866
   44MOL   C36639152   7.193   0.626   3.272  0.1303  0.5299 -0.4595
   44MOL   C36739153   7.224   0.758   3.227  0.1148 -0.6030  0.0727
   44MOL   S36839154   7.254   0.388   3.410  0.4962  0.0464 -0.0489
   44MOL   O36939155   7.185   0.377   3.539 -0.3698  0.4482  0.3765
   44MOL   O37039156   7.381   0.314   3.399  0.2664 -0.4569 -0.0325
   44MOL   C37139157   7.148   0.308   3.282  0.1224 -0.6032 -0.1323
   44MOL   C37239158   7.009   0.319   3.286 -0.2892 -0.4308 -0.0975
   44MOL   C37339159   6.927   0.263   3.175  0.3472 -0.0815 -1.3873
   44MOL   C37439160   6.997   0.202   3.068  0.2970  0.1114 -0.2205
   44MOL   C37539161   7.136   0.189   3.076  0.2957 -0.0071 -0.1610
   44MOL   C37639162   7.214   0.241   3.178 -0.4842 -0.0449 -0.4001
   44MOL   O37739163   6.921   0.168   2.958 -0.5316  0.0531 -0.4785
   44MOL   C37839164   6.916   0.034   2.912 -0.2710 -0.7983  0.7784
   44MOL   C37939165   6.898   0.023   2.771  0.2912  0.2689 -0.0380
   44MOL   C38039166   6.889   8.257   2.717 -0.5593  0.4193  0.0814
   44MOL   C38139167   6.912   8.147   2.801  0.7885 -0.5595  0.2428
   44MOL   C38239168   6.942   8.166   2.937  0.6529  0.0589  0.5188
   44MOL   C38339169   6.945   8.291   2.995  0.7648 -0.2843 -0.3372
   44MOL   C38439170   6.896   8.014   2.739  0.2010  0.6159 -0.5172
   44MOL   C38539171   6.776   7.943   2.758 -0.0157  0.6111  0.6032
   44MOL   C38639172   6.765   7.812   2.701 -0.1694  0.6368  1.0615
   44MOL   C38739173   6.856   7.760   2.611 -0.0561  0.5731 -0.6562
   44MOL   C38839174   6.982   7.827   2.598 -0.3342 -0.4672 -0.8402
   44MOL   C38939175   7.000   7.954   2.662  0.1246 -0.2120 -0.1694
   44MOL   O39039176   6.825   7.649   2.533  0.1283  0.4996 -0.2133
   44MOL   H39139177   7.461   0.837   3.451 -0.7417  1.3567 -0.4463
   44MOL   H39239178   7.426   0.592   3.516  1.0235  0.4460 -0.1793
   44MOL   H39339179   7.112   0.577   3.220 -0.6025  2.5239 -1.2523
   44MOL   H39439180   7.172   0.805   3.145 -0.0511 -1.1184 -0.1241
   44MOL   H39539181   6.961   0.370   3.369  2.0472  0.7803  0.5358
   44MOL   H39639182   6.820   0.273   3.161  0.0421 -0.2445  0.7455
   44MOL   H39739183   7.186   0.145   2.991 -0.3620 -2.2612  0.5975
   44MOL   H39839184   7.322   0.240   3.177 -0.4641  0.7992  0.4336
   44MOL   H39939185   6.877   0.106   2.705 -0.4208  0.6172  0.6133
   44MOL   H40039186   6.877   8.247   2.611 -2.1155  0.1345  0.2712
   44MOL   H40139187   6.970   8.071   2.980  1.6254 -0.7355 -1.7991
   44MOL   H40239188   6.966   8.306   3.100  1.3519  0.7421 -0.5997
   44MOL   H40339189   6.685   7.982   2.800 -0.9754  0.5740 -1.4147
   44MOL   H40439190   6.665   7.774   2.712 -1.3120  2.8710 -1.1085
   44MOL   H40539191   7.059   7.784   2.537  0.5661 -1.1050  0.7273
   44MOL   H40639192   7.097   8.002   2.659 -0.2847  0.7649  1.6178
   44MOL   C40739193   6.768   7.681   2.413 -0.7849 -0.1180 -0.1231
   44MOL   C40839194   6.633   7.644   2.395  0.7272 -0.4628  0.4397
   44MOL   C40939195   6.562   7.688   2.280 -0.2610 -0.2508  0.0094
   44MOL   C41039196   6.636   7.766   2.185 -0.6258 -1.1405  0.4459
   44MOL   C41139197   6.770   7.807   2.207  0.7645  0.1813 -0.4960
   44MOL   C41239198   6.836   7.760   2.324 -0.8080  0.4924  0.4697
   44MOL   S41339199   6.552   7.806   2.033  0.1402 -0.3755 -0.0216
   44MOL   O41439200   6.461   7.919   2.054 -0.2171 -0.1764 -0.3814
   44MOL   O41539201   6.498   7.681   1.978  0.7906  0.2016 -0.3582
   44MOL   C41639202   6.663   7.871   1.916  0.3470  0.5152 -0.4522
   44MOL   C41739203   6.669   8.009   1.881  0.2159  0.7218  0.2753
   44MOL   C41839204   6.747   8.043   1.765  0.2861  0.4978 -1.2419
   44MOL   C41939205   6.812   7.947   1.687  0.2392  0.8100 -0.1352
   44MOL   C42039206   6.811   7.818   1.732 -0.2112 -0.7009  0.2009
   44MOL   C42139207   6.738   7.779   1.846 -0.6010  0.5561 -0.3916
   44MOL   O42239208   6.864   7.974   1.562 -0.2900 -0.1744 -0.2351
   44MOL   C42339209   6.982   8.056   1.558  0.0331 -0.1201 -0.0859
   44MOL   C42439210   7.091   8.032   1.644 -0.1470 -0.1242 -0.7232
   44MOL   C42539211   7.216   8.106   1.632 -0.7729 -0.5831  0.5675
   44MOL   C42639212   7.234   8.200   1.529  0.2150  0.2108  0.0227
   44MOL   C42739213   7.114   8.220   1.452  0.6183  0.3594 -0.1682
   44MOL   C42839214   6.988   8.158   1.462  0.2537 -0.5410 -0.9861
   44MOL   C42939215   7.354   8.288   1.514 -0.1126  0.0953  0.3031
   44MOL   C43039216   7.347   0.061   1.488  0.1004  0.0123  0.3187
   44MOL   C43139217   7.463   0.138   1.460 -0.6121  0.4943  0.1333
   44MOL   C43239218   7.588   0.075   1.467  0.2912 -0.3134 -0.0075
   44MOL   C43339219   7.598   8.302   1.488  0.5809 -0.0864 -0.1023
   44MOL   C43439220   7.480   8.228   1.511  0.1571 -0.3350 -0.2902
   44MOL   O43539221   7.702   0.152   1.441  0.2503 -0.1133 -0.2304
   44MOL   H43639222   6.587   7.578   2.467 -0.5416  1.2331  1.2200
   44MOL   H43739223   6.458   7.660   2.266  0.5841 -3.1060 -0.9919
   44MOL   H43839224   6.821   7.865   2.132  2.5275 -0.1305  0.4501
   44MOL   H43939225   6.941   7.781   2.341 -0.9590 -0.1401  2.2665
   44MOL   H44039226   6.623   8.086   1.941 -2.1408  0.7880 -1.5592
   44MOL   H44139227   6.753   8.146   1.732  0.6985  0.6068 -0.8377
   44MOL   H44239228   6.874   7.741   1.691 -1.4077 -0.9552 -1.1790
   44MOL   H44339229   6.745   7.675   1.875  0.7005  0.8443  0.3727
   44MOL   H44439230   7.082   7.959   1.723  0.4211  1.1547  0.5346
   44MOL   H44539231   7.303   8.098   1.695 -1.1514 -0.5906  1.0902
   44MOL   H44639232   7.124   8.299   1.379 -0.5102  2.1439  1.5658
   44MOL   H44739233   6.909   8.185   1.393 -1.8572 -1.7396  0.8750
   44MOL   H44839234   7.250   0.108   1.500  0.9434  1.4604  1.5780
   44MOL   H44939235   7.440   0.240   1.433  1.4034  0.8019 -0.4850
   44MOL   H45039236   7.690   8.248   1.470  0.4226  0.0234 -1.2724
   44MOL   H45139237   7.487   8.122   1.525 -1.0238 -0.6816 -2.1031
   44MOL   C45239238   7.741   0.158   1.310  0.3907 -0.5970  0.9129
   44MOL   C45339239   7.724   0.277   1.240 -0.1243  0.1529  0.0484
   44MOL   C45439240   7.777   0.280   1.108  0.6561 -0.3933  0.1692
   44MOL   C45539241   7.820   0.161   1.045  0.0047  0.6428 -0.8755
   44MOL   C45639242   7.839   0.045   1.119 -0.1577 -0.1410  0.0994
   44MOL   C45739243   7.800   0.044   1.252  0.7788  0.0570 -0.2862
   44MOL   S45839244   7.871   0.164   0.873  0.0906 -0.0178  0.3197
   44MOL   O45939245   7.987   0.074   0.863 -0.2859 -0.4349 -0.5148
   44MOL   O46039246   7.892   0.308   0.840  0.3015  0.0971 -0.2057
   44MOL   C46139247   7.741   0.093   0.773  0.1057 -0.1617 -0.3040
   44MOL   C46239248   7.626   0.034   0.830 -0.0402 -0.1781  0.6410
   44MOL   C46339249   7.515   8.363   0.749  0.2711  0.2969  0.0967
   44MOL   C46439250   7.520   0.026   0.611 -0.0255 -0.0497 -0.5470
   44MOL   C46539251   7.634   0.091   0.556 -0.3781  0.2977 -0.7850
   44MOL   C46639252   7.746   0.118   0.637 -0.0244  0.3087 -0.0280
   44MOL   O46739253   7.413   8.353   0.526  0.2333 -0.7915 -0.1296
   44MOL   C46839254   7.390   0.079   0.430 -0.0089 -0.3597 -0.3435
   44MOL   C46939255   7.339   0.213   0.454  0.2066 -0.1855 -0.0096
   44MOL   C47039256   7.308   0.297   0.348 -0.7381  0.4862  0.2969
   44MOL   C47139257   7.346   0.259   0.216  0.6735  0.6519 -0.3095
   44MOL   C47239258   7.405   0.131   0.193  0.4071 -0.0566 -0.5932
   44MOL   C47339259   7.419   0.040   0.301  0.0737 -0.5354 -0.4650
   44MOL   C47439260   7.303   0.351   0.106  0.1213  0.4056 -0.6242
   44MOL   C47539261   7.239   0.310   8.354 -0.5771 -0.1587  0.0373
   44MOL   C47639262   7.189   0.409   8.265  0.1101 -0.0724 -0.0491
   44MOL   C47739263   7.209   0.549   8.285  0.4609  0.7203  0.2330
   44MOL   C47839264   7.299   0.581   0.021 -0.8278  0.1543 -1.2947
   44MOL   C47939265   7.342   0.491   0.119  0.4254  0.3699  0.4636
   44MOL   O48039266   7.184   0.640   8.194  0.2182 -0.0563  0.4575
   44MOL   H48139267   7.686   0.364   1.292 -0.0886  0.0573  0.2357
   44MOL   H48239268   7.784   0.374   1.055 -0.2679 -0.7004 -0.5247
   44MOL   H48339269   7.881   8.324   1.070  0.7909  1.4408 -1.9677
   44MOL   H48439270   7.813   8.319   1.309 -0.1355  0.5577  0.7487
   44MOL   H48539271   7.614   0.011   0.935 -0.9764  2.9509  1.2486
   44MOL   H48639272   7.432   8.315   0.798  0.7303  0.3742  0.9487
   44MOL   H48739273   7.635   0.101   0.449 -1.0129  0.8033 -0.7487
   44MOL   H48839274   7.840   0.154   0.597  0.0946 -0.4468 -0.4435
   44MOL   H48939275   7.320   0.240   0.557  1.6625  1.8164 -0.2461
   44MOL   H49039276   7.276   0.399   0.361  1.0593  1.2466 -0.9397
   44MOL   H49139277   7.435   0.111   0.091 -1.5833 -0.2310 -1.1703
   44MOL   H49239278   7.465   8.309   0.287 -1.0431 -0.9328 -1.4109
   44MOL   H49339279   7.210   0.208   8.334 -0.1562 -0.0801 -1.0371
   44MOL   H49439280   7.129   0.372   8.183 -0.2891  1.0045 -0.2484
   44MOL   H49539281   7.334   0.683   0.014 -1.2000  0.3536 -0.2708
   44MOL   H49639282   7.407   0.528   0.196  0.2130  2.2554 -0.2323
   44MOL   C49739283   7.232   0.615   8.068  0.6887  0.2593 -0.3808
   44MOL   C49839284   7.360   0.660   8.039 -0.1337  0.2810 -0.0125
   44MOL   C49939285   7.407   0.655   7.911  0.2767  0.1328  0.1621
   44MOL   C50039286   7.330   0.598   7.805  0.0314  0.5111  0.4453
   44MOL   C50139287   7.199   0.550   7.837  0.6123 -0.3134 -0.2142
   44MOL   C50239288   7.148   0.557   7.970 -0.2022  0.4862  0.3560
   44MOL   S50339289   7.403   0.580   7.639  0.0779 -0.1201  0.2659
   44MOL   O50439290   7.529   0.658   7.634 -0.1764  0.0964  0.9405
   44MOL   O50539291   7.297   0.597   7.536 -0.0577 -1.0204  0.5349
   44MOL   C50639292   7.458   0.411   7.615  0.8140 -0.2691 -1.0607
   44MOL   C50739293   7.456   0.355   7.488  0.4364  0.2312 -0.6820
   44MOL   C50839294   7.467   0.218   7.475 -0.0901  0.3337  0.6012
   44MOL   C50939295   7.493   0.134   7.586  0.1290  0.3203  0.1867
   44MOL   C51039296   7.495   0.189   7.712 -0.6452  0.1759 -0.0592
   44MOL   C51139297   7.479   0.327   7.726  0.1921 -0.9088 -0.5377
   44MOL   O51239298   7.481   8.363   7.565  0.6493 -0.4149 -0.3259
   44MOL   C51339299   7.358   8.305   7.582  0.1094 -0.1549 -0.9140
   44MOL   C51439300   7.244   8.360   7.521  0.0211  0.4417  0.2697
   44MOL   C51539301   7.117   8.306   7.544 -0.1728 -0.5819 -0.3169
   44MOL   C51639302   7.102   8.193   7.623  0.3543 -0.1120 -0.2576
   44MOL   C51739303   7.212   8.136   7.692 -0.3152 -0.3553  0.2894
   44MOL   C51839304   7.346   8.190   7.664 -0.4223  0.7472 -0.3201
   44MOL   C51939305   6.964   8.143   7.647  0.1332 -0.1184 -0.1370
   44MOL   C52039306   6.934   8.008   7.614  0.9551 -0.4132  1.2672
   44MOL   C52139307   6.810   7.956   7.656 -0.0073 -0.0322 -0.7988
   44MOL   C52239308   6.712   8.041   7.713  0.7599  0.3465  0.1034
   44MOL   C52339309   6.740   8.180   7.727 -0.2299  0.2854 -0.5322
   44MOL   C52439310   6.867   8.230   7.699 -0.1169 -0.2963  0.4785
   44MOL   O52539311   6.588   7.996   7.751 -0.0069  0.1334  0.3016
   44MOL   H52639312   7.422   0.700   8.118  0.9801  0.0401 -0.7619
   44MOL   H52739313   7.508   0.687   7.890  0.2025 -0.2638 -0.8079
   44MOL   H52839314   7.143   0.503   7.759  0.7036  2.2647 -1.9077
   44MOL   H52939315   7.050   0.518   7.992  0.0653  0.2879  1.2188
   44MOL   H53039316   7.439   0.419   7.402 -1.6202 -0.5509 -0.8934
   44MOL   H53139317   7.451   0.169   7.381  0.3455  0.8203  0.2707
   44MOL   H53239318   7.506   0.122   7.795  1.6766 -0.0922 -0.5581
   44MOL   H53339319   7.479   0.369   7.826  0.3120 -0.9989 -0.5004
   44MOL   H53439320   7.240   0.088   7.468 -0.4166  0.6935  0.7484
   44MOL   H53539321   7.028   8.352   7.505  2.1801  2.3364 -2.4641
   44MOL   H53639322   7.201   8.047   7.752  0.5304 -1.0025 -0.4969
   44MOL   H53739323   7.433   8.137   7.700 -0.8861 -1.4855 -2.3614
   44MOL   H53839324   7.012   7.956   7.561  2.3777  1.2576  1.6873
   44MOL   H53939325   6.792   7.852   7.633  1.9267 -0.4012 -0.7169
   44MOL   H54039326   6.668   8.252   7.763 -0.5413  0.7137 -1.9843
   44MOL   H54139327   6.897   8.331   7.723 -1.4907  0.0649  0.6928
   44MOL   C54239328   6.564   7.980   7.885  0.5222  0.4276 -0.4563
   44MOL   C54339329   6.590   7.865   7.958  0.5053  0.1021 -0.3685
   44MOL   C54439330   6.580   7.864   8.094 -0.1646 -0.6070 -0.1862
   44MOL   C54539331   6.529   7.974   8.163  0.0006 -0.1800 -0.0256
   44MOL   C54639332   6.487   8.087   8.091  0.0197  0.1608  0.0622
   44MOL   C54739333   6.515   8.092   7.954  0.1898  0.0001  0.0192
   44MOL   S54839334   6.492   7.969   8.339 -0.1297  0.1864 -0.0320
   44MOL   O54939335   6.400   8.083   0.000  0.3525  0.1911  0.3612
   44MOL   O55039336   6.615   7.964   0.044  0.1116  0.1363 -0.3493
   44MOL   C55139337   6.405   7.815   8.361  0.3041  0.3298  0.5265
   44MOL   C55239338   6.484   7.703   0.032  0.2583  0.0062 -0.4750
   44MOL   C55339339   6.424   7.574   0.049  1.0569 -0.4550  0.8005
   44MOL   C55439340   6.284   7.560   0.016 -0.3701 -0.3734  0.6053
   44MOL   C55539341   6.204   7.671   8.340 -0.7808  0.4573 -0.0541
   44MOL   C55639342   6.265   7.796   8.332 -0.0699  0.4887  0.7803
   44MOL   O55739343   6.229   7.440   0.035  0.6440 -0.2088  0.1642
   44MOL   C55839344   6.241   7.349   8.298 -0.4797 -0.2183  0.3040
   44MOL   C55939345   6.232   7.381   8.161  0.1642  0.1610 -0.3321
   44MOL   C56039346   6.232   7.274   8.067  0.4836  0.7530 -0.3796
   44MOL   C56139347   6.238   7.138   8.108 -0.2331 -0.5102 -0.0773
   44MOL   C56239348   6.260   7.117   8.246  1.2032  0.5598 -0.7456
   44MOL   C56339349   6.260   7.217   8.340  0.0655  0.6703  0.3506
   44MOL   C56439350   6.230   7.024   8.015 -0.9995 -0.1819  0.1794
   44MOL   C56539351   6.281   7.042   7.889 -0.6550  0.6112  0.6177
   44MOL   C56639352   6.268   6.940   7.797  0.1419  0.0571 -0.3964
   44MOL   C56739353   6.213   6.815   7.830  0.3426  0.3339  0.2418
   44MOL   C56839354   6.194   6.781   7.968 -0.1557 -0.5102  0.7372
   44MOL   C56939355   6.193   6.892   8.058 -0.4744 -0.3736  0.2109
   44MOL   O57039356   6.178   6.725   7.738 -0.5315  0.2064 -0.4324
   44MOL   H57139357   6.626   7.775   7.910  0.0389 -0.1679 -0.2066
   44MOL   H57239358   6.592   7.772   8.150 -1.7369 -1.9432 -1.9548
   44MOL   H57339359   6.456   8.180   8.138  0.9385  0.0672  0.8700
   44MOL   H57439360   6.484   8.181   7.900 -0.6481 -0.0956  0.3516
   44MOL   H57539361   6.587   7.721   0.059  0.1258 -0.7931  0.5755
   44MOL   H57639362   6.479   7.491   0.090  1.7591  0.1707  1.1309
   44MOL   H57739363   6.097   7.664   8.333 -0.6422  0.5695 -2.7606
   44MOL   H57839364   6.210   7.888   8.323 -1.2334 -0.2716 -0.0409
   44MOL   H57939365   6.213   7.481   8.124 -1.0478  0.0244 -0.0981
   44MOL   H58039366   6.220   7.296   7.962 -0.3737 -1.9085 -0.8683
   44MOL   H58139367   6.255   7.018   8.290 -1.1376  0.7446 -0.4886
   44MOL   H58239368   6.266   7.197   0.080 -1.9239  2.6868  0.8701
   44MOL   H58339369   6.310   7.140   7.853 -1.1117  1.4898  2.5352
   44MOL   H58439370   6.308   6.947   7.697  0.5998 -1.4562 -0.3412
   44MOL   H58539371   6.170   6.678   7.992 -0.8983 -0.8028 -1.1701
   44MOL   H58639372   6.165   6.872   8.160  0.0915  0.3297  0.5088
   44MOL   C58739373   6.283   6.643   7.689 -0.4100  0.5400 -0.4590
   44MOL   C58839374   6.323   6.655   7.557 -0.2602  0.0583  0.3128
   44MOL   C58939375   6.425   6.565   7.505  0.0722  0.5949 -0.0179
   44MOL   C59039376   6.483   6.464   7.586 -0.2916  0.6059  0.1226
   44MOL   C59139377   6.447   6.455   7.723 -0.8640  0.3041 -0.0161
   44MOL   C59239378   6.353   6.545   7.769 -0.2438  0.2897 -0.0394
   44MOL   S59339379   6.606   6.352   7.512  0.3417 -0.0178  0.0954
   44MOL   O59439380   6.616   6.394   7.373  0.1179  0.3008  0.5307
   44MOL   O59539381   6.580   6.207   7.541  0.6299 -0.3449 -0.4134
   44MOL   C59639382   6.764   6.411   7.585 -0.1103 -0.7037  0.8472
   44MOL   C59739383   6.787   6.543   7.617  0.4581 -0.1885 -0.3145
   44MOL   C59839384   6.911   6.580   7.675 -0.2579 -0.2996  0.0508
   44MOL   C59939385   7.008   6.487   7.697  0.0419  0.1334 -0.0722
   44MOL   C60039386   6.985   6.350   7.667  0.2332  0.1455  0.3148
   44MOL   C60139387   6.862   6.316   7.610 -0.2836 -0.8539  0.1993
   44MOL   O60239388   7.129   6.521   7.750 -0.5885  0.0390  0.3364
   44MOL   C60339389   7.219   6.593   7.671  0.2524 -0.4381 -0.2864
   44MOL   C60439390   7.206   6.733   7.659  0.1211  0.0675  0.1518
   44MOL   C60539391   7.282   6.803   7.558  0.4958 -0.5711 -0.1404
   44MOL   C60639392   7.376   6.734   7.478 -0.7930  0.0438  0.6754
   44MOL   C60739393   7.392   6.597   7.506  0.1910  0.0692  0.7118
   44MOL   C60839394   7.312   6.523   7.597  0.2979  0.3311  0.3684
   44MOL   C60939395   7.453   6.800   7.372 -0.0658 -0.1556 -0.2431
   44MOL   C61039396   7.592   6.826   7.393  0.1226 -0.2795  0.2631
   44MOL   C61139397   7.663   6.897   7.299 -0.3750  0.4910 -0.7790
   44MOL   C61239398   7.607   6.940   7.174 -0.3702  0.3160 -0.8592
   44MOL   C61339399   7.471   6.919   7.152  0.7001 -0.2586  0.0802
   44MOL   C61439400   7.395   6.846   7.252 -0.1571  0.5562 -0.1049
   44MOL   O61539401   7.693   6.996   7.085  0.1360 -0.1368  0.4977
   44MOL   H61639402   6.276   6.730   7.494 -0.3319 -1.0798 -1.0255
   44MOL   H61739403   6.458   6.567   7.402 -0.0952 -0.6837 -0.1070
   44MOL   H61839404   6.502   6.389   7.788 -1.7090 -1.3778 -0.9635
   44MOL   H61939405   6.333   6.537   7.875  2.5257  1.4388  0.6121
   44MOL   H62039406   6.704   6.610   7.598  0.5288  0.1568  0.5688
   44MOL   H62139407   6.930   6.686   7.684  0.4844 -0.4367  0.1199
   44MOL   H62239408   7.067   6.282   7.684  1.3841  1.7507  1.3801
   44MOL   H62339409   6.844   6.213   7.582 -0.1824 -1.4504  2.2359
   44MOL   H62439410   7.135   6.784   7.723 -0.1286 -2.1127  1.6492
   44MOL   H62539411   7.263   6.908   7.540  0.5911  0.0421  2.9998
   44MOL   H62639412   7.459   6.540   7.444 -0.7673  1.5273 -1.7194
   44MOL   H62739413   7.324   6.415   7.604  0.9409  0.3588 -0.2538
   44MOL   H62839414   7.640   6.788   7.483  1.3267  2.2099  0.7273
   44MOL   H62939415   7.771   6.900   7.310 -0.3603 -1.0073 -0.4328
   44MOL   H63039416   7.431   6.947   7.055 -0.4285  0.9753  0.8787
   44MOL   H63139417   7.290   6.825   7.238 -0.4402  0.9052  1.3565
   44MOL   C63239418   7.662   6.986   6.954 -0.1293  0.1140 -0.8210
   44MOL   C63339419   7.661   6.864   6.881  0.3680  0.4585  0.3145
   44MOL   C63439420   7.642   6.860   6.738 -0.2044 -0.1618 -0.3283
   44MOL   C63539421   7.615   6.982   6.668  0.4850  0.6794  0.0036
   44MOL   C63639422   7.613   7.105   6.737 -1.1053 -0.1021 -0.7636
   44MOL   C63739423   7.646   7.107   6.873  0.1170 -0.3869  0.2530
   44MOL   S63839424   7.589   6.980   6.490 -0.0409  0.2486 -0.0961
   44MOL   O63939425   7.613   7.117   6.436  0.2769 -0.7662 -0.0715
   44MOL   O64039426   7.467   6.907   6.465  0.6513 -0.1479 -0.3195
   44MOL   C64139427   7.716   6.879   6.411 -0.0156 -0.4841 -0.2750
   44MOL   C64239428   7.698   6.812   6.291  0.1893 -0.0447 -0.5507
   44MOL   C64339429   7.804   6.745   6.231 -0.6804  0.2669 -0.5533
   44MOL   C64439430   7.931   6.746   6.287  0.5614 -0.3598 -0.5254
   44MOL   C64539431   7.943   6.806   6.412 -0.2022  0.2587  0.2022
   44MOL   C64639432   7.844   6.878   6.474  0.5678 -0.2519 -0.0407
   44MOL   O64739433   8.036   6.678   6.236  0.0832  0.4210 -0.0611
   44MOL   C64839434   8.084   6.722   6.116 -0.5800 -0.2998  0.1203
   44MOL   C64939435   8.195   6.802   6.108 -0.2573 -0.0489 -0.7063
   44MOL   C65039436   8.232   6.848   5.981  0.0679  0.3620 -0.6989
   44MOL   C65139437   8.185   6.801   5.858 -0.3085  0.1936  0.7174
   44MOL   C65239438   8.079   6.712   5.869  0.2531 -0.2485  0.9409
   44MOL   C65339439   8.015   6.687   5.993 -0.4526  0.3958 -0.5295
   44MOL   C65439440   8.240   6.837   5.727 -0.0942  0.7055 -0.1636
   44MOL   C65539441   0.011   6.865   5.710  0.3763  0.1126  0.7344
   44MOL   C65639442   0.073   6.873   5.580 -0.7631  0.9498  0.7059
   44MOL   C65739443   8.357   6.866   5.464 -0.1408 -0.9550  0.2750
   44MOL   C65839444   8.220   6.833   5.482  0.0249 -0.1890 -0.3047
   44MOL   C65939445   8.159   6.830   5.612  0.1968 -0.2490 -0.3712
   44MOL   O66039446   0.053   6.887   5.337  0.2221 -0.4115 -0.3945
   44MOL   H66139447   7.669   6.771   6.936 -0.8275  0.9487  1.3429
   44MOL   H66239448   7.643   6.767   6.683 -0.9870 -0.2358 -0.2232
   44MOL   H66339449   7.589   7.189   6.673 -0.0799 -0.2644 -1.3875
   44MOL   H66439450   7.654   7.200   6.927 -2.4990  0.3399 -0.4912
   44MOL   H66539451   7.599   6.820   6.249 -0.6846 -0.4806  1.3701
   44MOL   H66639452   7.780   6.703   6.134 -1.1578 -1.0739  0.1350
   44MOL   H66739453   8.044   6.801   6.452 -0.1123 -2.3305 -0.2583
   44MOL   H66839454   7.857   6.937   6.563 -0.6911  0.3376 -0.2315
   44MOL   H66939455   8.242   6.823   6.203 -0.2848 -0.0927 -0.6837
   44MOL   H67039456   8.317   6.914   5.976  1.1610 -1.1795 -3.0472
   44MOL   H67139457   8.039   6.670   5.778 -0.5188 -1.8034  1.9815
   44MOL   H67239458   7.925   6.628   5.984 -0.9328  1.0153  0.1870
   44MOL   H67339459   0.076   6.874   5.795 -0.0953  0.2761  1.0795
   44MOL   H67439460   0.179   6.888   5.569 -0.8660 -0.4074 -3.2191
   44MOL   H67539461   8.160   6.811   5.395 -2.5613 -1.3415  1.7314
   44MOL   H67639462   8.054   6.808   5.620  0.6747 -1.8712  2.4050
   44MOL   C67739463   8.339   6.943   5.240 -0.6135  0.4759 -0.3811
   44MOL   C67839464   8.292   7.076   5.252 -0.0799 -0.6572 -0.2256
   44MOL   C67939465   8.214   7.142   5.156 -0.2568  0.1727 -0.5935
   44MOL   C68039466   8.179   7.065   5.042 -0.6726 -0.0529  0.6236
   44MOL   C68139467   8.227   6.938   5.019 -0.4048  0.6023  0.3792
   44MOL   C68239468   8.311   6.872   5.121 -0.6305 -0.3608 -0.0092
   44MOL   S68339469   8.057   7.136   4.920  0.4094  0.2197 -0.2978
   44MOL   O68439470   8.103   7.273   4.884  0.1246  0.1584 -0.2154
   44MOL   O68539471   7.926   7.121   4.987 -0.0843  0.4567 -0.6614
   44MOL   C68639472   8.031   7.033   4.773 -0.0745 -0.4097  0.6267
   44MOL   C68739473   8.024   7.107   4.650  0.6277  0.8696 -0.0423
   44MOL   C68839474   8.003   7.034   4.530 -0.5540  0.5337  0.4588
   44MOL   C68939475   8.004   6.894   4.526 -0.8093  0.8142  0.1096
   44MOL   C69039476   8.017   6.823   4.647 -0.4950  0.1149 -0.5538
   44MOL   C69139477   8.023   6.892   4.773  0.1094 -0.5183  0.3334
   44MOL   O69239478   7.984   6.825   4.408  0.7446  0.0181 -0.2779
   44MOL   C69339479   8.102   6.786   4.344  0.2906  0.8701  0.3440
   44MOL   C69439480   8.172   6.874   4.257  0.3783  0.0686 -0.1168
   44MOL   C69539481   8.285   6.831   4.184 -0.8009 -0.5677  0.4531
   44MOL   C69639482   8.335   6.702   4.212 -0.9976  0.5657  0.0402
   44MOL   C69739483   8.273   6.620   4.306 -0.1221  0.0592  0.4087
   44MOL   C69839484   8.147   6.653   4.366 -0.6623 -0.1223  0.1650
   44MOL   C69939485   0.092   6.660   4.134 -0.7734  0.4188  0.2370
   44MOL   C70039486   0.208   6.606   4.200 -0.1046 -0.0552 -0.1885
   44MOL   C70139487   0.323   6.565   4.125 -0.2259 -0.4456 -0.3881
   44MOL   C70239488   0.319   6.584   3.982 -0.1332 -0.0607  0.2495
   44MOL   C70339489   0.209   6.641   3.921 -0.4748 -0.1745 -0.3400
   44MOL   C70439490   0.092   6.679   3.997 -0.7073  0.2579  0.3599
   44MOL   O70539491   0.428   6.558   3.896  0.3056  0.2007 -0.5498
   44MOL   H70639492   8.309   7.131   5.343  2.4836 -1.2851 -0.2830
   44MOL   H70739493   8.191   7.247   5.167 -0.6010  0.1746 -1.3700
   44MOL   H70839494   8.217   6.879   4.929  0.5820  1.5261 -0.3478
   44MOL   H70939495   8.337   6.768   5.115  1.1881  0.1691 -1.4900
   44MOL   H71039496   8.029   7.215   4.653  2.1542  0.7797  1.4374
   44MOL   H71139497   7.993   7.083   4.435 -1.5527 -0.1292  0.2183
   44MOL   H71239498   8.026   6.716   4.642  2.3686  0.2924 -0.3198
   44MOL   H71339499   8.040   6.834   4.862 -1.2401  0.7217  1.4315
   44MOL   H71439500   8.140   6.976   4.243  2.2755  0.7334  0.2879
   44MOL   H71539501   8.339   6.891   4.112 -0.5560 -1.4637 -0.1191
   44MOL   H71639502   8.320   6.526   4.332 -1.7040 -0.2783  2.0964
   44MOL   H71739503   8.092   6.583   4.427 -0.7681  1.1788  1.5762
   44MOL   H71839504   0.212   6.597   4.307 -3.6787 -0.5789 -0.0383
   44MOL   H71939505   0.411   6.522   4.171 -0.0526  0.3907  0.0726
   44MOL   H72039506   0.209   6.653   3.813 -1.0371  0.6596 -0.2498
   44MOL   H72139507   0.006   6.728   3.954 -0.8350 -0.1607  0.1339
   44MOL   C72239508   0.508   6.450   3.919 -0.4207 -0.2038 -0.2331
   44MOL   C72339509   0.620   6.465   4.001  0.1166 -0.3250 -0.0847
   44MOL   C72439510   0.712   6.359   4.019 -0.6828  0.1598  0.1701
   44MOL   C72539511   0.689   6.236   3.956  0.1802  0.2648 -0.2879
   44MOL   C72639512   0.577   6.214   3.875 -0.6040  0.2122  0.0301
   44MOL   C72739513   0.487   6.325   3.860  0.0324 -0.1136 -0.0989
   44MOL   S72839514   0.813   6.103   3.980 -0.1235  0.2123 -0.1172
   44MOL   O72939515   0.937   6.160   3.922  0.4856  0.2255 -0.1591
   44MOL   O73039516   0.761   5.975   3.925  0.1702  0.3880  0.0260
   44MOL   C73139517   0.838   6.080   4.154 -0.0378  0.1462  0.1009
   44MOL   C73239518   0.756   6.124   4.262 -0.3911  0.2177 -0.3379
   44MOL   C73339519   0.793   6.113   4.396 -0.5610  0.4268  0.6174
   44MOL   C73439520   0.919   6.061   4.426  0.8381 -0.2946  0.2071
   44MOL   C73539521   1.000   6.014   4.323 -0.7278  0.1355  0.7191
   44MOL   C73639522   0.961   6.013   4.186  0.3527  0.6615  0.1199
   44MOL   O73739523   0.961   6.061   4.558 -0.4629  0.3650  0.1224
   44MOL   C73839524   1.025   6.176   4.596  0.5557 -0.2005 -0.1643
   44MOL   C73939525   0.945   6.281   4.654 -0.3346  0.0128 -0.1072
   44MOL   C74039526   1.011   6.394   4.702  0.5338  0.2848 -0.5845
   44MOL   C74139527   1.153   6.405   4.701  0.5302 -0.1299 -0.6403
   44MOL   C74239528   1.226   6.292   4.658  0.3536  0.0645  0.2176
   44MOL   C74339529   1.165   6.187   4.593  0.9963 -0.8532 -0.6578
   44MOL   C74439530   1.214   6.525   4.759  0.3622 -0.1112  0.5139
   44MOL   C74539531   1.346   6.561   4.724 -0.2502  0.3906 -0.1508
   44MOL   C74639532   1.410   6.668   4.786 -0.2453 -0.2799  0.1710
   44MOL   C74739533   1.333   6.760   4.872 -0.3161  0.0532  0.1019
   44MOL   C74839534   1.207   6.724   4.911  0.1233  0.4436  0.0373
   44MOL   C74939535   1.147   6.614   4.854  0.3324 -0.1768  0.1735
   44MOL   O75039536   1.401   6.863   4.936  0.0388  0.0702 -0.0492
   44MOL   H75139537   0.640   6.562   4.043  1.2319 -0.4071 -0.4207
   44MOL   H75239538   0.804   6.368   4.075  0.3000 -0.6642 -1.2555
   44MOL   H75339539   0.555   6.117   3.834 -1.9671  0.5902 -0.1704
   44MOL   H75439540   0.391   6.303   3.814 -0.9841 -2.1099  2.8431
   44MOL   H75539541   0.667   6.184   4.249 -0.6019 -0.3226 -1.3797
   44MOL   H75639542   0.731   6.163   4.469 -1.6509  1.9786 -1.3473
   44MOL   H75739543   1.102   5.982   4.336 -0.9421 -0.3595  1.2305
   44MOL   H75839544   1.020   5.981   4.102 -0.3113 -0.3778  0.0383
   44MOL   H75939545   0.837   6.277   4.659 -0.3238  0.6558  0.7644
   44MOL   H76039546   0.960   6.471   4.757  1.0528 -0.5053  1.0369
   44MOL   H76139547   1.333   6.301   4.666  0.3696 -0.5464  0.7792
   44MOL   H76239548   1.229   6.114   4.546 -0.3836 -0.8555 -2.5849
   44MOL   H76339549   1.416   6.509   4.662  0.3328  2.0580 -0.9244
   44MOL   H76439550   1.511   6.702   4.768 -0.5428  0.7844  0.4800
   44MOL   H76539551   1.165   6.797   4.978  2.5822  1.9196  0.0060
   44MOL   H76639552   1.047   6.594   4.890 -0.7480  0.8953 -2.1085
   44MOL   C76739553   1.430   6.973   4.859  0.7911  0.6976  0.2738
   44MOL   C76839554   1.367   7.004   4.737 -0.2650 -0.5326 -0.3032
   44MOL   C76939555   1.402   7.122   4.668  0.1580  0.4942  0.0677
   44MOL   C77039556   1.500   7.205   4.718  0.9483  0.2967 -0.1415
   44MOL   C77139557   1.556   7.184   4.845 -0.3055  0.2497  0.5630
   44MOL   C77239558   1.516   7.071   4.917 -0.2848  0.6889 -0.5276
   44MOL   S77339559   1.548   7.344   4.617  0.3176  0.0277 -0.2523
   44MOL   O77439560   1.496   7.330   4.480  0.2534 -0.2705 -0.5412
   44MOL   O77539561   1.693   7.350   4.632 -0.0724  0.1843  0.0914
   44MOL   C77639562   1.475   7.488   4.694  0.2162  0.2850 -0.3789
   44MOL   C77739563   1.545   7.611   4.707 -0.3421  0.9265  0.0984
   44MOL   C77839564   1.474   7.721   4.764  0.0629 -0.6696 -0.6858
   44MOL   C77939565   1.340   7.713   4.802  0.0470  0.2243 -0.0589
   44MOL   C78039566   1.273   7.590   4.793  0.1017  0.9170  0.1036
   44MOL   C78139567   1.339   7.475   4.735 -0.0727 -0.3178 -0.2264
   44MOL   O78239568   1.269   7.819   4.852  0.0604  0.0635  0.2207
   44MOL   C78339569   1.189   7.880   4.758 -0.1224 -0.3200 -0.3360
   44MOL   C78439570   1.219   7.875   4.622  0.4276 -0.6442  0.2920
   44MOL   C78539571   1.136   7.943   4.529 -0.5655  0.2858 -0.8301
   44MOL   C78639572   1.021   8.009   4.582  0.0516  0.1853  0.2948
   44MOL   C78739573   0.994   8.008   4.722  0.3733  0.1963 -0.5742
   44MOL   C78839574   1.082   7.949   4.810  0.0221 -0.2451  0.7825
   44MOL   C78939575   0.938   8.085   4.500  0.0749 -0.6737 -0.2328
   44MOL   C79039576   0.960   8.224   4.495  0.5436 -0.5807  0.4121
   44MOL   C79139577   0.873   8.301   4.407 -0.1415 -0.4707  0.1086
   44MOL   C79239578   0.772   8.244   4.333  1.0121  0.9127  0.2432
   44MOL   C79339579   0.774   8.106   4.330  0.1381 -0.0748 -0.1755
   44MOL   C79439580   0.842   8.024   4.419 -0.0206  0.0416 -0.6042
   44MOL   O79539581   0.681   8.318   4.262 -0.4819  0.1569  0.3943
   44MOL   H79639582   1.289   6.942   4.694  2.0123 -3.0382 -1.0058
   44MOL   H79739583   1.369   7.135   4.566 -0.1552  0.0028  0.1069
   44MOL   H79839584   1.647   7.237   4.870  0.7040 -2.0092  1.8645
   44MOL   H79939585   1.571   7.046   5.006 -2.4630  2.9625  1.5600
   44MOL   H80039586   1.644   7.625   4.665 -0.6485 -0.1258 -0.9954
   44MOL   H80139587   1.524   7.816   4.754 -1.1030  0.5878  4.3589
   44MOL   H80239588   1.169   7.582   4.819  0.0230 -0.5091 -0.5886
   44MOL   H80339589   1.288   7.384   4.707 -0.8845 -0.2910  1.1054
   44MOL   H80439590   1.304   7.820   4.584  1.1360 -0.1905  1.2033
   44MOL   H80539591   1.154   7.944   4.422  0.0578 -2.0613 -0.7699
   44MOL   H80639592   0.903   8.055   4.758 -2.4109 -4.7178 -0.8472
   44MOL   H80739593   1.063   7.958   4.916  2.6009  0.8404  1.1800
   44MOL   H80839594   1.044   8.280   4.533  0.4524  1.2148 -1.9161
   44MOL   H80939595   0.880   0.043   4.404 -1.2655 -0.4055 -0.6621
   44MOL   H81039596   0.704   8.064   4.259 -0.3578 -0.2729  0.4227
   44MOL   H81139597   0.816   7.920   4.427  2.1069 -0.4506  0.3000
   44MOL   C81239598   0.546   8.332   4.298  0.0750 -0.6921 -0.0271
   44MOL   C81339599   0.511   0.053   4.401 -0.1696 -0.2908  0.1645
   44MOL   C81439600   0.379   0.056   4.453  0.3244  0.2881  0.2334
   44MOL   C81539601   0.285   8.331   4.391 -0.5448 -0.1476  0.3302
   44MOL   C81639602   0.323   8.250   4.284  1.3722 -0.4376  0.3718
   44MOL   C81739603   0.451   8.253   4.234 -0.2396  0.5726  0.2536
   44MOL   S81839604   0.117   8.324   4.469 -0.0151 -0.1021 -0.0214
   44MOL   O81939605   0.016   0.028   4.385 -0.0771  0.4346 -0.6970
   44MOL   O82039606   0.130   8.362   4.611 -0.5324  0.1744  0.3163
   44MOL   C82139607   0.073   8.153   4.472  0.4744 -1.1506 -0.2985
   44MOL   C82239608   0.026   8.092   4.358 -0.1439  0.3406  0.2320
   44MOL   C82339609   8.356   7.952   4.357 -0.1285 -0.1163 -0.7249
   44MOL   C82439610   0.003   7.879   4.485  0.4094  0.2418 -0.4375
   44MOL   C82539611   0.044   7.945   4.599  0.6142 -0.5132  0.0500
   44MOL   C82639612   0.080   8.084   4.588  0.2764 -0.0942 -0.1695
   44MOL   O82739613   8.332   7.750   4.489  0.3036  0.7743 -0.7098
   44MOL   C82839614   8.194   7.728   4.501 -0.1047  0.6059 -0.1152
   44MOL   C82939615   8.119   7.805   4.594 -0.2413 -0.1351  0.0109
   44MOL   C83039616   7.975   7.791   4.592  0.5540  0.0644  0.5349
   44MOL   C83139617   7.910   7.698   4.508  0.0734  0.4416 -0.2234
   44MOL   C83239618   7.992   7.615   4.428 -0.3940 -0.2706 -0.0255
   44MOL   C83339619   8.135   7.622   4.425 -0.3339 -0.7162  0.2751
   44MOL   C83439620   7.764   7.680   4.512 -0.0546  0.1166  0.0431
   44MOL   C83539621   7.691   7.707   4.628  0.4517 -0.7995  0.1332
   44MOL   C83639622   7.552   7.717   4.618 -0.5005  0.5875 -0.2226
   44MOL   C83739623   7.477   7.682   4.502  0.1708  0.0570 -0.0948
   44MOL   C83839624   7.549   7.623   4.397 -0.8469  0.2915 -0.2997
   44MOL   C83939625   7.692   7.637   4.398  0.0974 -0.0826  0.1285
   44MOL   O84039626   7.345   7.700   4.491 -0.8390 -0.0455 -0.3741
   44MOL   H84139627   0.580   0.122   4.448  0.5381 -0.0446 -1.2120
   44MOL   H84239628   0.354   0.127   4.529  0.3489  0.9085 -0.3359
   44MOL   H84339629   0.254   8.186   4.230  1.7201 -0.0443 -0.5459
   44MOL   H84439630   0.484   8.181   4.161 -2.9885 -3.9914  3.2432
   44MOL   H84539631   0.016   8.139   4.262  0.9997  0.6994  0.2776
   44MOL   H84639632   8.319   7.913   4.263 -0.5864  2.9135 -1.8747
   44MOL   H84739633   0.039   7.884   4.688  0.8395 -1.2378 -0.4205
   44MOL   H84839634   0.114   8.136   4.676  0.4433 -1.9462  0.8843
   44MOL   H84939635   8.168   7.878   4.658  0.8992 -0.7083 -0.1954
   44MOL   H85039636   7.921   7.862   4.653 -0.3822  0.1926 -0.4205
   44MOL   H85139637   7.946   7.547   4.358 -2.4874  3.3556 -2.3046
   44MOL   H85239638   8.184   7.552   4.360 -0.9998  0.9315 -2.0929
   44MOL   H85339639   7.749   7.740   4.712  0.4042 -0.3930  0.0100
   44MOL   H85439640   7.506   7.741   4.713  0.0542  2.0949 -0.3237
   44MOL   H85539641   7.499   7.593   4.306 -0.6405  1.5022 -0.8181
   44MOL   H85639642   7.741   7.614   4.304  0.8355 -1.0383  0.7283
   44MOL   C85739643   7.260   7.632   4.571 -0.5423  0.1064 -0.2973
   44MOL   C85839644   7.255   7.493   4.561 -0.2454 -0.1724  0.0553
   44MOL   C85939645   7.174   7.410   4.645  0.8962 -0.3644  0.2382
   44MOL   C86039646   7.078   7.474   4.728  0.8103 -0.1516  0.2194
   44MOL   C86139647   7.088   7.615   4.738 -0.4470 -1.1739 -0.1824
   44MOL   C86239648   7.172   7.698   4.660  0.7304  0.1459  0.1912
   44MOL   S86339649   6.955   7.379   4.836  0.4919  0.2989  0.3155
   44MOL   O86439650   7.017   7.358   4.969 -0.0292 -1.3148  0.4745
   44MOL   O86539651   6.903   7.265   4.759  0.0803  0.4293  0.1547
   44MOL   C86639652   6.816   7.492   4.856  0.2645 -0.1216  0.5690
   44MOL   C86739653   6.818   7.590   4.962 -0.1643 -0.5888  0.1578
   44MOL   C86839654   6.720   7.697   4.972 -0.2629  0.2621  0.2426
   44MOL   C86939655   6.614   7.689   4.880 -0.7492  0.2086 -0.2684
   44MOL   C87039656   6.607   7.584   4.781  0.1779 -0.0985 -0.2922
   44MOL   C87139657   6.709   7.489   4.769  0.6325  0.1764 -0.3707
   44MOL   O87239658   6.514   7.779   4.884 -0.0527 -0.4831  0.1022
   44MOL   C87339659   6.511   7.883   4.975 -0.5698  1.0097  0.8390
   44MOL   C87439660   6.439   7.874   5.096 -0.2798 -0.1126  0.5626
   44MOL   C87539661   6.425   7.985   5.182  0.3868  0.0614  0.3289
   44MOL   C87639662   6.495   8.107   5.151 -0.0143 -0.1377  0.0461
   44MOL   C87739663   6.557   8.126   5.026  0.3964 -0.2877  0.2916
   44MOL   C87839664   6.561   8.016   4.938 -0.0370 -0.6547 -0.1302
   44MOL   C87939665   6.489   8.212   5.256  0.5440 -0.3553 -0.2250
   44MOL   C88039666   6.611   8.246   5.310  0.3471  0.6206 -0.7374
   44MOL   C88139667   6.621   8.348   5.409  0.1712  0.5935 -0.5528
   44MOL   C88239668   6.505   0.049   5.451  0.3251 -0.1778 -0.4013
   44MOL   C88339669   6.385   0.015   5.394 -0.8947 -0.3939 -0.0599
   44MOL   C88439670   6.374   8.274   5.302  0.0615 -0.3384  0.3860
   44MOL   O88539671   6.504   0.147   5.544  0.3213  0.2370  0.7399
   44MOL   H88639672   7.317   7.449   4.484 -0.5696  0.1022 -0.3623
   44MOL   H88739673   7.181   7.302   4.638 -1.4852 -0.4645 -1.0432
   44MOL   H88839674   7.037   7.663   4.821  0.9117  2.0895 -1.1371
   44MOL   H88939675   7.174   7.803   4.682 -0.3016  0.0859  0.5689
   44MOL   H89039676   6.900   7.590   5.032 -1.4598 -1.2562  1.7230
   44MOL   H89139677   6.718   7.762   5.058  0.5298 -0.5575  0.8889
   44MOL   H89239678   6.529   7.584   4.707  0.5862 -1.1231 -0.7289
   44MOL   H89339679   6.708   7.409   4.697  1.0237 -0.1509 -0.0206
   44MOL   H89439680   6.393   7.780   5.126 -0.3271 -0.4800 -0.6205
   44MOL   H89539681   6.374   7.971   5.276 -2.8457 -0.4139 -1.4078
   44MOL   H89639682   6.604   8.219   5.000 -1.6856  0.3924 -1.2338
   44MOL   H89739683   6.589   8.041   4.837  1.8410  0.1581  0.5755
   44MOL   H89839684   6.700   8.196   5.277  1.1647  1.7446 -0.2498
   44MOL   H89939685   6.718   0.002   5.451 -0.8187 -0.4750  2.3769
   44MOL   H90039686   6.293   0.066   5.422 -0.7044 -1.6027  3.0505
   44MOL   H90139687   6.276   8.254   5.259  0.3138 -0.0292 -0.3361
   44MOL   H90239688   6.414   0.172   5.561 -0.0922 -0.6068 -0.1321
   45MOL     C139689   6.664   6.818   3.770 -0.1131  0.1471 -0.2164
   45MOL     C239690   6.795   6.868   3.779 -0.3899  0.5914  0.2629
   45MOL     C339691   6.824   6.998   3.744 -0.0954 -0.4506 -0.5020
   45MOL     C439692   6.725   7.080   3.684  0.0518  0.4464 -0.3072
   45MOL     C539693   6.594   7.028   3.677  0.1135 -0.9704  0.2607
   45MOL     C639694   6.561   6.901   3.728 -0.4614  0.6459  0.0088
   45MOL     S739695   6.752   7.252   3.652  0.0562  0.0903  0.1069
   45MOL     O839696   6.889   7.269   3.594 -0.6126  0.3870  0.2510
   45MOL     O939697   6.726   7.322   3.777  0.2555 -0.0934  0.0783
   45MOL    C1039698   6.631   7.317   3.533  0.5046 -1.0819 -0.3067
   45MOL    C1139699   6.576   7.449   3.553  0.2901 -0.7124  0.5168
   45MOL    C1239700   6.493   7.498   3.455  0.4749 -0.6980  0.1661
   45MOL    C1339701   6.454   7.426   3.343 -0.7379  0.0409  0.3341
   45MOL    C1439702   6.508   7.297   3.325 -0.2311  0.1320  0.7547
   45MOL    C1539703   6.602   7.241   3.417 -1.1073  0.6306 -0.1341
   45MOL    O1639704   6.365   7.480   3.247  0.2711 -0.1569 -0.2307
   45MOL    C1739705   6.380   7.456   3.112 -0.0343  0.2423  0.5236
   45MOL    C1839706   6.271   7.434   3.026  0.3345  0.3075  0.4742
   45MOL    C1939707   6.294   7.410   2.889 -0.0792 -0.0045 -0.3629
   45MOL    C2039708   6.423   7.391   2.834  0.3841 -0.1730 -0.4907
   45MOL    C2139709   6.534   7.411   2.926  0.0086 -0.1897 -0.3497
   45MOL    C2239710   6.511   7.457   3.059  0.1038 -0.7446  0.3680
   45MOL    C2339711   6.445   7.361   2.696 -0.0502 -1.3406  0.1201
   45MOL    C2439712   6.569   7.309   2.660 -0.2657 -0.4467  0.2157
   45MOL    C2539713   6.587   7.274   2.528  0.1195 -0.4467  0.3643
   45MOL    C2639714   6.482   7.261   2.434 -0.4574  0.1594  1.2291
   45MOL    C2739715   6.354   7.303   2.472 -0.1336 -0.5460 -0.0219
   45MOL    C2839716   6.338   7.359   2.603 -0.2997  0.3327 -0.1167
   45MOL    O2939717   6.497   7.201   2.311 -0.1884  0.1883 -0.7098
   45MOL    H3039718   6.871   6.796   3.806  1.6576  2.7902  0.5219
   45MOL    H3139719   6.925   7.034   3.758 -0.8740  1.5689  0.1179
   45MOL    H3239720   6.526   7.097   3.631  0.7798 -0.8497 -0.5585
   45MOL    H3339721   6.464   6.854   3.725  0.3870 -1.1017 -0.9996
   45MOL    H3439722   6.590   7.510   3.641 -1.6174 -1.7885  1.5964
   45MOL    H3539723   6.469   7.603   3.467  0.8252 -0.7709  1.5301
   45MOL    H3639724   6.480   7.243   3.236  3.0497  0.0129 -0.2541
   45MOL    H3739725   6.651   7.147   3.395 -0.8093  1.3587 -2.7810
   45MOL    H3839726   6.172   7.439   3.069 -0.4648  1.0956 -1.4219
   45MOL    H3939727   6.204   7.398   2.830 -0.1536 -0.5360 -0.1396
   45MOL    H4039728   6.638   7.410   2.897  0.9489 -1.4152  2.7718
   45MOL    H4139729   6.594   7.486   3.123 -0.5854 -1.1632  1.4750
   45MOL    H4239730   6.657   7.307   2.722 -0.9800  2.4204  1.3693
   45MOL    H4339731   6.684   7.246   2.490 -0.4207 -1.5323 -0.2089
   45MOL    H4439732   6.267   7.281   2.412  1.3010  1.1435 -2.8477
   45MOL    H4539733   6.236   7.381   2.631  0.3204 -1.0026  3.3932
   45MOL    H4639734   6.642   6.715   3.794  4.9120 -1.2861 -1.1664
   45MOL    C4739735   6.599   7.241   2.235 -0.1806  0.4658  0.2642
   45MOL    C4839736   6.601   7.371   2.184 -0.3916  0.4928  0.4870
   45MOL    C4939737   6.706   7.411   2.102 -0.1778 -0.3662 -0.3512
   45MOL    C5039738   6.802   7.322   2.049 -0.8516 -0.1286  0.0631
   45MOL    C5139739   6.794   7.184   2.083 -0.5633 -0.7520  0.8458
   45MOL    C5239740   6.691   7.147   2.173 -0.1268  0.4841 -0.5770
   45MOL    S5339741   6.932   7.397   1.943  0.3063 -0.1899 -0.2523
   45MOL    O5439742   6.993   7.500   2.025  0.0754  0.6153  0.4290
   45MOL    O5539743   6.863   7.435   1.818  0.2105  0.6551 -0.2322
   45MOL    C5639744   7.057   7.269   1.917 -0.1746 -0.7086  0.2258
   45MOL    C5739745   7.114   7.211   2.028 -0.2383  0.3498 -0.2166
   45MOL    C5839746   7.185   7.088   2.015  1.2495  1.0098 -0.1703
   45MOL    C5939747   7.212   7.045   1.882 -0.1220 -0.6841 -0.1792
   45MOL    C6039748   7.176   7.116   1.763 -0.3943  0.2132 -1.1220
   45MOL    C6139749   7.091   7.223   1.785 -0.5561 -1.0519 -0.4521
   45MOL    O6239750   7.281   6.928   1.852  0.4168  0.3734 -0.3103
   45MOL    C6339751   7.234   6.813   1.911 -0.3641 -0.3286 -0.1820
   45MOL    C6439752   7.316   6.733   1.995 -0.4474  0.4512 -0.2809
   45MOL    C6539753   7.265   6.628   2.069  1.0491  0.1719 -0.0840
   45MOL    C6639754   7.131   6.586   2.051 -0.1090 -0.4746 -0.2805
   45MOL    C6739755   7.060   6.657   1.956 -0.3236  0.3076 -0.3740
   45MOL    C6839756   7.111   6.760   1.877  0.2180  0.1325 -0.0174
   45MOL    C6939757   7.059   6.494   2.147  0.2966  0.1319 -0.0827
   45MOL    C7039758   7.018   6.365   2.111  0.6698 -0.0559  0.4162
   45MOL    C7139759   6.959   6.278   2.209 -0.2534 -0.3573  0.0233
   45MOL    C7239760   6.922   6.329   2.335 -0.8148 -0.0982 -0.6447
   45MOL    C7339761   6.966   6.459   2.370 -0.1285 -0.3991  0.2395
   45MOL    C7439762   7.033   6.539   2.274  0.3415 -0.3070 -0.1316
   45MOL    O7539763   6.852   6.253   2.429 -0.0077 -0.5176  0.2716
   45MOL    H7639764   6.521   7.436   2.216 -2.2331 -0.4102 -2.0950
   45MOL    H7739765   6.710   7.515   2.072 -0.8583  0.2753  1.7440
   45MOL    H7839766   6.864   7.112   2.044  1.3479  1.0001  0.9271
   45MOL    H7939767   6.684   7.045   2.207 -0.1763  0.8238  0.4642
   45MOL    H8039768   7.087   7.252   2.125 -0.0475 -0.9661  0.3995
   45MOL    H8139769   7.205   7.020   2.096 -1.7791  1.2228  0.8184
   45MOL    H8239770   7.211   7.096   1.663 -0.3232  0.9442 -1.2447
   45MOL    H8339771   7.059   7.287   1.705  1.1907  0.0923 -0.2624
   45MOL    H8439772   7.412   6.771   2.027  1.0617 -1.5247 -2.2909
   45MOL    H8539773   7.326   6.593   2.151  0.6009  0.6418  0.4525
   45MOL    H8639774   6.953   6.643   1.949 -0.5421  1.3605  0.4962
   45MOL    H8739775   7.055   6.817   1.804  1.9947  1.1134 -0.6437
   45MOL    H8839776   7.044   6.335   2.010 -1.3777 -1.0322  0.1468
   45MOL    H8939777   6.935   6.176   2.184  0.0219 -0.7397  1.2758
   45MOL    H9039778   6.931   6.497   2.465 -3.0999  2.0913 -1.7475
   45MOL    H9139779   7.076   6.633   2.308 -1.0584  0.2859  0.0352
   45MOL    C9239780   6.760   6.313   2.512  0.4868  0.3545 -0.4354
   45MOL    C9339781   6.779   6.333   2.652 -0.5065  0.6741 -0.4537
   45MOL    C9439782   6.680   6.378   2.737  0.1111 -0.0561 -0.2922
   45MOL    C9539783   6.548   6.404   2.679 -0.3057 -0.6143  0.9452
   45MOL    C9639784   6.525   6.384   2.543  0.2574  0.3195  0.1747
   45MOL    C9739785   6.634   6.342   2.459 -0.0048  0.1681  0.0876
   45MOL    S9839786   6.415   6.467   2.783  0.0406 -0.2220  0.3537
   45MOL    O9939787   6.311   6.527   2.696 -0.3356 -0.0786 -0.1733
   45MOL   O10039788   6.482   6.551   2.885 -0.3052 -0.0520  0.3312
   45MOL   C10139789   6.344   6.329   2.881 -0.3299 -0.5972 -0.1085
   45MOL   C10239790   6.428   6.224   2.924  0.0123 -0.0429 -0.2488
   45MOL   C10339791   6.378   6.124   3.001  0.0236  0.4485  0.1475
   45MOL   C10439792   6.249   6.128   3.055 -0.2782  0.1298  0.0845
   45MOL   C10539793   6.158   6.232   3.017 -0.5584  0.7940 -0.5001
   45MOL   C10639794   6.209   6.334   2.929 -1.6783 -0.3688  0.2041
   45MOL   O10739795   6.215   6.033   3.149  0.2246 -0.0990  0.3143
   45MOL   C10839796   6.172   5.915   3.090 -0.0343  0.2532 -0.5907
   45MOL   C10939797   6.038   5.886   3.055 -0.6447 -0.6040 -0.6379
   45MOL   C11039798   5.996   5.762   2.997 -0.5175 -0.4879 -0.6790
   45MOL   C11139799   6.090   5.670   2.964  0.3084 -0.2292  0.4624
   45MOL   C11239800   6.226   5.688   3.013 -0.0779  0.0365 -0.6387
   45MOL   C11339801   6.268   5.814   3.063  0.3401 -0.3883 -0.4496
   45MOL   C11439802   6.063   5.552   2.877  0.2584  0.3785 -0.5223
   45MOL   C11539803   5.951   5.471   2.905  0.3021  1.0328  0.7845
   45MOL   C11639804   5.923   5.357   2.827  0.3891 -0.7049  0.5176
   45MOL   C11739805   5.997   5.335   2.710  0.8393  0.5189  0.5133
   45MOL   C11839806   6.111   5.409   2.686 -0.1168 -0.8980  0.4944
   45MOL   C11939807   6.144   5.515   2.772  0.2103  0.3784  0.5806
   45MOL   O12039808   5.957   5.242   2.617  0.7344 -0.3792  0.0103
   45MOL   H12139809   6.870   6.295   2.698 -2.1897 -2.9673  0.0736
   45MOL   H12239810   6.698   6.401   2.841 -1.6933 -0.4380  0.1324
   45MOL   H12339811   6.429   6.404   2.498  1.4851 -0.0689 -2.7560
   45MOL   H12439812   6.618   6.334   2.352 -0.6668 -1.0195  0.2727
   45MOL   H12539813   6.533   6.225   2.896 -0.0978 -1.0703 -0.7249
   45MOL   H12639814   6.447   6.047   3.034 -2.1846 -1.7051 -0.1478
   45MOL   H12739815   6.062   6.243   3.065  0.3952  1.4486  1.2946
   45MOL   H12839816   6.151   6.420   2.902 -1.8334 -0.7683 -0.7519
   45MOL   H12939817   5.958   5.955   3.077  0.8806  0.9228  0.2212
   45MOL   H13039818   5.898   5.744   2.955 -0.6399 -0.8317 -0.2471
   45MOL   H13139819   6.293   5.605   2.994 -0.3884 -0.4987  0.5933
   45MOL   H13239820   6.371   5.816   3.094 -1.4758  0.2894  6.3906
   45MOL   H13339821   5.892   5.488   2.994 -0.2586 -0.8130  0.7966
   45MOL   H13439822   5.832   5.300   2.839  0.2216 -0.2587  1.3322
   45MOL   H13539823   6.154   5.394   2.588  1.6031 -3.6565  1.6123
   45MOL   H13639824   6.227   5.578   2.742  1.3587 -1.4622 -0.2085
   45MOL   C13739825   5.970   5.111   2.651  1.0839 -0.7228  0.1781
   45MOL   C13839826   6.093   5.045   2.638 -0.0208 -0.0378  1.3045
   45MOL   C13939827   6.098   4.908   2.665 -0.4256 -0.4726  0.1372
   45MOL   C14039828   5.984   4.846   2.720  0.4411  0.1469 -0.1724
   45MOL   C14139829   5.862   4.914   2.739 -0.1332  0.6515 -0.0220
   45MOL   C14239830   5.853   5.051   2.702  0.5487  0.1290  0.1906
   45MOL   S14339831   5.999   4.670   2.740 -0.5044 -0.5343  0.0759
   45MOL   O14439832   5.946   4.643   2.876 -0.1260  0.5371 -0.2627
   45MOL   O14539833   6.135   4.627   2.701  0.6191 -0.1356  0.5727
   45MOL   C14639834   5.894   4.599   2.610 -0.0580  0.2325 -0.8892
   45MOL   C14739835   5.949   4.522   2.505  0.4839  0.2959  0.0577
   45MOL   C14839836   5.865   4.465   2.408  0.1532  0.2167 -0.0070
   45MOL   C14939837   5.729   4.490   2.419  0.8127  0.9173  0.3187
   45MOL   C15039838   5.667   4.560   2.526  0.6076 -0.2240 -1.0529
   45MOL   C15139839   5.748   4.618   2.625  0.2624  0.2731 -0.1595
   45MOL   O15239840   5.653   4.424   2.324  0.1694 -0.1504 -0.3790
   45MOL   C15339841   5.612   4.303   2.358 -0.0852  0.4248  0.4323
   45MOL   C15439842   5.641   4.197   2.271 -0.3559  0.0055  0.6421
   45MOL   C15539843   5.597   4.062   2.295 -0.2001  0.3243  0.5188
   45MOL   C15639844   5.519   4.037   2.408 -0.1098 -0.5000  0.4720
   45MOL   C15739845   5.483   4.145   2.492  0.3170 -0.1499 -0.0442
   45MOL   C15839846   5.534   4.279   2.471  0.8789  0.0760  0.2341
   45MOL   C15939847   5.445   3.912   2.429 -0.0337 -0.9687 -0.0793
   45MOL   C16039848   5.388   3.844   2.313  0.4411 -0.0525 -0.7520
   45MOL   C16139849   5.317   3.724   2.337 -0.0029 -0.4746 -0.0211
   45MOL   C16239850   5.298   3.667   2.466  1.4610  0.5640 -1.0557
   45MOL   C16339851   5.358   3.739   2.569 -0.5919 -0.1599  0.4275
   45MOL   C16439852   5.429   3.862   2.556  0.4135  0.5890 -0.2582
   45MOL   O16539853   5.247   3.540   2.497  0.4716 -0.2071  0.2025
   45MOL   H16639854   6.172   5.102   2.592 -0.8678  0.2426  0.1646
   45MOL   H16739855   6.190   4.854   2.647  0.9989  2.7041 -2.5823
   45MOL   H16839856   5.792   4.862   2.803 -0.1209  1.6014  0.7844
   45MOL   H16939857   5.758   5.101   2.713  0.5332  0.1048  0.1692
   45MOL   H17039858   6.054   4.499   2.495  0.6330  1.5372 -1.4965
   45MOL   H17139859   5.907   4.414   2.323 -0.5719  0.9628 -0.8090
   45MOL   H17239860   5.562   4.576   2.545  1.2560  0.9253  2.0255
   45MOL   H17339861   5.706   4.673   2.708  0.3757 -0.5001  0.4230
   45MOL   H17439862   5.687   4.225   2.177  1.3721 -0.1491  1.4105
   45MOL   H17539863   5.619   3.995   2.213  1.0859  3.5686 -1.8834
   45MOL   H17639864   5.411   4.128   2.571 -0.0845  0.5004 -0.2627
   45MOL   H17739865   5.501   4.354   2.541 -1.4546  1.4259 -2.1947
   45MOL   H17839866   5.408   3.897   2.221  0.1598  1.8386  0.2543
   45MOL   H17939867   5.282   3.668   2.252 -0.8125 -0.9201  0.6066
   45MOL   H18039868   5.347   3.694   2.666 -0.2361 -0.9950  0.0919
   45MOL   H18139869   5.473   3.903   2.645 -1.6500 -2.1886  2.1128
   45MOL   C18239870   5.192   3.470   2.397  0.4139  0.2810  0.0691
   45MOL   C18339871   5.052   3.467   2.375 -0.6439 -0.5083 -0.1201
   45MOL   C18439872   5.003   3.390   2.272  0.3937 -0.8961 -0.1516
   45MOL   C18539873   5.088   3.333   2.182  0.7030  0.7839  0.6403
   45MOL   C18639874   5.225   3.335   2.205 -0.2160 -0.4138 -0.3344
   45MOL   C18739875   5.281   3.399   2.315  0.7010  0.1021  0.4557
   45MOL   S18839876   5.011   3.251   2.038 -0.4633 -0.1095  0.1071
   45MOL   O18939877   5.103   3.261   1.927  0.7638  0.2036 -0.1530
   45MOL   O19039878   4.876   3.308   2.028  0.0836 -0.2486 -0.3631
   45MOL   C19139879   5.000   3.082   2.076  0.1395 -0.8718 -0.3739
   45MOL   C19239880   5.024   2.988   1.973 -0.3188  0.7478  0.2633
   45MOL   C19339881   5.027   2.850   2.007  1.3246 -0.8060 -0.6487
   45MOL   C19439882   5.000   2.811   2.141 -0.2457  0.2698  0.1880
   45MOL   C19539883   4.973   2.908   2.240 -0.6042 -0.3799 -0.0742
   45MOL   C19639884   4.976   3.042   2.207  0.1191  0.5273 -0.1647
   45MOL   O19739885   5.002   2.671   2.170  0.3454  0.5676  0.1186
   45MOL   C19839886   4.904   2.622   2.256  0.2152  0.0715  0.1879
   45MOL   C19939887   4.768   2.625   2.221  0.3506 -0.2141  0.1179
   45MOL   C20039888   4.686   2.538   2.293 -0.0257  0.3011 -0.2755
   45MOL   C20139889   4.725   2.466   2.406  0.4239 -0.5237 -0.1697
   45MOL   C20239890   4.859   2.485   2.449  0.5236 -0.0890  0.1528
   45MOL   C20339891   4.947   2.557   2.369 -0.5545 -0.1962  0.4855
   45MOL   C20439892   4.626   2.384   2.486 -0.2535 -0.1360 -0.0258
   45MOL   C20539893   4.521   2.308   2.426  0.3774 -0.0173 -0.2122
   45MOL   C20639894   4.428   2.247   2.511 -0.6609 -0.2456 -0.0122
   45MOL   C20739895   4.443   2.240   2.649 -0.1683 -0.3704  0.0594
   45MOL   C20839896   4.555   2.301   2.705  0.3736  0.1409 -0.2997
   45MOL   C20939897   4.649   2.377   2.627 -0.7258 -0.5112 -0.1503
   45MOL   O21039898   4.347   2.176   2.725  0.1653 -0.0613 -1.0543
   45MOL   H21139899   4.992   3.511   2.454 -1.8476 -2.3230  0.0006
   45MOL   H21239900   4.897   3.374   2.256  0.5581 -2.3855  0.1419
   45MOL   H21339901   5.286   3.290   2.128 -0.8389  0.8958 -1.6261
   45MOL   H21439902   5.386   3.384   2.339 -0.1250 -0.1192  4.1835
   45MOL   H21539903   5.039   3.007   1.868  0.2061  1.3765  0.4505
   45MOL   H21639904   5.045   2.781   1.926 -0.5586  0.7421 -2.4633
   45MOL   H21739905   4.955   2.878   2.342 -1.5564 -3.1846 -1.0315
   45MOL   H21839906   4.966   3.117   2.285 -0.3389  0.0111  0.2812
   45MOL   H21939907   4.733   2.671   2.130 -0.2754  0.4827  0.7113
   45MOL   H22039908   4.584   2.534   2.256 -1.1348 -1.2445  2.8306
   45MOL   H22139909   4.906   2.435   2.533  1.9093  3.0821  1.3221
   45MOL   H22239910   5.048   2.551   2.404  0.6069  1.1654 -2.4345
   45MOL   H22339911   4.492   2.304   2.322  0.0109 -0.0700 -0.1111
   45MOL   H22439912   4.347   2.197   2.459 -0.2715 -1.6971  0.7460
   45MOL   H22539913   4.569   2.295   2.812 -2.3851 -2.1664 -0.0337
   45MOL   H22639914   4.728   2.434   2.673  1.5866 -0.7816 -3.6496
   45MOL   C22739915   4.353   2.170   2.860 -0.5898  0.7361 -0.5604
   45MOL   C22839916   4.266   2.250   2.931 -0.0449  1.1824  0.4914
   45MOL   C22939917   4.265   2.253   3.070 -0.0532  0.4510 -0.1221
   45MOL   C23039918   4.357   2.180   3.146  0.4465  0.3117 -0.1337
   45MOL   C23139919   4.450   2.093   3.078  0.3374 -0.0519  0.7644
   45MOL   C23239920   4.441   2.083   2.934  0.1396 -0.0221  0.3804
   45MOL   S23339921   4.353   2.205   3.321 -0.0253  0.1027 -0.1977
   45MOL   O23439922   4.390   2.085   3.390 -0.3237  0.6880  0.1475
   45MOL   O23539923   4.220   2.261   3.353 -0.0981  0.3759 -0.2062
   45MOL   C23639924   4.475   2.324   3.359 -0.2238 -0.7007 -0.0558
   45MOL   C23739925   4.570   2.369   3.265  0.0517 -0.6676  0.4786
   45MOL   C23839926   4.664   2.465   3.307 -0.5686 -0.5645  0.2291
   45MOL   C23939927   4.675   2.510   3.438 -0.6773  0.1472 -0.0468
   45MOL   C24039928   4.579   2.467   3.532  0.0281  0.0049 -0.4918
   45MOL   C24139929   4.476   2.374   3.491  0.1957  0.2273 -0.0840
   45MOL   O24239930   4.770   2.595   3.472 -0.4095  0.0531  0.1377
   45MOL   C24339931   4.891   2.542   3.510  0.0446 -0.1226 -0.2744
   45MOL   C24439932   4.992   2.635   3.537 -0.1108 -0.4729  0.3480
   45MOL   C24539933   5.117   2.585   3.571  0.0929 -0.4919  0.2428
   45MOL   C24639934   5.152   2.450   3.570 -0.4310 -0.0602  0.3626
   45MOL   C24739935   5.055   2.359   3.538 -0.0606  0.0578  0.5019
   45MOL   C24839936   4.924   2.405   3.515  0.1964  0.6650 -0.3839
   45MOL   C24939937   5.284   2.405   3.622 -0.0821  0.7548 -0.0066
   45MOL   C25039938   5.309   2.288   3.701 -0.5854 -0.3158 -0.6628
   45MOL   C25139939   5.435   2.255   3.748 -0.7784  0.2902  0.2056
   45MOL   C25239940   5.546   2.336   3.727  0.0507 -0.4382 -0.7383
   45MOL   C25339941   5.526   2.447   3.637  0.0700 -0.0693  0.6124
   45MOL   C25439942   5.397   2.473   3.580  0.1977  1.0283  0.8104
   45MOL   O25539943   5.665   2.313   3.794  0.1660  0.1748  0.3137
   45MOL   H25639944   4.201   2.313   2.872 -0.8585 -2.3486 -2.5693
   45MOL   H25739945   4.194   2.318   3.119 -0.6748 -1.0735  1.0502
   45MOL   H25839946   4.518   2.026   3.129 -0.7385 -1.2487  0.6504
   45MOL   H25939947   4.516   2.024   2.884  0.0917  0.3798 -0.1706
   45MOL   H26039948   4.568   2.339   3.161  1.4162 -1.2540  0.6117
   45MOL   H26139949   4.727   2.514   3.234 -2.2592 -0.0111 -0.8808
   45MOL   H26239950   4.595   2.506   3.632  0.0182  2.9850 -1.6140
   45MOL   H26339951   4.402   2.342   3.564  0.2913 -2.5275 -1.1425
   45MOL   H26439952   4.974   2.737   3.506  2.7105  0.3153  1.1189
   45MOL   H26539953   5.204   2.649   3.583  0.3254 -0.2845 -2.3334
   45MOL   H26639954   5.073   2.255   3.560 -0.4365 -0.0170  0.4602
   45MOL   H26739955   4.845   2.334   3.497 -0.2494 -0.1538  4.3946
   45MOL   H26839956   5.225   2.231   3.736  1.4522 -0.9574  3.5043
   45MOL   H26939957   5.456   2.170   3.811  1.1207 -0.2930 -1.1847
   45MOL   H27039958   5.605   2.512   3.604  0.9306 -1.0656  0.6775
   45MOL   H27139959   5.387   2.557   3.512 -0.3603  1.1420  1.0325
   45MOL   C27239960   5.748   2.230   3.722 -0.2155  0.3091  0.2972
   45MOL   C27339961   5.725   2.093   3.688 -0.5974 -0.0385  0.0203
   45MOL   C27439962   5.821   2.011   3.633 -0.1666  0.2687  0.8104
   45MOL   C27539963   5.951   2.060   3.613  1.1385  0.4871 -0.2951
   45MOL   C27639964   5.978   2.190   3.642  0.2232 -0.7797 -0.1916
   45MOL   C27739965   5.878   2.274   3.693 -0.4874 -0.3666 -0.2038
   45MOL   S27839966   6.074   1.958   3.545 -0.1419  0.0021 -0.0798
   45MOL   O27939967   6.172   1.931   3.652  0.1086 -0.0613  0.0339
   45MOL   O28039968   6.121   2.027   3.427  0.7017  0.0470 -0.1207
   45MOL   C28139969   5.998   1.801   3.495  0.1400 -0.0723  0.5838
   45MOL   C28239970   5.990   1.691   3.579 -0.0428 -0.1283 -0.3654
   45MOL   C28339971   5.939   1.567   3.533  0.1351 -0.7751  0.3306
   45MOL   C28439972   5.876   1.556   3.409  0.4924 -0.7892 -0.2377
   45MOL   C28539973   5.868   1.675   3.332 -0.4843 -0.3254  0.5037
   45MOL   C28639974   5.925   1.797   3.375  0.6334 -0.4009  1.3895
   45MOL   O28739975   5.834   1.434   3.355 -0.2984 -0.2354  0.4489
   45MOL   C28839976   5.925   1.366   3.276 -0.3551 -0.3582 -0.5279
   45MOL   C28939977   5.930   1.386   3.136 -0.5897 -0.4808  0.5339
   45MOL   C29039978   6.014   1.306   3.057 -0.7468 -0.0042  0.1670
   45MOL   C29139979   6.106   1.223   3.122  0.1088  0.6779  0.0972
   45MOL   C29239980   6.102   1.203   3.259 -0.3825  0.2993  0.0636
   45MOL   C29339981   6.005   1.271   3.334  0.0000 -0.4304 -0.3907
   45MOL   C29439982   6.199   1.150   3.034 -0.0297  0.0003 -0.0896
   45MOL   C29539983   6.340   1.165   3.051  0.1442 -0.6057 -0.5022
   45MOL   C29639984   6.424   1.112   2.955 -0.1558  0.4179  0.3427
   45MOL   C29739985   6.368   1.024   2.850  0.4260  0.5856 -0.3731
   45MOL   C29839986   6.227   0.992   2.858  0.1535 -0.3831 -0.7674
   45MOL   C29939987   6.143   1.054   2.942 -0.4935 -0.6817 -0.3391
   45MOL   O30039988   6.445   0.968   2.752 -0.4252  0.1398  0.3480
   45MOL   H30139989   5.629   2.049   3.707 -0.5631 -0.3646 -0.5642
   45MOL   H30239990   5.806   1.906   3.612  0.4713  0.3323 -0.0110
   45MOL   H30339991   6.081   2.219   3.632  0.2346  0.0201  1.9023
   45MOL   H30439992   5.900   2.376   3.723 -0.2668  0.1959 -2.2195
   45MOL   H30539993   6.024   1.706   3.680  0.3674  0.2312 -0.5583
   45MOL   H30639994   5.934   1.491   3.609  0.3190  0.4601  1.6012
   45MOL   H30739995   5.808   1.673   3.242  2.3550 -0.2726 -1.4557
   45MOL   H30839996   5.906   1.892   3.327 -0.6435 -1.2032  0.2755
   45MOL   H30939997   5.879   1.461   3.077 -1.8513 -0.8561  1.1165
   45MOL   H31039998   6.017   1.316   2.950 -0.1401 -0.7108  0.1187
   45MOL   H31139999   6.172   1.137   3.308  0.5811  1.3741  0.1590
   45MOL   H31240000   6.006   1.270   3.442 -1.4868 -1.0713 -0.3776
   45MOL   H31340001   6.374   1.233   3.127 -1.6317 -0.0314 -0.2144
   45MOL   H31440002   6.529   1.135   2.948  0.4903 -1.8183  2.0928
   45MOL   H31540003   6.189   0.930   2.778 -3.7427  0.5044  0.3105
   45MOL   H31640004   6.035   1.045   2.943 -0.4246 -1.6725 -0.9952
   45MOL   C31740005   6.533   0.877   2.802 -0.3070 -0.2775 -0.7541
   45MOL   C31840006   6.494   0.766   2.877 -0.3304  0.8372 -0.2908
   45MOL   C31940007   6.593   0.665   2.895  0.4856  0.8061 -0.2223
   45MOL   C32040008   6.731   0.682   2.871 -0.0331  0.4765 -0.0690
   45MOL   C32140009   6.773   0.801   2.804  0.0698  0.7198 -0.4244
   45MOL   C32240010   6.671   0.893   2.766 -0.9159  0.2844 -0.4572
   45MOL   S32340011   6.854   0.565   2.911  0.0126 -0.1451 -0.0741
   45MOL   O32440012   6.781   0.465   2.991 -0.3665  0.3278 -0.4188
   45MOL   O32540013   6.969   0.649   2.963 -0.5685 -0.3804 -0.4319
   45MOL   C32640014   6.896   0.490   2.758  0.1210 -0.0888 -0.6854
   45MOL   C32740015   6.833   0.520   2.642  1.2503  0.1538 -0.4436
   45MOL   C32840016   6.864   0.456   2.520  0.7006  0.2372  0.5928
   45MOL   C32940017   6.963   0.357   2.522 -0.0088 -0.3592 -0.2086
   45MOL   C33040018   7.030   0.331   2.639  0.2333 -0.1055 -0.4111
   45MOL   C33140019   6.993   0.391   2.759  0.0044 -0.5558 -0.6690
   45MOL   O33240020   6.993   0.285   2.409  0.3570  0.2676  0.5093
   45MOL   C33340021   7.028   0.339   2.289  0.8007 -0.8228  0.3867
   45MOL   C33440022   6.971   0.284   2.175  0.7069  0.1497 -0.2153
   45MOL   C33540023   7.009   0.332   2.046  0.4746 -0.1126  0.2122
   45MOL   C33640024   7.098   0.442   2.035  0.6775  0.1295  0.6894
   45MOL   C33740025   7.152   0.501   2.152  0.0892  0.6238 -0.7962
   45MOL   C33840026   7.122   0.444   2.276  0.1493  0.0726 -0.3031
   45MOL   C33940027   7.134   0.493   1.897  0.6361  0.2335  0.1754
   45MOL   C34040028   7.187   0.399   1.801 -0.2398  0.1164  0.1630
   45MOL   C34140029   7.236   0.445   1.677  0.3894 -0.4821  0.2277
   45MOL   C34240030   7.249   0.582   1.650 -0.8390 -0.3356  0.0065
   45MOL   C34340031   7.196   0.673   1.749 -0.1230  0.0436  0.3926
   45MOL   C34440032   7.149   0.630   1.868 -0.5342 -0.4292 -0.8536
   45MOL   O34540033   7.313   0.625   1.530 -0.9846 -0.2881  0.1772
   45MOL   H34640034   6.391   0.742   2.897 -0.0614  0.7192  0.9826
   45MOL   H34740035   6.556   0.574   2.940 -0.6696  0.8436 -1.0465
   45MOL   H34840036   6.875   0.829   2.783 -0.0361  1.6104  0.1959
   45MOL   H34940037   6.703   0.974   2.701 -0.7092 -0.6717 -1.5660
   45MOL   H35040038   6.764   0.603   2.633 -0.0674 -0.8694 -0.0282
   45MOL   H35140039   6.803   0.481   2.434 -0.1216  1.3882  1.4833
   45MOL   H35240040   7.107   0.255   2.644  0.5640  0.2986  1.0334
   45MOL   H35340041   7.039   0.369   2.854  1.1220 -1.1460 -1.3367
   45MOL   H35440042   6.900   0.203   2.188  0.2079  0.7818  1.0747
   45MOL   H35540043   6.961   0.282   1.963  0.6485 -0.0843  0.0965
   45MOL   H35640044   7.229   0.575   2.139  1.0124 -0.0404  0.7600
   45MOL   H35740045   7.159   0.488   2.367 -1.4424  0.0227  0.3843
   45MOL   H35840046   7.203   0.296   1.829  1.0282 -0.2010 -1.6257
   45MOL   H35940047   7.261   0.366   1.608 -0.2695  1.3819 -2.2194
   45MOL   H36040048   7.189   0.778   1.724 -2.0535  0.1252  1.2038
   45MOL   H36140049   7.108   0.699   1.941  3.2555  0.0086  0.9392
   45MOL   C36240050   7.253   0.695   1.435  0.0645  0.3928  0.1138
   45MOL   C36340051   7.331   0.728   1.323  0.0316  0.5569  0.3696
   45MOL   C36440052   7.274   0.807   1.221 -0.3326  1.3290 -0.3223
   45MOL   C36540053   7.142   0.857   1.229 -0.7628 -0.5239 -0.0192
   45MOL   C36640054   7.066   0.831   1.342 -0.1222 -0.0058 -0.4535
   45MOL   C36740055   7.118   0.742   1.441 -0.1607 -0.0994 -0.8970
   45MOL   S36840056   7.084   0.976   1.109 -0.0693  0.3057  0.0580
   45MOL   O36940057   6.937   0.957   1.102 -0.1265  0.2761  0.1314
   45MOL   O37040058   7.159   0.955   0.985 -0.4471 -1.1897 -1.0447
   45MOL   C37140059   7.100   1.156   1.155  0.0557  0.4241 -0.2027
   45MOL   C37240060   7.196   1.231   1.080  0.1915 -0.2053  0.2907
   45MOL   C37340061   7.205   1.372   1.101  0.0004 -0.1584  0.1136
   45MOL   C37440062   7.114   1.432   1.191  1.6100 -0.1157 -0.5419
   45MOL   C37540063   7.022   1.352   1.264 -0.1439 -0.3792  0.2873
   45MOL   C37640064   7.016   1.213   1.246  0.3907 -0.1128  0.1720
   45MOL   O37740065   7.117   1.571   1.204  0.0336 -0.1353 -0.4433
   45MOL   C37840066   7.120   1.637   1.320 -0.4430  0.9047 -0.0359
   45MOL   C37940067   7.002   1.653   1.395 -0.9981 -0.8387  0.3658
   45MOL   C38040068   7.008   1.711   1.522 -0.1076  0.2923 -0.2357
   45MOL   C38140069   7.131   1.760   1.576 -0.6721 -0.3700 -0.1594
   45MOL   C38240070   7.248   1.743   1.500  0.0975  0.1508  0.0319
   45MOL   C38340071   7.241   1.686   1.368 -0.0053  0.0324  0.1396
   45MOL   C38440072   7.110   1.811   1.715  0.3827 -0.7529 -0.8415
   45MOL   C38540073   6.992   1.891   1.746 -0.7700 -0.3003 -0.1579
   45MOL   C38640074   6.957   1.929   1.884 -0.0725 -0.0523  0.1769
   45MOL   C38740075   7.038   1.879   1.994  0.0803 -0.6393  0.0668
   45MOL   C38840076   7.145   1.803   1.964  0.2499  0.7394  0.1435
   45MOL   C38940077   7.182   1.770   1.831  0.4162  0.7190 -0.9376
   45MOL   O39040078   6.995   1.914   2.121  0.0274 -0.1666 -0.4122
   45MOL   H39140079   7.431   0.689   1.312 -0.6001 -1.2668  0.9106
   45MOL   H39240080   7.343   0.840   1.144  0.3541 -0.3034 -0.4293
   45MOL   H39340081   6.968   0.871   1.365 -0.3068  0.1950 -1.5500
   45MOL   H39440082   7.050   0.710   1.518 -0.3958  0.7533 -0.7408
   45MOL   H39540083   7.271   1.182   1.020  1.2731  0.4837  1.0573
   45MOL   H39640084   7.282   1.435   1.058 -0.1284 -1.4092 -2.0202
   45MOL   H39740085   6.954   1.393   1.338 -0.0353  0.7156 -0.1979
   45MOL   H39840086   6.944   1.148   1.291  1.0569 -0.6584  0.4544
   45MOL   H39940087   6.906   1.619   1.360 -0.0714 -1.0318 -2.0901
   45MOL   H40040088   6.911   1.732   1.564 -0.3591  2.5865 -1.8952
   45MOL   H40140089   7.343   1.778   1.537  0.3604 -1.0641  0.5317
   45MOL   H40240090   7.330   1.677   1.307 -0.2737 -0.6349 -0.1621
   45MOL   H40340091   6.925   1.925   1.668 -0.5012 -0.7346 -0.5800
   45MOL   H40440092   6.871   1.987   1.913 -0.3970 -1.4501  2.1685
   45MOL   H40540093   7.207   1.759   2.041  2.4141  0.5254 -1.6583
   45MOL   H40640094   7.266   1.704   1.813  0.8385  1.0507 -0.1753
   45MOL   C40740095   6.885   1.859   2.177  0.5544  0.3980  0.2642
   45MOL   C40840096   6.843   1.912   2.302 -0.4905  0.1570  0.3720
   45MOL   C40940097   6.723   1.862   2.359  0.2040  0.4398  0.4783
   45MOL   C41040098   6.649   1.754   2.295 -0.1041 -0.0870 -0.2195
   45MOL   C41140099   6.701   1.688   2.181  0.0808  0.3284  0.1717
   45MOL   C41240100   6.816   1.747   2.116 -0.5253 -0.1797 -0.1985
   45MOL   S41340101   6.490   1.695   2.355  0.1403 -0.0848  0.3575
   45MOL   O41440102   6.389   1.754   2.263 -0.3956  0.0732 -0.3319
   45MOL   O41540103   6.470   1.725   2.496 -0.5322 -0.2564 -0.5201
   45MOL   C41640104   6.491   1.515   2.349 -0.1123 -0.4051 -1.0252
   45MOL   C41740105   6.385   1.444   2.293  0.3793 -0.4162  0.3677
   45MOL   C41840106   6.385   1.303   2.291  0.4850  0.1498 -0.2396
   45MOL   C41940107   6.493   1.231   2.343  0.1076  0.4250 -0.1950
   45MOL   C42040108   6.601   1.310   2.395  0.2981  0.6932 -0.3025
   45MOL   C42140109   6.600   1.447   2.397  0.7022 -0.2108 -0.7905
   45MOL   O42240110   6.503   1.095   2.338 -0.2056  1.0356 -0.1471
   45MOL   C42340111   6.393   1.026   2.284 -0.7588 -0.2734  0.0878
   45MOL   C42440112   6.371   1.020   2.148 -0.2044 -0.0309  0.1779
   45MOL   C42540113   6.261   0.937   2.100 -0.2751 -0.2560 -0.2355
   45MOL   C42640114   6.162   0.890   2.186  0.2799  0.1934  1.1428
   45MOL   C42740115   6.181   0.914   2.323 -0.5826  0.0733 -0.2577
   45MOL   C42840116   6.305   0.963   2.372 -0.5012  0.8600  0.2686
   45MOL   C42940117   6.037   0.826   2.128  0.4707 -0.2775 -0.5905
   45MOL   C43040118   5.933   0.786   2.216  0.3298 -0.0433  0.6339
   45MOL   C43140119   5.824   0.714   2.169  0.8923 -0.8088 -0.1305
   45MOL   C43240120   5.804   0.690   2.030  0.2993  0.1610 -0.7261
   45MOL   C43340121   5.903   0.725   1.941  0.4843 -0.2180 -0.1371
   45MOL   C43440122   6.013   0.796   1.987 -0.0380  0.6194 -1.4675
   45MOL   O43540123   5.700   0.613   1.982 -0.7359  0.1126  0.6533
   45MOL   H43640124   6.908   1.975   2.362 -1.1962 -0.7177  2.1077
   45MOL   H43740125   6.678   1.903   2.448 -0.5598 -0.8665  0.7123
   45MOL   H43840126   6.655   1.596   2.149  0.1290  0.3527  0.0337
   45MOL   H43940127   6.852   1.708   2.022  0.8904 -2.7383  1.3189
   45MOL   H44040128   6.304   1.493   2.242  1.8518 -0.9902 -2.6903
   45MOL   H44140129   6.298   1.249   2.255  0.9513 -1.4600  1.0171
   45MOL   H44240130   6.691   1.260   2.428 -0.8024 -0.1331  1.5032
   45MOL   H44340131   6.691   1.486   2.440  1.5411 -0.1581 -2.5929
   45MOL   H44440132   6.432   1.074   2.078  3.4568 -1.6770  1.9852
   45MOL   H44540133   6.265   0.912   1.995  2.1233 -1.2274  0.0539
   45MOL   H44640134   6.106   0.885   2.395  0.3473 -0.9024  0.3397
   45MOL   H44740135   6.321   0.956   2.479  1.9470 -0.3400 -0.1298
   45MOL   H44840136   5.944   0.795   2.323 -1.0765 -0.1703  0.7938
   45MOL   H44940137   5.757   0.684   2.248  1.5960 -0.1274  0.7346
   45MOL   H45040138   5.892   0.706   1.835  1.1833 -1.0683 -0.0651
   45MOL   H45140139   6.092   0.818   1.918  0.4199 -2.1169 -1.8725
   45MOL   C45240140   5.582   0.621   2.045  0.5659  0.3682 -0.4524
   45MOL   C45340141   5.546   0.527   2.140  0.6657  0.1561 -0.1024
   45MOL   C45440142   5.414   0.515   2.194  0.5563  0.4810 -0.9978
   45MOL   C45540143   5.316   0.606   2.156  0.8991  0.5183  0.0353
   45MOL   C45640144   5.347   0.698   2.051  0.1678  0.1923 -0.0505
   45MOL   C45740145   5.478   0.699   1.997  0.4483 -0.2097 -0.6125
   45MOL   S45840146   5.149   0.588   2.216 -0.2044 -0.0031 -0.5916
   45MOL   O45940147   5.084   0.721   2.226  0.0621 -0.2581 -1.1235
   45MOL   O46040148   5.160   0.510   2.339 -0.1587 -0.2003  0.0030
   45MOL   C46140149   5.065   0.496   2.087  0.4798 -0.7384 -0.2663
   45MOL   C46240150   5.079   0.360   2.081  0.1386  0.2862 -0.0267
   45MOL   C46340151   5.011   0.294   1.979  0.1090  0.3988 -0.8873
   45MOL   C46440152   4.921   0.360   1.890  0.2136 -0.0050 -0.0113
   45MOL   C46540153   4.915   0.500   1.896 -0.4782 -0.4731  0.1261
   45MOL   C46640154   4.993   0.568   1.992  0.2851 -0.5321  0.0200
   45MOL   O46740155   4.856   0.297   1.788 -0.1534 -0.1363 -0.4118
   45MOL   C46840156   4.747   0.218   1.816 -0.0289 -0.2738 -0.1407
   45MOL   C46940157   4.745   0.085   1.761  0.0229 -0.7023 -0.0272
   45MOL   C47040158   4.622   0.014   1.758 -0.0129 -0.1122 -0.1357
   45MOL   C47140159   4.508   0.077   1.799  0.1373  0.2481  0.3921
   45MOL   C47240160   4.503   0.208   1.858 -0.8207 -0.1408  0.3973
   45MOL   C47340161   4.626   0.282   1.860  0.5266 -0.1383 -0.4530
   45MOL   C47440162   4.379   0.008   1.771  0.1681  0.1016  0.0690
   45MOL   C47540163   4.355   8.236   1.812  0.1029  0.6142  0.3768
   45MOL   C47640164   4.240   8.167   1.781 -0.0105 -0.3414  0.6607
   45MOL   C47740165   4.139   8.232   1.707 -0.1313 -0.3204  0.1788
   45MOL   C47840166   4.156   8.359   1.657  0.3761 -0.4395 -0.0687
   45MOL   C47940167   4.278   0.063   1.692  0.1279  0.8850 -0.2563
   45MOL   O48040168   4.027   8.154   1.673 -0.4119 -0.0662 -0.2314
   45MOL   H48140169   5.621   0.454   2.167  0.8801  0.1883 -0.6008
   45MOL   H48240170   5.383   0.443   2.268  1.7625  0.0951 -0.8545
   45MOL   H48340171   5.273   0.761   2.004  2.0593  1.5065 -1.3218
   45MOL   H48440172   5.513   0.764   1.918  0.5334 -0.4006 -0.7315
   45MOL   H48540173   5.149   0.309   2.145  0.8240  0.4694 -0.6178
   45MOL   H48640174   5.016   0.187   1.964 -0.8860  0.2759 -0.3857
   45MOL   H48740175   4.857   0.558   1.826 -0.1972  2.2053  2.0371
   45MOL   H48840176   4.999   0.676   1.986 -0.7536 -0.4536  0.3461
   45MOL   H48940177   4.838   0.041   1.728 -1.2615 -1.0084 -3.5339
   45MOL   H49040178   4.619   8.282   1.713  3.6983  0.8401 -2.7714
   45MOL   H49140179   4.405   0.251   1.870 -2.1549 -2.8440 -0.4060
   45MOL   H49240180   4.625   0.386   1.886 -0.2136 -0.2272 -0.0844
   45MOL   H49340181   4.416   8.182   1.883  0.6926 -0.9312 -1.2545
   45MOL   H49440182   4.226   8.070   1.826  0.1212 -1.2744 -1.2914
   45MOL   H49540183   4.085   0.033   1.586  2.0621 -0.6998 -1.9670
   45MOL   H49640184   4.275   0.165   1.655  1.5308  0.1821 -2.3821
   45MOL   C49740185   4.020   8.093   1.548 -0.5997  0.7008  0.4660
   45MOL   C49840186   3.897   8.078   1.480 -0.5992 -0.2431  0.2579
   45MOL   C49940187   3.893   8.020   1.356 -0.1169  0.1330 -0.4116
   45MOL   C50040188   4.006   7.974   1.290 -0.3688 -0.1203  0.0650
   45MOL   C50140189   4.132   7.979   1.354  0.0062 -0.0971  0.4549
   45MOL   C50240190   4.135   8.040   1.486  0.7168  0.7776 -0.1174
   45MOL   S50340191   4.002   7.892   1.133  0.1087 -0.7107  0.3460
   45MOL   O50440192   3.947   7.755   1.152 -0.1658  0.0149  0.0043
   45MOL   O50540193   4.141   7.913   1.082 -0.0194 -0.2534  0.4824
   45MOL   C50640194   3.884   7.992   1.035 -0.1436  0.3155  0.1967
   45MOL   C50740195   3.760   7.941   0.991 -0.1492 -0.3106  0.5393
   45MOL   C50840196   3.678   8.019   0.914 -0.3880  0.2012 -0.4092
   45MOL   C50940197   3.716   8.149   0.880 -0.3238 -0.3869 -0.4980
   45MOL   C51040198   3.833   8.206   0.934 -0.3955  0.1218  0.6384
   45MOL   C51140199   3.915   8.124   1.013 -0.2840  0.2295 -0.7966
   45MOL   O51240200   3.630   8.233   0.803 -0.2810 -0.4949 -0.0642
   45MOL   C51340201   3.502   8.248   0.840 -0.2455  0.1930  0.5832
   45MOL   C51440202   3.405   8.215   0.747 -0.0653 -0.4284  0.9577
   45MOL   C51540203   3.270   8.213   0.783  0.1662  0.2408  0.2803
   45MOL   C51640204   3.229   8.244   0.909 -0.0296 -0.4144  0.2681
   45MOL   C51740205   3.325   8.289   1.002 -0.4287  0.2912 -0.1738
   45MOL   C51840206   3.462   8.291   0.972  0.3049 -0.0350  0.0796
   45MOL   C51940207   3.090   8.222   0.957 -0.0827 -0.8704  0.5148
   45MOL   C52040208   2.987   8.276   0.883 -0.0612 -0.0875  0.3731
   45MOL   C52140209   2.851   8.250   0.919 -0.2605 -0.7820  0.2568
   45MOL   C52240210   2.826   8.194   1.045  0.3578 -0.4073 -0.0787
   45MOL   C52340211   2.932   8.145   1.129  0.4444  0.3095 -0.5277
   45MOL   C52440212   3.062   8.153   1.080  0.2107 -0.2018 -0.3389
   45MOL   O52540213   2.690   8.185   1.089  0.6962 -0.3858  0.2557
   45MOL   H52640214   3.810   8.113   1.534 -1.5642 -2.1117 -0.0443
   45MOL   H52740215   3.799   8.017   1.303 -0.1719  0.6613 -0.3491
   45MOL   H52840216   4.216   7.925   1.313  0.2719  1.5371 -1.2133
   45MOL   H52940217   4.228   8.046   1.542  0.5670  0.9549  0.1109
   45MOL   H53040218   3.727   7.840   1.009  2.5108 -1.3395 -0.1916
   45MOL   H53140219   3.590   7.974   0.869 -0.9521 -1.5072  2.2810
   45MOL   H53240220   3.871   8.306   0.918 -0.1688 -0.1495 -0.5542
   45MOL   H53340221   4.010   8.167   1.040 -0.0345 -0.5751 -0.3858
   45MOL   H53440222   3.431   8.178   0.649 -1.0382  1.7037 -0.1477
   45MOL   H53540223   3.200   8.167   0.715 -0.5558 -1.6414  2.2338
   45MOL   H53640224   3.279   8.312   1.097 -0.8338 -2.2023  0.2616
   45MOL   H53740225   3.532   8.315   1.051  0.0668 -1.5049  0.7664
   45MOL   H53840226   3.001   8.322   0.786  3.2377 -0.6575  0.5284
   45MOL   H53940227   2.766   8.281   0.860 -2.1291 -0.3494  3.0916
   45MOL   H54040228   2.924   8.083   1.217  4.1941  0.5568  0.0617
   45MOL   H54140229   3.143   8.095   1.122 -1.1440 -0.6261  1.7867
   45MOL   C54240230   2.609   8.089   1.038  0.3793 -0.6074 -0.4690
   45MOL   C54340231   2.622   7.954   1.080 -0.7601  0.7830  0.2248
   45MOL   C54440232   2.554   7.849   1.015  0.1008  0.4998 -0.1667
   45MOL   C54540233   2.462   7.881   0.912 -0.1802 -0.1145 -0.2835
   45MOL   C54640234   2.436   8.014   0.890 -0.7785  0.7370  1.1645
   45MOL   C54740235   2.511   8.118   0.945 -0.6761 -0.3295  0.9737
   45MOL   S54840236   2.384   7.741   0.833  0.2046  0.6582  0.4349
   45MOL   O54940237   2.367   7.647   0.942  0.2961  0.3516 -0.2637
   45MOL   O55040238   2.470   7.703   0.717  0.1148  0.0464 -0.2631
   45MOL   C55140239   2.215   7.787   0.774 -0.4052 -0.3179  0.2650
   45MOL   C55240240   2.205   7.882   0.671 -1.4087  0.1204 -0.1436
   45MOL   C55340241   2.082   7.921   0.617  0.8433  0.0377  0.5843
   45MOL   C55440242   1.961   7.869   0.663  0.4612  1.0404 -0.5595
   45MOL   C55540243   1.977   7.757   0.752 -0.3442  0.3942  0.9265
   45MOL   C55640244   2.102   7.713   0.802  0.6364  0.0724 -0.5436
   45MOL   O55740245   1.844   7.906   0.603 -0.2277  0.2394  0.3219
   45MOL   C55840246   1.732   7.916   0.683  0.3802 -0.3191  0.1176
   45MOL   C55940247   1.645   7.804   0.681  0.2269  0.6321 -0.7512
   45MOL   C56040248   1.538   7.804   0.774 -0.0080  0.9429  0.3887
   45MOL   C56140249   1.514   7.910   0.860 -0.0373 -0.8726 -0.2503
   45MOL   C56240250   1.612   8.012   0.867 -0.0961  0.6050  0.3508
   45MOL   C56340251   1.715   8.027   0.776  0.4022  0.0205  0.0593
   45MOL   C56440252   1.405   7.914   0.954  0.1368 -0.2137 -0.0635
   45MOL   C56540253   1.350   8.036   0.995 -0.4252 -0.7039 -0.4972
   45MOL   C56640254   1.250   8.048   1.096  0.0096  0.1713  0.2673
   45MOL   C56740255   1.213   7.935   1.165 -0.6585 -0.0115 -0.3612
   45MOL   C56840256   1.267   7.809   1.125  0.4871  0.2271 -0.5804
   45MOL   C56940257   1.358   7.802   1.019  0.1173  0.3505 -0.6590
   45MOL   O57040258   1.127   7.954   1.280  0.8161 -0.4668  0.3911
   45MOL   H57140259   2.699   7.932   1.153  0.2336  0.2438 -0.9649
   45MOL   H57240260   2.571   7.745   1.041 -0.9709  0.4719  0.4529
   45MOL   H57340261   2.372   8.048   0.810 -0.6040  1.5780  1.3790
   45MOL   H57440262   2.493   8.219   0.911 -0.0327 -0.3036  0.7267
   45MOL   H57540263   2.301   7.912   0.632 -1.1679 -0.4388  0.0051
   45MOL   H57640264   2.071   7.997   0.541 -0.0134  1.1859  1.8296
   45MOL   H57740265   1.892   7.694   0.773  1.4039 -1.3799  2.9320
   45MOL   H57840266   2.107   7.627   0.867 -0.4419  2.7121  3.1753
   45MOL   H57940267   1.652   7.720   0.613 -0.9215  1.6506 -2.1475
   45MOL   H58040268   1.482   7.713   0.791 -1.2729  1.7471  0.6175
   45MOL   H58140269   1.594   8.098   0.930 -0.1356 -0.5599  1.9511
   45MOL   H58240270   1.782   8.111   0.785  2.1391 -1.0284 -2.4091
   45MOL   H58340271   1.381   8.125   0.941 -2.2149 -1.3341 -2.6157
   45MOL   H58440272   1.211   8.147   1.114  1.0506  1.0973 -2.2299
   45MOL   H58540273   1.239   7.718   1.175 -0.1410 -1.1667 -3.3725
   45MOL   H58640274   1.391   7.702   0.992  3.5852  1.6431 -1.4402
   45MOL   C58740275   1.189   7.966   1.408 -0.0564 -0.3229  0.8336
   45MOL   C58840276   1.109   7.997   1.520 -0.2357  0.6857  0.2136
   45MOL   C58940277   1.165   8.021   1.649 -0.1430 -0.3166  0.2472
   45MOL   C59040278   1.301   7.999   1.667 -0.1247 -0.5970  0.1590
   45MOL   C59140279   1.384   7.958   1.557  0.6444 -0.7754 -0.2868
   45MOL   C59240280   1.324   7.944   1.427 -0.9664 -0.1052  0.1766
   45MOL   S59340281   1.389   8.030   1.816  0.0553 -0.1343  0.2717
   45MOL   O59440282   1.523   7.969   1.810 -0.0307  0.2058  0.3385
   45MOL   O59540283   1.300   7.985   1.922  0.4386 -0.2206  0.0052
   45MOL   C59640284   1.403   8.211   1.843  0.2162 -1.2261  0.3355
   45MOL   C59740285   1.529   8.271   1.858 -0.4910  0.3725  0.8351
   45MOL   C59840286   1.544   0.038   1.894  0.2904 -0.3474 -1.0199
   45MOL   C59940287   1.432   0.123   1.899  0.3262  0.5803  0.6550
   45MOL   C60040288   1.304   0.066   1.885  0.5717 -0.3823  0.3588
   45MOL   C60140289   1.291   8.297   1.853 -0.3125  0.4223 -0.2796
   45MOL   O60240290   1.465   0.257   1.922  0.1804  0.3508  0.4093
   45MOL   C60340291   1.378   0.359   1.943 -0.9675 -0.5034 -0.4495
   45MOL   C60440292   1.420   0.451   2.045  0.0433  0.3876  0.7234
   45MOL   C60540293   1.339   0.565   2.070 -0.2001 -0.5150 -0.2845
   45MOL   C60640294   1.217   0.589   1.997  0.3996  0.5482 -0.3561
   45MOL   C60740295   1.183   0.499   1.897 -0.1500  0.5122 -0.4513
   45MOL   C60840296   1.262   0.384   1.869 -0.2140  0.4836  0.1555
   45MOL   C60940297   1.135   0.706   2.025 -0.3529  0.1209 -0.2858
   45MOL   C61040298   0.996   0.686   2.034  0.1202 -0.1384  0.8059
   45MOL   C61140299   0.905   0.790   2.058  0.3900  0.0991  0.0882
   45MOL   C61240300   0.949   0.923   2.056  0.1610 -0.0095 -0.3833
   45MOL   C61340301   1.088   0.945   2.050  0.2640 -0.1065  0.1981
   45MOL   C61440302   1.180   0.842   2.034 -0.4311 -0.7132 -0.3811
   45MOL   O61540303   0.860   1.031   2.062  0.6992  0.4245 -0.1358
   45MOL   H61640304   1.003   8.010   1.511 -0.4806  0.8986  2.9773
   45MOL   H61740305   1.110   8.048   1.738  0.9638  2.1261  0.2290
   45MOL   H61840306   1.487   7.939   1.581  1.6472  1.4309 -2.6687
   45MOL   H61940307   1.388   7.912   1.347 -0.7809  0.2836  0.1692
   45MOL   H62040308   1.608   8.197   1.856 -0.4986  0.3515  1.1926
   45MOL   H62140309   1.646   0.075   1.903  0.3126 -0.3611 -1.2053
   45MOL   H62240310   1.214   0.126   1.889  0.1760 -0.9125 -0.3668
   45MOL   H62340311   1.192   8.254   1.848 -0.2690  0.4680 -1.6243
   45MOL   H62440312   1.506   0.438   2.109 -0.4386 -0.2511  1.2550
   45MOL   H62540313   1.365   0.639   2.144 -0.3097 -1.5966  0.8513
   45MOL   H62640314   1.098   0.521   1.835 -1.2313  0.5905  1.0262
   45MOL   H62740315   1.233   0.314   1.792 -0.8669 -0.9356  1.6773
   45MOL   H62840316   0.950   0.588   2.026  0.6559 -0.5238  2.1447
   45MOL   H62940317   0.799   0.769   2.064 -0.3637  2.3134 -3.3033
   45MOL   H63040318   1.137   1.040   2.062  2.2448 -0.6844 -2.8716
   45MOL   H63140319   1.281   0.878   2.019 -1.2348  1.6354 -0.2990
   45MOL   C63240320   0.725   1.008   2.058 -0.1288  0.2119  0.2815
   45MOL   C63340321   0.658   1.027   2.181  0.3941 -0.3988  0.3187
   45MOL   C63440322   0.521   0.991   2.197 -0.9451 -0.4591 -0.2023
   45MOL   C63540323   0.452   0.952   2.080 -0.0279  0.5643  0.6863
   45MOL   C63640324   0.514   0.947   1.949 -1.2783 -0.3077  0.3136
   45MOL   C63740325   0.656   0.971   1.939  1.2477  0.8399  0.0112
   45MOL   S63840326   0.277   0.920   2.102 -0.0671  0.2542  0.1788
   45MOL   O63940327   0.217   1.043   2.161  0.5078 -0.0732 -0.5917
   45MOL   O64040328   0.259   0.789   2.171 -0.4675  0.1462  0.9254
   45MOL   C64140329   0.210   0.897   1.939 -0.1314 -0.3033  0.5231
   45MOL   C64240330   0.158   1.007   1.860 -0.9620  1.2157 -0.0754
   45MOL   C64340331   0.090   0.974   1.744  0.2472  0.4477 -0.4034
   45MOL   C64440332   0.084   0.838   1.696  0.5953 -0.2988  0.0907
   45MOL   C64540333   0.139   0.733   1.772  0.5910  0.0423  0.2233
   45MOL   C64640334   0.199   0.764   1.898  0.2019  0.3506  0.3694
   45MOL   O64740335   0.016   0.810   1.581 -0.5525 -0.4969 -0.1337
   45MOL   C64840336   8.245   0.820   1.589 -0.5088  0.1088 -0.4195
   45MOL   C64940337   8.174   0.914   1.509  0.0795  0.1835 -0.1691
   45MOL   C65040338   8.036   0.939   1.526  0.0423 -0.6228 -0.3036
   45MOL   C65140339   7.961   0.866   1.619  1.0846 -0.1084 -0.3203
   45MOL   C65240340   8.032   0.770   1.701  0.1608  1.0568  1.0783
   45MOL   C65340341   8.172   0.755   1.691  0.1954 -1.0966  0.6151
   45MOL   C65440342   7.820   0.892   1.647  0.2506 -0.0140  0.4375
   45MOL   C65540343   7.736   0.787   1.628  0.3917  0.3485  0.1182
   45MOL   C65640344   7.604   0.788   1.671  0.0569 -0.5523  0.2149
   45MOL   C65740345   7.558   0.904   1.747  0.4549 -0.6522 -0.2835
   45MOL   C65840346   7.638   1.019   1.743 -0.6554 -0.1535  0.0528
   45MOL   C65940347   7.771   1.018   1.700 -0.6000  0.5564 -0.1272
   45MOL   O66040348   7.446   0.898   1.820  0.1286  0.1696 -0.0805
   45MOL   H66140349   0.715   1.065   2.265 -0.0816 -0.8503  0.8487
   45MOL   H66240350   0.464   1.010   2.287  0.9043 -0.7017  1.0257
   45MOL   H66340351   0.460   0.921   1.860  1.7482 -3.9955 -0.5870
   45MOL   H66440352   0.707   0.944   1.848  0.1887 -0.8159 -0.1034
   45MOL   H66540353   0.184   1.105   1.899  5.0224  0.3657 -1.3317
   45MOL   H66640354   0.057   1.052   1.677  2.6238 -0.2655 -2.4493
   45MOL   H66740355   0.140   0.630   1.740  0.0782  0.2963 -0.6304
   45MOL   H66840356   0.247   0.682   1.950  2.5529  2.4179  1.5034
   45MOL   H66940357   8.232   0.975   1.442  2.7573 -0.5597  1.4182
   45MOL   H67040358   7.989   1.018   1.470 -1.0295 -1.2132 -0.2443
   45MOL   H67140359   7.979   0.718   1.780  0.4575  1.7525  1.7386
   45MOL   H67240360   8.228   0.693   1.760 -1.8481 -1.1436  2.2939
   45MOL   H67340361   7.766   0.688   1.598  0.7837 -0.1513  2.0760
   45MOL   H67440362   7.546   0.698   1.684  0.5924 -0.9410 -0.1255
   45MOL   H67540363   7.606   1.110   1.792  1.3695 -0.9598  3.0563
   45MOL   H67640364   7.822   1.110   1.726  0.6601  0.4444 -2.1826
   45MOL   C67740365   7.465   0.866   1.947 -0.7904 -0.5241  0.2096
   45MOL   C67840366   7.474   0.958   2.051  0.4946  1.0675 -0.5982
   45MOL   C67940367   7.507   0.916   2.182 -0.5552  0.4218  0.1988
   45MOL   C68040368   7.522   0.780   2.213 -0.1910 -0.2190  0.0203
   45MOL   C68140369   7.523   0.684   2.109 -0.3589  0.8795 -0.6260
   45MOL   C68240370   7.491   0.731   1.978  0.0802 -0.6037  0.5455
   45MOL   S68340371   7.563   0.748   2.385 -0.1999  0.1593  0.0848
   45MOL   O68440372   7.440   0.786   2.452  0.0002  0.0285 -0.4443
   45MOL   O68540373   7.686   0.818   2.404 -0.5041 -0.4886  0.8464
   45MOL   C68640374   7.599   0.575   2.406  0.3338 -0.7051  0.5090
   45MOL   C68740375   7.493   0.487   2.387 -0.4161 -0.6607 -0.4533
   45MOL   C68840376   7.518   0.349   2.405  0.2286  0.0299 -0.4443
   45MOL   C68940377   7.649   0.298   2.444 -0.0373  0.5072  0.8039
   45MOL   C69040378   7.748   0.391   2.479 -0.3549 -0.2246 -0.7947
   45MOL   C69140379   7.725   0.529   2.458  0.2788 -0.7175 -0.2608
   45MOL   O69240380   7.676   0.164   2.445 -0.0618 -0.6951  0.0225
   45MOL   C69340381   7.745   0.104   2.346  0.6699  0.2096 -0.1973
   45MOL   C69440382   7.848   0.018   2.373 -0.0462 -0.1000 -0.6741
   45MOL   C69540383   7.913   8.319   2.263 -0.1847  0.1281  0.6335
   45MOL   C69640384   7.883   8.349   2.126 -0.3119 -0.3856 -0.6996
   45MOL   C69740385   7.772   0.064   2.107  0.4316 -0.3096  0.5996
   45MOL   C69840386   7.705   0.128   2.210  0.1110 -0.5781  0.0291
   45MOL   C69940387   7.976   8.303   2.025  0.1879  1.1068 -0.6305
   45MOL   C70040388   7.947   8.316   1.886  0.8347 -0.3243 -0.3647
   45MOL   C70140389   8.039   8.289   1.781  0.1079  0.4219  0.6230
   45MOL   C70240390   8.161   8.224   1.822  0.6664 -0.0872 -0.0645
   45MOL   C70340391   8.189   8.201   1.962 -0.1150  0.1081  0.4464
   45MOL   C70440392   8.095   8.246   2.059 -0.2097  0.6819  0.3013
   45MOL   O70540393   8.248   8.192   1.724 -0.2952  0.7047 -0.0480
   45MOL   H70640394   7.461   1.065   2.036 -0.5965  0.8443 -1.3244
   45MOL   H70740395   7.509   0.988   2.263  0.9916 -0.5191  1.0256
   45MOL   H70840396   7.536   0.581   2.138  1.3104  1.1261 -0.4442
   45MOL   H70940397   7.489   0.659   1.897 -1.2461  1.1198 -0.9817
   45MOL   H71040398   7.398   0.524   2.352 -0.3610 -0.9662 -0.9250
   45MOL   H71140399   7.452   0.273   2.365  0.5520 -0.5765  0.1546
   45MOL   H71240400   7.839   0.351   2.523 -2.0088  0.1843  3.2708
   45MOL   H71340401   7.797   0.608   2.473 -0.6725  0.5099 -2.0509
   45MOL   H71440402   7.869   0.001   2.477  1.7650  1.7706 -0.6953
   45MOL   H71540403   7.989   8.249   2.294 -0.7950 -1.8409 -2.1651
   45MOL   H71640404   7.741   0.089   2.007  1.5069 -0.4367  0.2255
   45MOL   H71740405   7.618   0.192   2.204 -1.0303 -1.7559  2.8682
   45MOL   H71840406   7.853   8.363   1.859  0.7913  0.5434  1.2365
   45MOL   H71940407   8.006   8.299   1.678  0.7475 -0.0183  0.3745
   45MOL   H72040408   8.282   8.156   1.993  0.7324  0.1379 -1.9422
   45MOL   H72140409   8.137   8.245   2.158 -1.0470  0.4590  0.6571
   45MOL   C72240410   8.299   8.069   1.700  0.9567 -0.3626 -0.3169
   45MOL   C72340411   0.072   8.047   1.686  0.6465 -0.0588 -0.3920
   45MOL   C72440412   0.118   7.927   1.627  0.1550 -0.5045  0.0341
   45MOL   C72540413   0.026   7.833   1.578  0.2563  0.0187  0.1186
   45MOL   C72640414   8.259   7.853   1.587 -0.2768 -0.3448 -0.4333
   45MOL   C72740415   8.210   7.972   1.650 -0.6078  0.3907  0.1416
   45MOL   S72840416   0.086   7.693   1.482  0.0692 -0.0733 -0.0909
   45MOL   O72940417   8.345   7.639   1.400  0.2061 -0.2111 -0.7810
   45MOL   O73040418   0.166   7.615   1.579  1.1374  0.2643 -0.3896
   45MOL   C73140419   0.207   7.759   1.365 -0.1798  0.5529  0.2186
   45MOL   C73240420   0.342   7.756   1.404  0.0871  0.0611 -0.0475
   45MOL   C73340421   0.437   7.805   1.318  0.6235  0.3076  0.2983
   45MOL   C73440422   0.396   7.862   1.193  0.2278  0.2933 -0.1439
   45MOL   C73540423   0.261   7.860   1.153  0.0401 -1.0610  0.0028
   45MOL   C73640424   0.170   7.814   1.245 -0.0916 -0.4837 -0.2214
   45MOL   O73740425   0.488   7.926   1.112  0.5157  0.1337  0.3163
   45MOL   C73840426   0.531   7.857   1.000 -0.3236 -0.7433  0.0269
   45MOL   C73940427   0.664   7.810   0.994  0.0376  0.5174 -0.0837
   45MOL   C74040428   0.715   7.758   0.872  0.3273 -0.5384  0.1622
   45MOL   C74140429   0.634   7.743   0.754 -0.1894  0.3568 -0.1929
   45MOL   C74240430   0.498   7.777   0.764 -0.1500 -0.4507  0.2068
   45MOL   C74340431   0.449   7.836   0.885  0.4310  0.5557 -0.2500
   45MOL   C74440432   0.697   7.688   0.630  0.3161  0.3279  0.0759
   45MOL   C74540433   0.825   7.725   0.578  0.4128 -0.7260 -0.0792
   45MOL   C74640434   0.882   7.658   0.464  0.2044 -0.0868 -0.1171
   45MOL   C74740435   0.804   7.566   0.391 -0.2634 -0.2818 -0.8965
   45MOL   C74840436   0.676   7.531   0.443  0.4206  0.0481 -0.1992
   45MOL   C74940437   0.630   7.587   0.564 -0.4834  0.3110  0.1754
   45MOL   O75040438   0.866   7.506   0.285 -0.4182  0.1862 -0.9230
   45MOL   H75140439   0.144   8.124   1.710  1.8855 -0.6750 -2.0510
   45MOL   H75240440   0.224   7.911   1.609  0.0586 -1.2549  0.1403
   45MOL   H75340441   8.184   7.787   1.546  0.6684 -0.3552 -2.1694
   45MOL   H75440442   8.103   7.990   1.653 -1.0164 -2.1757  3.0292
   45MOL   H75540443   0.366   7.715   1.501 -0.6338 -0.7777 -0.2107
   45MOL   H75640444   0.541   7.809   1.344  0.3456 -1.9092  1.9258
   45MOL   H75740445   0.235   7.910   1.061 -1.1730 -1.0717  0.3372
   45MOL   H75840446   0.062   7.816   1.233 -0.2223  0.5503  1.0477
   45MOL   H75940447   0.728   7.816   1.081  1.8007  2.7126 -1.4707
   45MOL   H76040448   0.819   7.728   0.874  1.5345  3.3321 -0.7132
   45MOL   H76140449   0.432   7.741   0.687  2.0275 -0.3292 -1.7778
   45MOL   H76240450   0.348   7.874   0.892 -0.3710 -1.2046 -1.6128
   45MOL   H76340451   0.882   7.799   0.631  2.1561 -1.1594 -1.2968
   45MOL   H76440452   0.980   7.692   0.434  1.4344 -3.1855  0.2008
   45MOL   H76540453   0.619   7.459   0.388 -0.2799 -0.6168  1.3856
   45MOL   H76640454   0.531   7.558   0.597 -0.5201  0.0090 -0.1996
   45MOL   C76740455   0.807   7.398   0.223 -0.3035 -0.6877 -0.6760
   45MOL   C76840456   0.778   7.278   0.292  0.3277 -0.3537  0.0449
   45MOL   C76940457   0.701   7.181   0.235 -0.3241  0.3237  0.0818
   45MOL   C77040458   0.654   7.201   0.100  0.7574 -0.6893 -0.3310
   45MOL   C77140459   0.693   7.316   0.026 -0.3294 -0.1537  0.0904
   45MOL   C77240460   0.775   7.414   0.088 -0.5256 -0.3825 -0.4682
   45MOL   S77340461   0.552   7.076   0.020  0.1764  0.0250 -0.1151
   45MOL   O77440462   0.465   7.154   8.299 -0.4462  0.1573  0.8632
   45MOL   O77540463   0.492   6.986   0.117  0.0300  0.0465 -0.2049
   45MOL   C77640464   0.663   6.992   8.272 -0.3010 -0.1859 -0.5521
   45MOL   C77740465   0.719   6.868   8.314 -0.3335  0.3579  0.1039
   45MOL   C77840466   0.798   6.794   8.225 -0.0442  0.0368 -0.0979
   45MOL   C77940467   0.829   6.858   8.099 -0.4142  0.6248  0.3990
   45MOL   C78040468   0.798   6.990   8.066 -0.4963 -0.1652  0.6980
   45MOL   C78140469   0.704   7.058   8.154 -0.1332 -0.7650  0.1545
   45MOL   O78240470   0.919   6.789   8.025 -0.7026 -0.3543  0.2495
   45MOL   C78340471   0.895   6.786   7.888  0.4142 -1.0707 -0.1261
   45MOL   C78440472   0.997   6.828   7.795  0.7850  0.0244 -0.4828
   45MOL   C78540473   0.982   6.818   7.662  0.4577  0.6564 -0.0019
   45MOL   C78640474   0.858   6.768   7.606  0.7592 -0.8208 -0.1252
   45MOL   C78740475   0.758   6.733   7.695 -0.4031  0.4065 -0.2129
   45MOL   C78840476   0.775   6.732   7.834 -0.2722  1.0673  0.5121
   45MOL   C78940477   0.849   6.738   7.468  0.5994 -0.2989 -0.2947
   45MOL   C79040478   0.913   6.819   7.371 -0.7134  0.1750  0.0778
   45MOL   C79140479   0.921   6.780   7.231 -0.9037  0.5118  0.5544
   45MOL   C79240480   0.875   6.650   7.189  0.4957 -0.0402  0.8519
   45MOL   C79340481   0.812   6.573   7.285 -0.5538  0.0575 -0.7060
   45MOL   C79440482   0.799   6.617   7.420  0.5724  0.7971 -0.4109
   45MOL   O79540483   0.919   6.589   7.069 -0.5969 -0.0779 -0.5728
   45MOL   H79640484   0.822   7.264   0.389 -1.7419 -2.1248  0.7695
   45MOL   H79740485   0.680   7.089   0.288 -2.9581 -0.2744 -1.8796
   45MOL   H79840486   0.667   7.330   8.288  1.2389  3.1969  0.1006
   45MOL   H79940487   0.809   7.496   0.026 -1.5331  0.5785  0.2178
   45MOL   H80040488   0.687   6.817   0.037  1.5868  2.2646  1.9464
   45MOL   H80140489   0.834   6.697   8.254  0.6992  0.3493  0.0416
   45MOL   H80240490   0.831   7.038   7.974 -0.8477 -0.4189  0.4420
   45MOL   H80340491   0.664   7.155   8.124 -0.7658 -0.3258  2.3488
   45MOL   H80440492   1.083   6.862   7.852  0.0072 -0.0600  0.7694
   45MOL   H80540493   1.074   6.847   7.613  0.7883  0.9089  0.7721
   45MOL   H80640494   0.666   6.693   7.655  1.3020 -1.7364 -2.1452
   45MOL   H80740495   0.708   6.690   7.908  0.2772 -1.8020 -0.5349
   45MOL   H80840496   0.942   6.922   7.387  0.9075 -0.3101  0.3431
   45MOL   H80940497   0.966   6.840   7.153  0.6309  1.7484  2.3376
   45MOL   H81040498   0.787   6.472   7.257 -0.5883 -0.7856  2.1583
   45MOL   H81140499   0.755   6.539   7.480 -0.4496  0.2524 -1.8420
   45MOL   C81240500   1.022   6.503   7.076 -1.0301 -0.2081  0.3311
   45MOL   C81340501   1.086   6.455   7.193 -0.7247 -0.1540  0.2362
   45MOL   C81440502   1.201   6.373   7.188 -0.0256 -0.5395 -0.8173
   45MOL   C81540503   1.247   6.333   7.065  0.4661  0.9999  0.7819
   45MOL   C81640504   1.186   6.381   6.945  0.6857 -0.0093 -0.0287
   45MOL   C81740505   1.075   6.464   6.950  0.3270  0.2401  0.1000
   45MOL   S81840506   1.402   6.231   7.052 -0.3578 -0.6413  0.3072
   45MOL   O81940507   1.432   6.215   6.908  0.5703  0.0297  0.1590
   45MOL   O82040508   1.384   6.113   7.137  0.4609  0.5985  0.3826
   45MOL   C82140509   1.542   6.338   7.114 -0.0934 -0.5780 -0.3251
   45MOL   C82240510   1.672   6.295   7.099 -0.0286 -0.6124  0.1113
   45MOL   C82340511   1.778   6.375   7.136  0.1663  0.0361 -0.9960
   45MOL   C82440512   1.755   6.505   7.178  0.0248 -0.2332 -0.1740
   45MOL   C82540513   1.624   6.552   7.195 -0.2754  0.3500  0.2281
   45MOL   C82640514   1.515   6.467   7.161 -0.3940 -0.8033 -0.6371
   45MOL   O82740515   1.864   6.589   7.206  0.4556 -0.2862 -0.4645
   45MOL   C82840516   1.914   6.597   7.334 -0.0337  0.4433  0.4342
   45MOL   C82940517   1.886   6.511   7.446 -0.3920 -0.3025 -0.4371
   45MOL   C83040518   1.951   6.532   7.569  0.0789  0.0616 -0.3574
   45MOL   C83140519   2.042   6.640   7.595  0.6968  0.5741  0.1638
   45MOL   C83240520   2.060   6.724   7.482  0.9460 -0.4837 -0.1017
   45MOL   C83340521   2.002   6.701   7.351  0.0719  0.0294 -0.1667
   45MOL   C83440522   2.094   6.664   7.724 -0.1620  0.1891  0.0271
   45MOL   C83540523   2.202   6.593   7.785 -0.7993 -0.6149  0.2178
   45MOL   C83640524   2.255   6.634   7.906 -0.5212 -0.0010  0.5045
   45MOL   C83740525   2.207   6.751   7.964 -0.8075  0.9258 -0.0779
   45MOL   C83840526   2.086   6.810   7.912 -0.0923  0.1951 -0.1937
   45MOL   C83940527   2.034   6.769   7.794  0.2998  0.2684  0.2081
   45MOL   O84040528   2.286   6.813   8.060  0.0340 -0.6637 -0.0719
   45MOL   H84140529   1.045   6.486   7.287 -0.3335  2.3997 -0.3950
   45MOL   H84240530   1.254   6.348   7.278 -2.2864  1.6881  1.2333
   45MOL   H84340531   1.232   6.353   6.851 -0.6991 -1.6962 -0.2351
   45MOL   H84440532   1.026   6.491   6.858  0.1273 -0.9644 -0.1562
   45MOL   H84540533   1.687   6.204   7.042  0.6216  0.7601 -1.9761
   45MOL   H84640534   1.879   6.340   7.120  0.9207  1.6674  0.1870
   45MOL   H84740535   1.609   6.653   7.230  2.6666  0.7829  0.3092
   45MOL   H84840536   1.417   6.507   7.183 -0.0813 -1.6618  2.5882
   45MOL   H84940537   1.815   6.429   7.439 -0.7544 -0.3177  2.8077
   45MOL   H85040538   1.916   6.471   7.651  0.9615 -1.6329 -1.2125
   45MOL   H85140539   2.113   6.814   7.511  2.3441 -1.3472  0.0579
   45MOL   H85240540   2.024   6.778   7.278 -1.2531 -1.1128 -1.8052
   45MOL   H85340541   2.236   6.496   7.750 -0.4552 -1.0640  1.7902
   45MOL   H85440542   2.337   6.579   7.949  0.7874  1.1915 -0.4284
   45MOL   H85540543   2.044   6.893   7.966 -0.9877  0.2230 -0.9228
   45MOL   H85640544   1.947   6.819   7.754 -0.3078 -0.4431  0.6343
   45MOL   C85740545   2.262   6.779   8.188 -0.1373 -0.4023 -0.0196
   45MOL   C85840546   2.135   6.740   8.235 -0.8724  0.4422  0.2409
   45MOL   C85940547   2.123   6.691   8.365  0.1079 -0.2657 -0.2686
   45MOL   C86040548   2.225   6.708   0.093  0.7443 -0.5402 -0.2721
   45MOL   C86140549   2.351   6.760   0.051  0.6108  0.2873  0.5435
   45MOL   C86240550   2.368   6.787   8.283 -0.2998 -0.0200  0.0004
   45MOL   S86340551   2.191   6.672   0.269  0.0578 -0.1854 -0.2245
   45MOL   O86440552   2.137   6.531   0.276  0.2271  0.1373  0.4026
   45MOL   O86540553   2.111   6.782   0.320 -0.4835 -0.1841 -0.0222
   45MOL   C86640554   2.354   6.685   0.342 -0.1634 -0.0024  0.4443
   45MOL   C86740555   2.449   6.582   0.332 -0.4880 -0.6614  0.1639
   45MOL   C86840556   2.571   6.598   0.395  0.2445 -0.2922 -0.6743
   45MOL   C86940557   2.598   6.712   0.472 -0.0736 -0.1910  0.2213
   45MOL   C87040558   2.502   6.811   0.485 -0.1379 -0.1811 -0.0757
   45MOL   C87140559   2.382   6.798   0.420  0.1328 -0.1862 -0.6788
   45MOL   O87240560   2.702   6.719   0.559  0.1417  0.7458  0.0729
   45MOL   C87340561   2.668   6.688   0.685 -0.9198  0.4380  0.4774
   45MOL   C87440562   2.662   6.783   0.787  0.3072 -0.1057  0.3761
   45MOL   C87540563   2.630   6.746   0.913  0.1841  0.2298  0.1965
   45MOL   C87640564   2.613   6.616   0.956 -0.2230  0.8144 -0.4226
   45MOL   C87740565   2.612   6.522   0.853 -0.3120 -0.4557 -0.2348
   45MOL   C87840566   2.637   6.552   0.720  0.3808 -0.2028  0.3234
   45MOL   C87940567   2.579   6.588   1.101  0.0781  0.2517  0.3944
   45MOL   C88040568   2.490   6.675   1.170  0.5908  0.1428 -0.6847
   45MOL   C88140569   2.455   6.645   1.301 -0.0773  0.8533 -0.8687
   45MOL   C88240570   2.506   6.527   1.366 -0.1341  0.1510  0.1912
   45MOL   C88340571   2.579   6.434   1.295 -1.2254 -0.0619 -0.0470
   45MOL   C88440572   2.618   6.465   1.160  0.4983 -0.5011 -0.1594
   45MOL   O88540573   2.477   6.505   1.494  0.0122 -0.0452 -0.1814
   45MOL   H88640574   2.046   6.738   8.174 -0.3340 -1.2147 -0.5278
   45MOL   H88740575   2.026   6.660   0.034  0.2179  1.2948  1.5572
   45MOL   H88840576   2.432   6.784   0.120  1.0510 -1.3126  0.6070
   45MOL   H88940577   2.469   6.814   8.254  0.1513 -4.0409 -2.6247
   45MOL   H89040578   2.425   6.491   0.279  0.7042 -0.8011 -0.1344
   45MOL   H89140579   2.648   6.523   0.396  0.5602  0.0344 -0.2741
   45MOL   H89240580   2.511   6.892   0.556 -0.9744  2.1705 -2.5685
   45MOL   H89340581   2.302   6.868   0.439  0.2610 -0.7532  2.2280
   45MOL   H89440582   2.672   6.890   0.773  0.0609  0.1354  1.9941
   45MOL   H89540583   2.623   6.821   0.990  2.6069 -0.7097  1.3714
   45MOL   H89640584   2.592   6.418   0.877  1.9156 -1.0250 -0.7468
   45MOL   H89740585   2.629   6.475   0.645  1.3915  0.3359 -0.3376
   45MOL   H89840586   2.457   6.766   1.122  0.8786 -0.0324 -1.2122
   45MOL   H89940587   2.385   6.707   1.355 -0.6337 -1.2487  0.8967
   45MOL   H90040588   2.619   6.343   1.337  1.1004  1.4623  1.1677
   45MOL   H90140589   2.697   6.408   1.112 -0.0198 -1.0938 -0.3054
   45MOL   H90240590   2.518   6.426   1.525  0.9797  1.1642  1.7719
   46MOL     C140591   7.847   1.101   2.802 -0.3664  0.1223 -0.1610
   46MOL     C240592   7.915   1.187   2.706 -0.2900  0.0233 -0.3827
   46MOL     C340593   7.858   1.227   2.587  0.1011 -0.5588  0.0965
   46MOL     C440594   7.723   1.184   2.550  0.5466  0.1514  0.0129
   46MOL     C540595   7.659   1.096   2.638  0.2237  0.9088 -0.9558
   46MOL     C640596   7.724   1.051   2.755  0.2703 -0.2118  0.1754
   46MOL     S740597   7.663   1.226   2.393 -0.1638  0.0367  0.3285
   46MOL     O840598   7.683   1.371   2.378 -0.4242  0.7843 -0.2171
   46MOL     O940599   7.529   1.172   2.385  0.1084 -0.4660 -0.5693
   46MOL    C1040600   7.768   1.140   2.278  0.0023 -0.1111 -0.1534
   46MOL    C1140601   7.861   1.045   2.319 -0.4865 -0.5091  0.4964
   46MOL    C1240602   7.956   0.983   2.229  0.0265  0.4551  0.2644
   46MOL    C1340603   7.940   1.006   2.090 -0.2034 -0.0930 -0.3298
   46MOL    C1440604   7.854   1.110   2.047 -0.1494  0.1971 -0.3585
   46MOL    C1540605   7.757   1.166   2.141 -0.2154  0.0686 -0.3712
   46MOL    O1640606   8.016   0.940   2.000  1.0010  0.2205 -0.9843
   46MOL    C1740607   8.051   0.811   2.032 -0.4694  0.5039  0.1234
   46MOL    C1840608   7.952   0.712   2.060  0.2262 -0.8613  0.0682
   46MOL    C1940609   7.993   0.577   2.094  0.0868  0.1073  0.0215
   46MOL    C2040610   8.127   0.537   2.104 -0.9263  0.3738  0.5706
   46MOL    C2140611   8.226   0.644   2.087  0.0869 -0.2127  0.3895
   46MOL    C2240612   8.192   0.772   2.040  0.2965 -0.3930 -0.9177
   46MOL    C2340613   8.170   0.400   2.156  0.2459  0.3411  0.4615
   46MOL    C2440614   8.101   0.343   2.267 -0.8902  0.3453 -0.5889
   46MOL    C2540615   8.145   0.221   2.323  0.3740  0.3174  0.4209
   46MOL    C2640616   8.254   0.147   2.261 -0.5655 -0.1369  0.0089
   46MOL    C2740617   8.327   0.214   2.159 -0.1433  0.7028 -0.3689
   46MOL    C2840618   8.286   0.335   2.107  0.5558 -0.3969  0.5701
   46MOL    O2940619   8.285   0.020   2.303  0.5682  0.0232  0.1327
   46MOL    H3040620   8.015   1.215   2.735 -0.3759 -1.5219  1.4771
   46MOL    H3140621   7.913   1.295   2.524 -2.5828  1.3513 -0.2963
   46MOL    H3240622   7.557   1.062   2.625 -0.7577  2.5164  1.8774
   46MOL    H3340623   7.666   0.983   2.815  2.5110 -2.3336  0.0291
   46MOL    H3440624   7.865   1.024   2.424 -2.2249 -0.1769  0.6520
   46MOL    H3540625   8.027   0.909   2.264 -0.4959 -1.0527 -1.7467
   46MOL    H3640626   7.841   1.136   1.943  1.2210 -1.3416 -0.9440
   46MOL    H3740627   7.679   1.233   2.110 -2.1830 -1.4212  1.2753
   46MOL    H3840628   7.851   0.746   2.044 -0.0453 -1.5117  0.3816
   46MOL    H3940629   7.919   0.500   2.104  2.7779 -3.1167 -3.6484
   46MOL    H4040630   8.331   0.622   2.100  0.1013 -1.9656 -2.2789
   46MOL    H4140631   8.267   0.848   2.023 -1.0074  0.6503 -2.2150
   46MOL    H4240632   8.008   0.390   2.293 -0.6404 -0.8038  2.5087
   46MOL    H4340633   8.081   0.181   2.399 -1.6084  3.2808  0.4135
   46MOL    H4440634   0.040   0.157   2.113  0.6366 -0.3139  2.1451
   46MOL    H4540635   8.352   0.373   2.030  0.2451  1.2556  1.0805
   46MOL    H4640636   7.894   1.067   2.893  0.8315 -1.1935 -1.2415
   46MOL    C4740637   8.309   8.359   2.435  0.1050  0.1900 -0.5013
   46MOL    C4840638   0.067   0.032   2.498  0.2824  0.1871  0.0263
   46MOL    C4940639   0.084   0.012   2.632 -0.8856  0.1589 -0.1825
   46MOL    C5040640   8.346   8.317   2.707  0.5990  0.5118  0.4501
   46MOL    C5140641   8.218   8.280   2.651  0.1917  0.0233 -1.0065
   46MOL    C5240642   8.204   8.301   2.512 -0.6362  0.8183 -0.0534
   46MOL    S5340643   8.366   8.305   2.883  0.3255 -0.1568 -0.1809
   46MOL    O5440644   0.136   8.263   2.908  0.1891  0.1102  0.3788
   46MOL    O5540645   8.258   8.223   2.934  0.2141 -0.3816 -0.1939
   46MOL    C5640646   8.345   0.102   2.947  0.1046  0.1131 -0.6026
   46MOL    C5740647   0.096   0.175   2.966 -0.5963  0.2163  0.0063
   46MOL    C5840648   0.098   0.304   3.017 -0.1691 -0.8136  0.1449
   46MOL    C5940649   8.341   0.371   3.046 -0.3713 -0.2378 -0.3840
   46MOL    C6040650   8.215   0.299   3.029  0.5402 -0.3155  0.5413
   46MOL    C6140651   8.221   0.161   2.987 -0.5148 -0.2428 -0.7464
   46MOL    O6240652   8.346   0.510   3.066  0.0315 -0.3690 -1.1994
   46MOL    C6340653   0.015   0.552   3.194 -0.2535 -0.2980 -0.2460
   46MOL    C6440654   8.284   0.621   3.272  0.1163  0.1195  0.2416
   46MOL    C6540655   8.322   0.676   3.393  1.0353  0.2039 -0.5970
   46MOL    C6640656   0.085   0.662   3.446  0.3918  0.6394  0.0013
   46MOL    C6740657   0.183   0.605   3.363 -0.0651  0.0245 -0.1730
   46MOL    C6840658   0.150   0.551   3.235  0.8589 -0.2037 -0.5288
   46MOL    C6940659   0.119   0.703   3.578 -0.3228 -0.1500 -0.3481
   46MOL    C7040660   0.232   0.783   3.597  0.1068 -0.0731 -0.0920
   46MOL    C7140661   0.264   0.832   3.724 -0.3044 -0.4271 -0.3171
   46MOL    C7240662   0.192   0.795   3.841  0.7359 -0.3644  0.3089
   46MOL    C7340663   0.075   0.721   3.819 -0.6851 -0.0392  0.3734
   46MOL    C7440664   0.035   0.680   3.692  0.4541 -0.0250  0.0845
   46MOL    O7540665   0.242   0.811   3.971 -0.5049  0.6767  0.2686
   46MOL    H7640666   0.141   0.073   2.431  2.9692 -0.5106  2.4203
   46MOL    H7740667   0.175   0.040   2.683 -0.9357 -1.7297  1.0167
   46MOL    H7840668   8.132   8.245   2.707 -0.5482  0.9211 -1.5503
   46MOL    H7940669   8.114   8.270   2.462 -0.6566 -0.2697  0.6262
   46MOL    H8040670   0.195   0.142   2.935  0.2009  2.7999 -0.2944
   46MOL    H8140671   0.189   0.362   3.025 -1.9762  2.3400 -1.1733
   46MOL    H8240672   8.120   0.344   3.056  1.8423  1.4614  2.3140
   46MOL    H8340673   8.130   0.106   2.969 -0.4488 -0.1957 -1.2066
   46MOL    H8440674   8.181   0.634   3.239  1.3442  1.4379 -3.3504
   46MOL    H8540675   8.243   0.711   3.457  0.0929 -1.6110 -0.7364
   46MOL    H8640676   0.286   0.593   3.393 -0.5254 -1.0123  1.0738
   46MOL    H8740677   0.231   0.518   3.171  1.1405  0.1404 -0.3512
   46MOL    H8840678   0.286   0.800   3.505  2.1995  2.2408  1.4970
   46MOL    H8940679   0.349   0.898   3.732 -0.7873  0.1971 -0.3337
   46MOL    H9040680   0.017   0.703   3.908  1.4999 -0.8314  1.6711
   46MOL    H9140681   8.310   0.623   3.689  0.7568 -0.5026  0.0227
   46MOL    C9240682   0.333   0.719   4.014 -0.2248  0.7172 -0.1336
   46MOL    C9340683   0.473   0.731   3.992  0.0803  0.0691  0.1936
   46MOL    C9440684   0.561   0.631   4.031  0.9105 -0.2284 -0.8336
   46MOL    C9540685   0.517   0.531   4.122  0.4236 -0.0050 -0.3034
   46MOL    C9640686   0.385   0.529   4.168  0.5779 -0.3484 -0.3749
   46MOL    C9740687   0.292   0.615   4.098 -0.7341 -0.1095  0.1489
   46MOL    S9840688   0.643   0.425   4.206 -0.0808 -0.2052 -0.3335
   46MOL    O9940689   0.588   0.372   4.330  0.2740 -0.0376  0.2194
   46MOL   O10040690   0.778   0.487   4.204 -0.4501 -0.1734  0.4770
   46MOL   C10140691   0.668   0.284   4.093 -0.1921  0.0815  0.5749
   46MOL   C10240692   0.573   0.263   3.987 -0.2401 -0.5592 -0.4235
   46MOL   C10340693   0.592   0.158   3.903 -0.2877  0.1381 -0.1499
   46MOL   C10440694   0.697   0.062   3.923  0.1226 -0.4355  0.7410
   46MOL   C10540695   0.790   0.085   4.029  0.2660 -0.0372 -0.1110
   46MOL   C10640696   0.779   0.202   4.104  0.5494 -0.1496 -0.3855
   46MOL   O10740697   0.702   8.306   3.853  0.1716  0.6656  0.2888
   46MOL   C10840698   0.685   8.313   3.717 -0.7588 -0.5038 -0.3126
   46MOL   C10940699   0.577   8.241   3.662  0.0690  0.2353 -0.0263
   46MOL   C11040700   0.546   8.259   3.529  0.7674  0.1297 -0.3561
   46MOL   C11140701   0.608   8.350   3.445 -0.4486 -0.1848 -0.0771
   46MOL   C11240702   0.722   0.052   3.498 -0.9210 -0.2246 -0.5048
   46MOL   C11340703   0.758   0.026   3.627 -0.5346  0.5417 -0.3463
   46MOL   C11440704   0.572   0.009   3.303 -0.1140 -0.7812 -0.1237
   46MOL   C11540705   0.522   8.269   3.228  0.3266  0.1202  0.1446
   46MOL   C11640706   0.493   8.294   3.091  0.3952  0.3971 -0.1504
   46MOL   C11740707   0.516   0.058   3.034 -0.0011 -0.1805  0.3492
   46MOL   C11840708   0.570   0.159   3.117  0.2358  0.0293  0.1172
   46MOL   C11940709   0.597   0.137   3.251  0.3968 -0.2258  0.8420
   46MOL   O12040710   0.471   0.083   2.907  0.0577 -0.1615  0.0503
   46MOL   H12140711   0.512   0.813   3.935 -1.0299  1.5843  1.5797
   46MOL   H12240712   0.668   0.630   4.021  1.3492 -1.3768  3.1489
   46MOL   H12340713   0.356   0.456   4.242  1.4447 -0.5167 -0.2007
   46MOL   H12440714   0.187   0.602   4.120 -1.2543  1.6082 -1.2299
   46MOL   H12540715   0.488   0.327   3.970 -0.1267  0.9854  4.0222
   46MOL   H12640716   0.521   0.136   3.825 -0.7615 -2.9873  1.1062
   46MOL   H12740717   0.861   0.011   4.062 -0.3650  0.1909  1.8184
   46MOL   H12840718   0.854   0.225   4.179  0.0516 -0.2136  0.1343
   46MOL   H12940719   0.520   8.174   3.726 -0.0804 -3.1525 -3.5126
   46MOL   H13040720   0.466   8.198   3.489  0.3596 -1.8729  3.3064
   46MOL   H13140721   0.784   0.118   3.439 -0.0624  0.8475  1.5214
   46MOL   H13240722   0.843   0.081   3.667 -2.3299  3.4518 -0.3766
   46MOL   H13340723   0.521   8.166   3.261  0.7630 -0.1413 -0.6586
   46MOL   H13440724   0.471   8.211   3.025  2.7691  0.1147 -0.6170
   46MOL   H13540725   0.571   0.260   3.077  0.3473  0.3125  0.8293
   46MOL   H13640726   0.649   0.208   3.314  0.4196 -1.1017  1.8362
   46MOL   C13740727   0.523   0.007   2.809 -0.0907 -1.1583  0.3553
   46MOL   C13840728   0.451   8.273   2.742 -0.0315 -0.4811  0.0855
   46MOL   C13940729   0.509   8.189   2.646  0.2638 -0.4001  0.3597
   46MOL   C14040730   0.649   8.193   2.626 -0.0928  0.4213  0.1861
   46MOL   C14140731   0.727   8.283   2.697 -0.1797 -0.7389  0.1510
   46MOL   C14240732   0.664   0.006   2.789  0.0615 -0.2813 -0.9382
   46MOL   S14340733   0.732   8.100   2.499 -0.5335 -0.1842 -0.1506
   46MOL   O14440734   0.727   7.959   2.543  0.2011 -0.1666 -0.8544
   46MOL   O14540735   0.858   8.173   2.475  0.2496  0.0576  0.0696
   46MOL   C14640736   0.619   8.096   2.362 -0.0487 -0.6235 -0.6735
   46MOL   C14740737   0.544   7.980   2.335  0.3783 -0.0820 -0.6312
   46MOL   C14840738   0.459   7.972   2.228 -0.3500 -0.8297 -0.1878
   46MOL   C14940739   0.433   8.086   2.143  0.1126  0.9232 -0.0981
   46MOL   C15040740   0.501   8.200   2.171 -0.2993  0.0576 -0.5951
   46MOL   C15140741   0.592   8.206   2.280 -0.0181  0.3073  0.0922
   46MOL   O15240742   0.357   8.066   2.032 -0.0534  0.7902 -0.2277
   46MOL   C15340743   0.422   8.006   1.927 -0.3270 -0.4490 -0.5949
   46MOL   C15440744   0.403   7.879   1.889  0.9238  0.1406 -0.6012
   46MOL   C15540745   0.472   7.815   1.781  0.5306  0.1185 -0.1488
   46MOL   C15640746   0.559   7.894   1.703  0.1147  0.2750  0.1767
   46MOL   C15740747   0.580   8.026   1.745  0.0036 -0.3130 -0.1755
   46MOL   C15840748   0.520   8.082   1.857 -0.5800 -0.4011  0.4989
   46MOL   C15940749   0.638   7.844   1.581  0.0348  0.1490 -0.1856
   46MOL   C16040750   0.702   7.932   1.490  0.5721  0.4801 -0.0581
   46MOL   C16140751   0.781   7.888   1.386  0.4867 -0.1315 -0.3571
   46MOL   C16240752   0.816   7.758   1.372 -0.4594  0.3021  0.2785
   46MOL   C16340753   0.756   7.659   1.460 -0.1290  0.1018  0.6642
   46MOL   C16440754   0.671   7.706   1.563  0.0121  0.2254  0.5613
   46MOL   O16540755   0.910   7.725   1.278  0.9733  0.3543  0.3456
   46MOL   H16640756   0.346   8.259   2.764 -0.3554  0.3236 -0.9328
   46MOL   H16740757   0.456   8.113   2.591 -1.7084 -0.0865  1.7772
   46MOL   H16840758   0.832   8.303   2.679 -0.1760 -0.2410  0.7270
   46MOL   H16940759   0.729   0.071   2.845 -0.6995 -0.6380  0.3700
   46MOL   H17040760   0.560   7.883   2.380 -0.0772  0.4091  0.5947
   46MOL   H17140761   0.406   7.885   2.194 -1.5606  0.1907 -0.9570
   46MOL   H17240762   0.486   8.285   2.106  1.8016  0.3616 -0.7209
   46MOL   H17340763   0.648   8.293   2.311 -1.0395  0.9174  0.2589
   46MOL   H17440764   0.334   7.829   1.955  0.5298  1.5914  0.1080
   46MOL   H17540765   0.453   7.718   1.738 -0.0193  0.1780 -0.0345
   46MOL   H17640766   0.647   8.096   1.697 -0.3664  0.1662 -0.0092
   46MOL   H17740767   0.531   8.183   1.892  0.3069 -0.3665  0.1152
   46MOL   H17840768   0.690   8.038   1.506  1.6702  0.5672  0.2798
   46MOL   H17940769   0.822   7.970   1.329 -1.0673  1.3158  0.5667
   46MOL   H18040770   0.774   7.553   1.465  0.7306  0.2495  0.8699
   46MOL   H18140771   0.634   7.639   1.639 -0.1327 -0.7109 -0.3150
   46MOL   C18240772   0.935   7.593   1.255  0.1683  0.2016 -0.3007
   46MOL   C18340773   1.024   7.528   1.337  0.3223  0.1951  0.0140
   46MOL   C18440774   1.033   7.388   1.339 -0.0522  0.0718 -0.2143
   46MOL   C18540775   0.973   7.315   1.231 -0.3531  0.3787 -0.0204
   46MOL   C18640776   0.900   7.383   1.135 -0.6477  0.1950 -0.0982
   46MOL   C18740777   0.874   7.518   1.147 -0.1466  0.2235  0.7850
   46MOL   S18840778   1.008   7.142   1.208 -0.4827  0.1397 -0.1434
   46MOL   O18940779   1.058   7.099   1.338 -0.0420  0.0776 -0.1487
   46MOL   O19040780   1.094   7.139   1.091  0.6888 -0.4124 -0.1237
   46MOL   C19140781   0.852   7.060   1.171 -0.1337 -1.2679 -0.4966
   46MOL   C19240782   0.788   6.991   1.273 -0.8096  0.3529  0.0850
   46MOL   C19340783   0.668   6.925   1.248  0.0301 -0.4174 -0.1574
   46MOL   C19440784   0.606   6.935   1.128 -0.4216 -0.9453 -0.2695
   46MOL   C19540785   0.669   6.999   1.021  0.5896  0.5355 -0.0604
   46MOL   C19640786   0.793   7.064   1.040 -0.2697 -0.3925  0.2688
   46MOL   O19740787   0.482   6.885   1.113 -0.5997 -0.6632 -0.3259
   46MOL   C19840788   0.448   6.791   1.021 -0.3240  0.2157 -0.9268
   46MOL   C19940789   0.441   6.653   1.051 -0.3025 -0.3583 -0.6812
   46MOL   C20040790   0.386   6.568   0.953 -0.4325  0.2074  0.5762
   46MOL   C20140791   0.324   6.614   0.831  0.2818 -0.5201 -0.5458
   46MOL   C20240792   0.345   6.744   0.798  0.0643 -0.2414  0.2493
   46MOL   C20340793   0.411   6.833   0.889 -0.0936 -0.9048  0.2209
   46MOL   C20440794   0.264   6.522   0.732 -0.9923 -0.3408  0.1253
   46MOL   C20540795   0.129   6.535   0.700  0.4297  0.2575  0.3839
   46MOL   C20640796   0.065   6.449   0.610  0.2007  0.2158 -0.5296
   46MOL   C20740797   0.139   6.345   0.548 -0.1509  0.0832 -0.8208
   46MOL   C20840798   0.280   6.342   0.569 -0.5100  0.7428 -0.2367
   46MOL   C20940799   0.344   6.429   0.659  0.0351 -0.3944  0.1740
   46MOL   O21040800   0.078   6.243   0.485  0.2182  0.3710  0.3652
   46MOL   H21140801   1.085   7.587   1.403  0.8920  1.2355 -1.4263
   46MOL   H21240802   1.107   7.336   1.398  0.4669  0.2531 -0.7004
   46MOL   H21340803   0.853   7.328   1.054 -0.0077  0.8978 -0.9575
   46MOL   H21440804   0.799   7.560   1.082  1.0423  1.1217 -0.0223
   46MOL   H21540805   0.832   6.980   1.371 -0.5475 -1.3611 -0.2021
   46MOL   H21640806   0.618   6.878   1.332 -0.8852  1.9352  0.6524
   46MOL   H21740807   0.616   7.001   0.927  2.0114 -1.6221 -0.9456
   46MOL   H21840808   0.846   7.107   0.956  0.8951 -0.7297  0.8153
   46MOL   H21940809   0.483   6.605   1.138  1.2190 -0.9763 -1.7368
   46MOL   H22040810   0.369   6.463   0.975  1.3115 -0.7529 -2.4152
   46MOL   H22140811   0.318   6.778   0.699  1.7493 -1.9144 -0.8161
   46MOL   H22240812   0.413   6.938   0.861 -1.7782 -1.3507 -1.7022
   46MOL   H22340813   0.061   6.602   0.750  0.4805  0.0559  0.7281
   46MOL   H22440814   8.326   6.457   0.586  0.1626 -1.4578 -1.0211
   46MOL   H22540815   0.341   6.262   0.530 -1.9518 -1.0206  1.0490
   46MOL   H22640816   0.447   6.414   0.689  0.5907  0.6541 -1.1771
   46MOL   C22740817   0.101   6.111   0.519 -0.0072 -0.8436 -0.2779
   46MOL   C22840818   0.063   6.005   0.425  0.3324  0.3251  0.8107
   46MOL   C22940819   0.070   5.871   0.463 -0.0499  0.1005 -0.0500
   46MOL   C23040820   0.117   5.838   0.593  0.2701 -0.9757  0.4151
   46MOL   C23140821   0.148   5.938   0.692  0.0246  0.1796  0.0359
   46MOL   C23240822   0.136   6.072   0.652  0.0077 -0.1697  0.1745
   46MOL   S23340823   0.156   5.674   0.633 -0.0983  0.0611 -0.0001
   46MOL   O23440824   0.097   5.638   0.760  0.3873  0.2635 -0.2395
   46MOL   O23540825   0.303   5.657   0.618  0.1731 -0.2185 -0.0936
   46MOL   C23640826   0.068   5.572   0.507  0.0261 -0.3603 -0.5654
   46MOL   C23740827   0.138   5.523   0.400  0.3719  0.3996  0.3324
   46MOL   C23840828   0.082   5.424   0.316 -0.1411  0.5901 -0.8129
   46MOL   C23940829   8.316   5.382   0.343 -0.4378 -0.1410  0.4156
   46MOL   C24040830   8.243   5.439   0.444  1.0718 -0.4403  0.6966
   46MOL   C24140831   8.301   5.535   0.525  0.4812  0.5075  0.2581
   46MOL   O24240832   8.255   5.287   0.265 -0.5259 -0.0392 -0.4288
   46MOL   C24340833   8.319   5.162   0.253  0.8577 -0.0984  0.2778
   46MOL   C24440834   0.016   5.105   0.364  0.6005  0.2327 -0.1649
   46MOL   C24540835   0.059   4.976   0.365  0.4983 -0.3098 -1.4354
   46MOL   C24640836   0.043   4.898   0.254 -0.3365  0.2282  0.1250
   46MOL   C24740837   8.343   4.947   0.141 -0.2501 -0.9144 -0.0843
   46MOL   C24840838   8.297   5.084   0.143  0.1853 -0.1760 -0.6438
   46MOL   C24940839   0.099   4.757   0.259  1.0106 -0.0170 -0.4589
   46MOL   C25040840   0.141   4.694   0.377  0.0838  0.0340 -0.3355
   46MOL   C25140841   0.205   4.565   0.381  1.0130 -0.0101 -0.1760
   46MOL   C25240842   0.209   4.495   0.263  0.5259 -0.1377 -0.1147
   46MOL   C25340843   0.166   4.553   0.143 -0.4769  0.5145  0.3855
   46MOL   C25440844   0.121   4.682   0.137  0.2195 -0.0831 -0.1449
   46MOL   O25540845   0.267   4.373   0.255  0.6993 -0.7332 -0.6285
   46MOL   H25640846   0.038   6.033   0.324 -0.7964  1.3972  1.3667
   46MOL   H25740847   0.056   5.797   0.386  1.0284 -0.8006  0.5960
   46MOL   H25840848   0.183   5.906   0.789 -0.2873 -0.8221 -0.1682
   46MOL   H25940849   0.168   6.139   0.731  1.2172 -2.1856  1.4342
   46MOL   H26040850   0.243   5.547   0.385  0.7935 -1.2865  0.4174
   46MOL   H26140851   0.141   5.367   0.247 -0.1207 -0.0436 -0.2767
   46MOL   H26240852   8.141   5.408   0.458  0.7387  0.3603  0.0627
   46MOL   H26340853   8.254   5.554   0.620 -0.1699 -1.8326  0.4474
   46MOL   H26440854   0.040   5.165   0.451  1.3523 -1.0785  0.5399
   46MOL   H26540855   0.116   4.945   0.452 -0.6201 -0.5006 -0.7576
   46MOL   H26640856   8.330   4.884   0.054  1.7402 -0.6866 -0.5675
   46MOL   H26740857   8.240   5.121   0.059  0.9522  0.8139 -0.7354
   46MOL   H26840858   0.127   4.750   0.468  3.5032  2.0628 -0.9818
   46MOL   H26940859   0.240   4.525   0.475  2.4048 -0.9340 -1.0762
   46MOL   H27040860   0.179   4.501   0.049 -1.1712 -0.5206  0.8530
   46MOL   H27140861   0.079   4.718   0.044  0.7019  2.4471  0.5806
   46MOL   C27240862   0.227   4.278   0.346  0.5936  0.0772  0.4776
   46MOL   C27340863   0.312   4.268   0.455 -1.0810  0.2703  0.8328
   46MOL   C27440864   0.293   4.181   0.560  0.0260  0.1307  0.1649
   46MOL   C27540865   0.179   4.096   0.548 -0.2285 -0.0218  0.4761
   46MOL   C27640866   0.093   4.099   0.437 -0.0548  0.0118 -0.0306
   46MOL   C27740867   0.120   4.186   0.327 -0.6348 -0.4864  0.9355
   46MOL   S27840868   0.151   3.988   0.690 -0.0051 -0.3473  0.1114
   46MOL   O27940869   0.222   4.039   0.807  0.6962  0.0881 -0.1178
   46MOL   O28040870   0.186   3.852   0.636  0.6046 -0.1900 -0.4950
   46MOL   C28140871   8.348   3.989   0.715 -0.1635  0.2225  0.0654
   46MOL   C28240872   8.285   4.095   0.783  0.3459  0.0947 -0.4578
   46MOL   C28340873   8.146   4.092   0.811 -0.5869 -0.0443  0.2394
   46MOL   C28440874   8.070   3.984   0.757  0.5021  0.2477  0.1570
   46MOL   C28540875   8.133   3.876   0.701 -0.2598  0.3837  0.0224
   46MOL   C28640876   8.273   3.879   0.675  0.0174 -0.1258  0.4895
   46MOL   O28740877   7.938   3.987   0.763 -0.2422 -0.1901 -0.6628
   46MOL   C28840878   7.872   4.049   0.655  0.4422  0.0319 -0.3678
   46MOL   C28940879   7.937   4.125   0.556  0.3185  0.1468 -0.1169
   46MOL   C29040880   7.858   4.190   0.462 -0.3695  0.2386  0.3566
   46MOL   C29140881   7.716   4.182   0.453  0.0624 -0.0793 -0.3737
   46MOL   C29240882   7.653   4.101   0.551 -0.0161  1.0090  0.6450
   46MOL   C29340883   7.727   4.031   0.649  0.4030  1.0082  0.1411
   46MOL   C29440884   7.629   4.258   0.354 -0.5096 -0.0587 -0.6162
   46MOL   C29540885   7.515   4.329   0.383  0.3891 -0.4736  0.0210
   46MOL   C29640886   7.434   4.378   0.287 -0.1666 -0.6717 -0.2429
   46MOL   C29740887   7.460   4.365   0.151  0.2173 -0.3551 -0.1067
   46MOL   C29840888   7.583   4.309   0.120 -0.2145  0.7315 -0.5106
   46MOL   C29940889   7.658   4.244   0.216  0.2923 -1.0026  0.2387
   46MOL   O30040890   7.385   4.416   0.051 -0.0987  0.3248 -0.1722
   46MOL   H30140891   0.404   4.326   0.454 -0.7975 -0.1313 -1.6629
   46MOL   H30240892   0.355   4.162   0.646  0.2296  0.5564  0.1148
   46MOL   H30340893   0.003   4.038   0.440  0.4898 -0.7964  0.0295
   46MOL   H30440894   0.051   4.183   0.244 -1.0223  0.3217  1.2166
   46MOL   H30540895   8.346   4.175   0.822  0.2733 -0.3635  0.6156
   46MOL   H30640896   8.093   4.176   0.853 -1.3213  0.3659 -1.4689
   46MOL   H30740897   8.078   3.792   0.662 -1.5664  0.8034  0.9684
   46MOL   H30840898   8.327   3.800   0.626 -0.6403 -0.0199 -0.4033
   46MOL   H30940899   8.041   4.150   0.571  0.0384  2.9291 -2.4525
   46MOL   H31040900   7.908   4.252   0.389 -2.8853  1.0757 -0.7446
   46MOL   H31140901   7.547   4.096   0.530  0.0729  1.7086  0.0019
   46MOL   H31240902   7.671   3.974   0.722 -2.5650  3.8386  0.2053
   46MOL   H31340903   7.495   4.343   0.488  1.0472  1.9666 -0.1484
   46MOL   H31440904   7.343   4.428   0.319 -0.3496 -0.4905 -1.0388
   46MOL   H31540905   7.612   4.301   0.017  0.7062 -2.7251 -0.0461
   46MOL   H31640906   7.743   4.184   0.188  1.6163  0.2533  1.4904
   46MOL   C31740907   7.265   4.358   0.039  0.0150 -0.7371 -0.4274
   46MOL   C31840908   7.160   4.431   0.091 -0.3874 -0.4771  0.5553
   46MOL   C31940909   7.028   4.378   0.086  0.0362 -0.1681 -0.7875
   46MOL   C32040910   7.008   4.247   0.025 -0.2470  0.6357  0.4535
   46MOL   C32140911   7.117   4.180   8.328 -0.0451  0.5244  0.1832
   46MOL   C32240912   7.250   4.233   8.341 -0.1689 -0.3524  0.5415
   46MOL   S32340913   6.843   4.183   0.004 -0.0713  0.4541 -0.2170
   46MOL   O32440914   6.787   4.197   0.140  0.1038  0.5682  0.6410
   46MOL   O32540915   6.864   4.051   8.303  0.5763 -0.0338 -0.1822
   46MOL   C32640916   6.776   4.297   8.254 -0.3516 -0.5904  0.4257
   46MOL   C32740917   6.819   4.295   8.120 -0.0247  0.1912 -0.3217
   46MOL   C32840918   6.762   4.388   8.025  0.1767  1.0613  0.7751
   46MOL   C32940919   6.664   4.479   8.068 -0.2152 -0.0255  0.0634
   46MOL   C33040920   6.624   4.477   8.208  0.8470  0.0850 -0.3837
   46MOL   C33140921   6.681   4.389   8.296  1.0645 -0.3267 -0.3092
   46MOL   O33240922   6.606   4.560   7.975 -0.0234  0.6726  0.0312
   46MOL   C33340923   6.599   4.694   8.004 -0.1993 -0.3990 -0.6616
   46MOL   C33440924   6.715   4.777   8.030  0.1395 -0.1400 -0.5245
   46MOL   C33540925   6.692   4.909   8.070  0.2045 -0.0886  0.1252
   46MOL   C33640926   6.565   4.972   8.065  0.1937  0.2016  0.0109
   46MOL   C33740927   6.455   4.892   8.025 -0.0602 -0.0281  0.4946
   46MOL   C33840928   6.472   4.754   7.993  0.0441 -0.2218 -0.6637
   46MOL   C33940929   6.547   5.113   8.121 -0.3603  0.0885  0.6277
   46MOL   C34040930   6.462   5.209   8.060 -0.1356  0.2994  0.7170
   46MOL   C34140931   6.431   5.332   8.118 -0.3576 -0.5579 -0.4007
   46MOL   C34240932   6.499   5.374   8.233  0.2808 -0.1321 -0.5706
   46MOL   C34340933   6.591   5.284   8.296 -0.1694 -0.4505 -0.1493
   46MOL   C34440934   6.613   5.158   8.241  0.0814  0.4134 -0.3548
   46MOL   O34540935   6.478   5.497   8.294  0.5020  0.2177  0.0929
   46MOL   H34640936   7.175   4.530   0.132  0.7727 -0.8378  1.0022
   46MOL   H34740937   6.952   4.445   0.124  0.9349  0.2051  0.3555
   46MOL   H34840938   7.110   4.086   8.275 -0.4488 -1.3497  3.4312
   46MOL   H34940939   7.337   4.185   8.297 -0.5735  0.4319 -1.1771
   46MOL   H35040940   6.886   4.218   8.083 -0.1760 -0.4233  0.6714
   46MOL   H35140941   6.790   4.385   7.921 -2.0413  1.8676  0.1381
   46MOL   H35240942   6.550   4.548   8.243 -1.3892 -1.7953 -1.1948
   46MOL   H35340943   6.646   4.388   0.032 -1.5711 -0.0988 -1.1547
   46MOL   H35440944   6.816   4.739   8.029  0.5275  0.8731 -1.1574
   46MOL   H35540945   6.779   4.964   8.100  0.1874  0.3034 -0.5180
   46MOL   H35640946   6.355   4.932   8.026  0.0455  0.2540  0.1845
   46MOL   H35740947   6.391   4.692   7.957 -0.2493 -1.7532  2.4251
   46MOL   H35840948   6.415   5.182   7.967 -0.8417 -1.6997  1.6319
   46MOL   H35940949   6.360   5.392   8.064  0.4242 -1.1239 -2.1152
   46MOL   H36040950   6.644   5.316   0.018  0.5882  0.3461 -0.8912
   46MOL   H36140951   6.677   5.092   8.297  0.8595 -0.1544 -1.8972
   46MOL   C36240952   6.522   5.615   8.236 -0.1628 -0.7465  0.7488
   46MOL   C36340953   6.651   5.664   8.257 -0.1661 -0.1917 -0.0848
   46MOL   C36440954   6.689   5.785   8.194 -0.4030  0.7171 -0.5894
   46MOL   C36540955   6.592   5.864   8.125  1.2451  0.6000 -0.0177
   46MOL   C36640956   6.463   5.812   8.093 -0.4020  0.0168  0.9612
   46MOL   C36740957   6.432   5.685   8.148  0.1758 -0.4219  0.2324
   46MOL   S36840958   6.649   6.023   8.061 -0.0660 -0.4374 -0.2817
   46MOL   O36940959   6.755   6.074   8.151  0.5330 -0.0711  0.2408
   46MOL   O37040960   6.536   6.109   8.023  0.3906 -0.5166  0.2693
   46MOL   C37140961   6.722   5.968   7.902  0.2509 -0.2122 -0.3062
   46MOL   C37240962   6.656   6.002   7.784 -0.2988 -0.1354 -0.6030
   46MOL   C37340963   6.692   5.952   7.658 -0.8515 -0.2754 -0.5948
   46MOL   C37440964   6.816   5.877   7.654  0.1248 -0.0702 -0.0390
   46MOL   C37540965   6.883   5.846   7.775 -0.6262  0.2912 -0.7677
   46MOL   C37640966   6.836   5.892   7.901 -0.6128  0.8835 -0.1534
   46MOL   O37740967   6.878   5.839   7.538 -0.3316 -0.7555  0.4578
   46MOL   C37840968   6.840   5.722   7.490 -0.2796 -0.0461 -0.2175
   46MOL   C37940969   6.752   5.710   7.379  0.2102  0.6259  0.6649
   46MOL   C38040970   6.730   5.590   7.309 -0.5112  0.1334  0.0696
   46MOL   C38140971   6.795   5.469   7.355  0.8316 -0.5615  0.0994
   46MOL   C38240972   6.879   5.481   7.469 -0.5801  0.1024  0.3511
   46MOL   C38340973   6.903   5.603   7.532 -0.7807 -1.1416  0.3406
   46MOL   C38440974   6.767   5.334   7.298  0.4558 -0.2267  0.4001
   46MOL   C38540975   6.873   5.239   7.296 -0.2564  0.0774  0.4049
   46MOL   C38640976   6.854   5.107   7.247  0.2026 -0.6594  0.6784
   46MOL   C38740977   6.722   5.063   7.211 -0.0893  0.6729 -0.7363
   46MOL   C38840978   6.614   5.155   7.212  0.5062  0.0067  0.1626
   46MOL   C38940979   6.636   5.286   7.261  0.2793 -0.2933 -0.3968
   46MOL   O39040980   6.702   4.940   7.155  0.0504  0.0127  0.8638
   46MOL   H39140981   6.718   5.606   8.319 -0.3252 -0.2854  0.0009
   46MOL   H39240982   6.784   5.826   8.224  0.3544 -0.2462 -1.6417
   46MOL   H39340983   6.400   5.875   8.033 -0.7782  1.7126  3.0697
   46MOL   H39440984   6.339   5.632   8.133 -0.7699  0.9740  1.1134
   46MOL   H39540985   6.573   6.071   7.793 -0.4224 -0.1889 -1.3459
   46MOL   H39640986   6.636   5.986   7.572  0.3145 -1.1361 -1.7129
   46MOL   H39740987   6.976   5.791   7.782  0.6807  2.1692 -2.7373
   46MOL   H39840988   6.898   5.881   7.989 -0.6625  1.1144 -0.0883
   46MOL   H39940989   6.693   5.797   7.356 -0.2606  0.8182  2.4688
   46MOL   H40040990   6.663   5.588   7.224 -1.5319  1.1374  0.8353
   46MOL   H40140991   6.940   5.397   7.502 -0.2369  0.0563 -0.3988
   46MOL   H40240992   6.960   5.601   7.624  0.3484 -1.8096 -0.3631
   46MOL   H40340993   6.972   5.270   7.324 -0.8126  0.3043  2.1776
   46MOL   H40440994   6.940   5.043   7.240  1.1358  0.5533  0.9230
   46MOL   H40540995   6.514   5.124   7.184 -0.3185  3.2544 -0.7211
   46MOL   H40640996   6.560   5.363   7.260  1.6683  1.0904 -0.0863
   46MOL   C40740997   6.763   4.838   7.224  0.0148  0.5369  0.3407
   46MOL   C40840998   6.729   4.812   7.361  0.1588 -0.1961 -0.5430
   46MOL   C40940999   6.785   4.702   7.429 -0.4522 -0.9523  0.2114
   46MOL   C41041000   6.865   4.615   7.361  0.4949 -0.6713  0.2577
   46MOL   C41141001   6.891   4.637   7.224 -0.1035 -0.1192 -0.0656
   46MOL   C41241002   6.849   4.755   7.161  0.3133  0.0024  0.0686
   46MOL   S41341003   6.927   4.457   7.431 -0.2379 -0.0666  0.5203
   46MOL   O41441004   6.937   4.353   7.326  0.9591 -0.0384  0.3471
   46MOL   O41541005   6.846   4.431   7.548 -0.1775 -0.1020  0.5841
   46MOL   C41641006   7.099   4.481   7.486  0.8201 -0.1934  0.3106
   46MOL   C41741007   7.132   4.424   7.608 -0.0472  0.4716 -0.3062
   46MOL   C41841008   7.262   4.440   7.657 -0.0921  0.0991 -0.4713
   46MOL   C41941009   7.361   4.501   7.579  0.0386  0.3074 -0.1904
   46MOL   C42041010   7.328   4.549   7.451 -0.1089 -0.8050 -0.6917
   46MOL   C42141011   7.199   4.539   7.405 -0.1061 -0.0525 -0.3964
   46MOL   O42241012   7.487   4.527   7.625 -0.3578  0.5433 -0.6470
   46MOL   C42341013   7.499   4.637   7.704  0.2256  0.8683  0.0765
   46MOL   C42441014   7.400   4.736   7.710  0.7083 -0.1791  0.3665
   46MOL   C42541015   7.415   4.858   7.787  1.1072 -0.2844 -0.1390
   46MOL   C42641016   7.530   4.878   7.861 -0.5319  0.1083 -0.4885
   46MOL   C42741017   7.639   4.788   7.842 -0.2891 -0.1410 -0.4156
   46MOL   C42841018   7.617   4.678   7.759 -0.4652  0.1118  0.7381
   46MOL   C42941019   7.536   4.997   7.946  0.1530 -0.5203 -0.3643
   46MOL   C43041020   7.508   5.128   7.893  0.2122  0.4149 -0.2554
   46MOL   C43141021   7.532   5.240   7.973  0.1439  0.3845  0.4317
   46MOL   C43241022   7.576   5.227   8.102 -0.5606  0.5930  0.0047
   46MOL   C43341023   7.593   5.099   8.157 -1.1423 -0.5854  0.1024
   46MOL   C43441024   7.570   4.985   8.083  0.0769  0.1036 -0.6329
   46MOL   O43541025   7.581   5.340   8.184  0.6646  0.3318 -0.0609
   46MOL   H43641026   6.652   4.875   7.402 -0.4579 -1.6455  0.5424
   46MOL   H43741027   6.764   4.684   7.534 -2.2267 -3.3496 -0.4983
   46MOL   H43841028   6.952   4.574   7.162  0.5481  0.9044 -0.4831
   46MOL   H43941029   6.877   4.771   7.057 -0.4681  1.8210  0.1202
   46MOL   H44041030   7.056   4.380   7.670  1.7854 -0.7896  1.1057
   46MOL   H44141031   7.288   4.402   7.754 -0.4958  0.1077 -0.3597
   46MOL   H44241032   7.397   4.603   7.388  1.5436 -3.5137 -1.2722
   46MOL   H44341033   7.172   4.562   7.303  3.4160 -2.9577 -2.0947
   46MOL   H44441034   7.302   4.734   7.665  1.5725  0.6399 -1.5901
   46MOL   H44541035   7.330   4.924   7.789  0.9611 -0.4687 -0.2555
   46MOL   H44641036   7.737   4.805   7.884 -1.2373 -0.0158  1.7886
   46MOL   H44741037   7.703   4.615   7.742 -2.3681 -2.3181 -0.3107
   46MOL   H44841038   7.476   5.141   7.791 -3.4164 -2.9376  0.3281
   46MOL   H44941039   7.514   5.338   7.931 -2.1030 -0.6140 -1.0571
   46MOL   H45041040   7.624   5.094   8.261 -0.1736  0.5395 -0.1280
   46MOL   H45141041   7.596   4.887   8.121 -1.6221  0.0371  0.3880
   46MOL   C45241042   7.671   5.431   8.157 -0.4488 -0.8246 -0.1887
   46MOL   C45341043   7.808   5.394   8.140  0.4428 -0.6812 -0.5549
   46MOL   C45441044   7.904   5.497   8.119 -0.3438 -0.0531 -0.4252
   46MOL   C45541045   7.865   5.629   8.107 -0.5214  0.3143  1.1248
   46MOL   C45641046   7.730   5.669   8.130  0.2805  0.4089  0.2770
   46MOL   C45741047   7.633   5.569   8.147  0.0703  0.4871 -0.0472
   46MOL   S45841048   7.992   5.753   8.068 -0.0903 -0.3695  0.3518
   46MOL   O45941049   7.950   5.876   8.138  0.1086  0.1616 -0.2027
   46MOL   O46041050   8.015   5.747   7.923  0.3639  0.2035 -0.0075
   46MOL   C46141051   8.142   5.696   8.156  0.6487 -0.8322  1.1285
   46MOL   C46241052   8.127   5.665   8.292  0.2348 -0.9461 -0.5111
   46MOL   C46341053   8.238   5.631   0.001 -0.1332  0.4520  0.2845
   46MOL   C46441054   8.365   5.607   8.300 -0.3005 -0.0196 -0.0684
   46MOL   C46541055   0.006   5.641   8.160  0.2313  0.5779 -0.2577
   46MOL   C46641056   8.265   5.686   8.086 -0.0017 -0.5551 -0.3377
   46MOL   O46741057   0.110   5.560   8.366 -0.6863  0.2710 -0.2580
   46MOL   C46841058   0.161   5.441   8.336 -0.5150 -0.3346  0.2018
   46MOL   C46941059   0.075   5.331   8.313  0.1703  0.1682  0.5420
   46MOL   C47041060   0.128   5.203   8.285  0.0934  0.0632  0.3268
   46MOL   C47141061   0.271   5.184   8.279  0.6618 -0.3228 -0.3641
   46MOL   C47241062   0.352   5.296   8.296 -0.1998  0.0764 -0.3255
   46MOL   C47341063   0.300   5.421   8.335 -0.4688  0.2514  0.3886
   46MOL   C47441064   0.327   5.058   8.228  0.8009  0.2468 -0.1412
   46MOL   C47541065   0.434   5.045   8.137 -0.2366 -0.1707  0.1805
   46MOL   C47641066   0.470   4.926   8.080  0.0228  0.3934  0.6237
   46MOL   C47741067   0.413   4.804   8.118  0.0963  0.4543  0.2095
   46MOL   C47841068   0.320   4.808   8.226 -0.8136  0.0161  0.1598
   46MOL   C47941069   0.273   4.931   8.273 -0.3117  0.0693 -0.1220
   46MOL   O48041070   0.446   4.685   8.065  0.5946 -0.1710  0.6360
   46MOL   H48141071   7.838   5.294   8.169 -0.6702 -0.4934  1.3367
   46MOL   H48241072   8.010   5.482   8.107 -0.8765 -3.5492 -1.2311
   46MOL   H48341073   7.696   5.772   8.132 -1.7904 -0.2632  0.5954
   46MOL   H48441074   7.528   5.595   8.145  0.4406  1.9978 -1.4046
   46MOL   H48541075   8.032   5.692   8.336 -0.2131 -1.2340 -1.2984
   46MOL   H48641076   8.230   5.618   0.108 -1.0355  0.8062  0.2635
   46MOL   H48741077   0.105   5.629   8.118 -0.8740 -0.7254 -2.5461
   46MOL   H48841078   8.282   5.713   7.983  0.7437  0.1419 -0.0404
   46MOL   H48941079   8.335   5.352   8.303  0.1636  0.1425  0.5606
   46MOL   H49041080   0.057   5.124   8.266  1.7061 -0.8890 -1.8899
   46MOL   H49141081   0.458   5.286   8.278 -0.0853  0.9967 -0.1902
   46MOL   H49241082   0.364   5.501   0.004  1.7625 -1.3238  0.0237
   46MOL   H49341083   0.493   5.132   8.113 -0.3260 -0.4749 -1.1398
   46MOL   H49441084   0.556   4.921   8.014 -1.1020  3.5303 -1.1895
   46MOL   H49541085   0.295   4.708   8.259  0.2655 -0.9473 -1.8511
   46MOL   H49641086   0.194   4.925   8.346 -1.6844 -1.7395 -1.7212
   46MOL   C49741087   0.370   4.634   7.964  0.0818 -0.2917 -0.3052
   46MOL   C49841088   0.376   4.683   7.827 -0.5833 -0.4910 -0.5195
   46MOL   C49941089   0.307   4.628   7.715  0.6279  0.3447 -0.3068
   46MOL   C50041090   0.216   4.523   7.743 -0.8366  0.5606 -1.3872
   46MOL   C50141091   0.214   4.476   7.876  0.1301  0.1122  0.4775
   46MOL   C50241092   0.290   4.522   7.986 -0.2201 -0.2410 -0.0077
   46MOL   S50341093   0.099   4.449   7.634 -0.3026  0.4614 -0.0875
   46MOL   O50441094   0.117   4.528   7.508 -0.1061  0.4738  0.0087
   46MOL   O50541095   8.335   4.454   7.705  0.9168  0.9091  0.2138
   46MOL   C50641096   0.136   4.276   7.606 -0.2398 -0.2042 -0.7785
   46MOL   C50741097   0.046   4.199   7.528 -0.2320  0.0971 -0.6933
   46MOL   C50841098   0.070   4.060   7.508 -0.1756 -0.0201 -0.9359
   46MOL   C50941099   0.179   3.993   7.564  0.0869 -0.2716  0.1813
   46MOL   C51041100   0.276   4.080   7.631 -0.0216 -0.3441 -0.3793
   46MOL   C51141101   0.249   4.213   7.657  0.3704 -0.2984 -0.2154
   46MOL   O51241102   0.208   3.863   7.536  0.1319 -0.0878  0.3417
   46MOL   C51341103   0.141   3.771   7.612 -0.4828 -1.2596  0.0445
   46MOL   C51441104   0.115   3.785   7.749  0.2712 -0.8621  0.3167
   46MOL   C51541105   0.056   3.679   7.822  0.3070  0.7449  0.9559
   46MOL   C51641106   0.017   3.557   7.755  0.5777  0.5934 -0.2817
   46MOL   C51741107   0.046   3.544   7.619 -0.1553  0.2869 -0.0937
   46MOL   C51841108   0.103   3.650   7.546  0.5369  0.3053  0.1596
   46MOL   C51941109   8.348   3.445   7.842  0.0774 -0.6286  0.0183
   46MOL   C52041110   0.030   3.317   7.812 -0.0723 -0.2444  0.3132
   46MOL   C52141111   8.364   3.216   7.907 -0.5030 -0.5948 -0.7211
   46MOL   C52241112   8.280   3.233   8.013  0.7433  0.1451  0.4738
   46MOL   C52341113   8.220   3.360   8.029 -0.0780  0.2779  0.5162
   46MOL   C52441114   8.258   3.471   7.950 -0.1585  0.3525  0.1384
   46MOL   O52541115   8.255   3.125   8.097  0.1894  0.1607  1.0207
   46MOL   H52641116   0.431   4.773   7.804 -0.6493 -0.3954 -0.3046
   46MOL   H52741117   0.323   4.660   7.613  2.1753 -0.4862 -0.3424
   46MOL   H52841118   0.149   4.390   7.890 -0.0557 -0.3634 -2.7759
   46MOL   H52941119   0.280   4.487   8.088 -1.3514  3.0896  1.0656
   46MOL   H53041120   8.324   4.253   7.494  0.4571  1.8223  0.1903
   46MOL   H53141121   8.359   4.011   7.450 -2.0316  0.0815  1.3776
   46MOL   H53241122   0.368   4.042   7.673 -0.4372 -0.6119  0.2980
   46MOL   H53341123   0.320   4.276   7.708  1.8075 -0.7897 -1.5627
   46MOL   H53441124   0.154   3.872   7.799 -0.7949  0.6539 -1.4382
   46MOL   H53541125   0.048   3.683   7.929  0.2351 -1.6852  1.0719
   46MOL   H53641126   0.033   3.448   7.571 -0.5594  0.3450 -0.1066
   46MOL   H53741127   0.138   3.638   7.445  0.1922  0.1128  0.0644
   46MOL   H53841128   0.097   3.315   7.727 -1.1775  0.7553 -0.6019
   46MOL   H53941129   0.058   3.126   7.900  0.1020 -0.1630 -1.1577
   46MOL   H54041130   8.156   3.381   8.113 -1.3108 -1.8347  0.1344
   46MOL   H54141131   8.209   3.566   7.968  2.0877  1.8854 -1.5970
   46MOL   C54241132   8.224   3.152   8.228 -0.2362  0.0251 -0.1855
   46MOL   C54341133   8.093   3.153   8.274  0.5085 -0.1640 -0.8825
   46MOL   C54441134   8.060   3.192   0.041 -0.2993 -0.6816 -0.6381
   46MOL   C54541135   8.168   3.237   0.125  0.2734 -0.3641  0.1268
   46MOL   C54641136   8.302   3.235   0.087 -0.3143 -0.7585  0.5392
   46MOL   C54741137   8.327   3.196   8.320 -0.5517  0.1898  0.0319
   46MOL   S54841138   8.137   3.307   0.290 -0.0123  0.1007  0.1888
   46MOL   O54941139   8.231   3.235   0.376 -0.4551 -0.2361  0.5598
   46MOL   O55041140   7.995   3.294   0.318  0.3110 -0.8173 -0.2592
   46MOL   C55141141   8.180   3.484   0.288 -0.0662 -0.0091 -0.0908
   46MOL   C55241142   8.290   3.542   0.354  0.1326  0.5634  0.5563
   46MOL   C55341143   8.323   3.679   0.340  0.1424  0.2227  0.0897
   46MOL   C55441144   8.233   3.761   0.271 -0.6324 -1.1731  0.0749
   46MOL   C55541145   8.127   3.702   0.204 -0.1174 -0.7601 -0.6852
   46MOL   C55641146   8.090   3.565   0.218  0.3604 -0.9414  0.6500
   46MOL   O55741147   8.265   3.896   0.252 -0.1367  0.8877 -0.2536
   46MOL   C55841148   8.189   3.978   0.175  0.2650  0.1926  0.4598
   46MOL   C55941149   8.163   3.950   0.039 -0.7020 -0.1073 -0.4934
   46MOL   C56041150   8.072   4.024   8.328  0.0408 -0.6845  1.0794
   46MOL   C56141151   8.014   4.143   0.017  0.1499 -0.0369 -0.9195
   46MOL   C56241152   8.036   4.173   0.150 -0.3077  0.2575 -0.2172
   46MOL   C56341153   8.124   4.091   0.230 -0.4728 -0.7646 -0.5439
   46MOL   C56441154   7.935   4.227   8.288  0.4337 -0.6187  0.2034
   46MOL   C56541155   7.958   4.366   8.271 -0.4332  0.5245 -0.6272
   46MOL   C56641156   7.864   4.444   8.195 -0.0625 -0.3076 -0.0529
   46MOL   C56741157   7.759   4.380   8.122 -0.6787  0.0330 -0.0346
   46MOL   C56841158   7.739   4.239   8.143  0.2672 -0.2378  0.3613
   46MOL   C56941159   7.827   4.165   8.228 -0.3791  0.4651  0.4799
   46MOL   O57041160   7.679   4.453   8.036 -0.6458  0.1885 -0.3488
   46MOL   H57141161   8.011   3.137   8.206 -0.5803 -1.7759  0.7725
   46MOL   H57241162   7.963   3.205   0.086  0.8187 -0.0851  1.7014
   46MOL   H57341163   0.019   3.274   0.145  1.2046 -2.9132 -0.1456
   46MOL   H57441164   0.064   3.190   8.288 -1.3279 -0.5697 -2.4643
   46MOL   H57541165   8.353   3.478   0.414  1.2858  0.2956 -0.9298
   46MOL   H57641166   0.042   3.713   0.396  1.7577  0.7045 -2.5663
   46MOL   H57741167   8.056   3.762   0.149  0.5359 -0.8018 -1.5858
   46MOL   H57841168   8.002   3.533   0.164 -1.3288  0.3258  2.5865
   46MOL   H57941169   8.223   3.875   8.355 -0.5880 -0.9719  0.9119
   46MOL   H58041170   8.064   4.004   8.222  1.4421  1.1723  0.5967
   46MOL   H58141171   7.995   4.262   0.196  0.8286  0.6905 -0.0270
   46MOL   H58241172   8.137   4.122   0.333 -0.7742 -4.8452  0.7999
   46MOL   H58341173   8.031   4.423   8.326  0.0907  1.2592 -2.0652
   46MOL   H58441174   7.874   4.550   8.180 -0.6492  0.0870  2.2268
   46MOL   H58541175   7.662   4.178   8.098 -1.6453  1.3578  1.4251
   46MOL   H58641176   7.803   4.062   8.250 -0.4231  0.7404  1.7622
   46MOL   C58741177   7.546   4.473   8.058 -0.3440 -0.1350 -0.2100
   46MOL   C58841178   7.490   4.600   8.084  0.1150  0.6786  0.5536
   46MOL   C58941179   7.350   4.623   8.086  0.6273 -1.3293 -0.3244
   46MOL   C59041180   7.268   4.514   8.050 -0.4648  0.5400 -0.2327
   46MOL   C59141181   7.325   4.385   8.040  0.6314  0.7567  0.5368
   46MOL   C59241182   7.461   4.364   8.053  0.0792 -0.0336 -0.1876
   46MOL   S59341183   7.091   4.535   8.019  0.1497 -0.3527  0.6186
   46MOL   O59441184   7.031   4.543   8.152 -0.8789  0.7297  0.0876
   46MOL   O59541185   7.050   4.429   7.927  0.1448  0.0745  0.4567
   46MOL   C59641186   7.071   4.693   7.947 -0.0101  0.3194  0.0860
   46MOL   C59741187   7.089   4.809   8.025  0.7773  0.6815  0.0111
   46MOL   C59841188   7.071   4.934   7.962 -0.0365 -0.4325 -0.0401
   46MOL   C59941189   7.050   4.940   7.820 -0.3260 -0.0815 -0.3075
   46MOL   C60041190   7.039   4.818   7.743 -0.2202  0.1030 -0.7690
   46MOL   C60141191   7.043   4.693   7.808  0.3517 -0.3751  0.0551
   46MOL   O60241192   7.045   5.067   7.762 -0.3900 -0.2185  0.5086
   46MOL   C60341193   6.920   5.112   7.739  0.8485 -0.0860 -0.2362
   46MOL   C60441194   6.857   5.086   7.615  0.6097 -0.3643  0.3633
   46MOL   C60541195   6.726   5.126   7.595  0.0363 -0.5476  0.6254
   46MOL   C60641196   6.656   5.208   7.691  0.4703 -0.4826 -0.6651
   46MOL   C60741197   6.714   5.219   7.816 -0.2458 -0.3521 -0.2609
   46MOL   C60841198   6.849   5.178   7.838 -0.1730 -0.2655  0.7578
   46MOL   C60941199   6.529   5.271   7.663  0.2395 -0.5714 -0.4336
   46MOL   C61041200   6.481   5.391   7.728 -0.8594 -0.1201 -0.1046
   46MOL   C61141201   6.370   5.455   7.669 -0.1630 -0.1836 -0.0098
   46MOL   C61241202   6.306   5.411   7.550  0.0846 -0.9334  0.0215
   46MOL   C61341203   6.344   5.286   7.500  0.4810 -0.3025  0.5796
   46MOL   C61441204   6.457   5.218   7.556 -0.2033 -0.2542  0.0994
   46MOL   O61541205   6.200   5.480   7.497  0.5002 -0.3081 -1.0369
   46MOL   H61641206   7.553   4.688   8.083 -0.9305  1.4311  0.8435
   46MOL   H61741207   7.314   4.721   8.115  1.4888 -0.8897 -0.6931
   46MOL   H61841208   7.257   4.302   8.027  1.4461 -0.0646  1.5270
   46MOL   H61941209   7.510   4.272   8.025  2.6588  0.7163  1.6516
   46MOL   H62041210   7.120   4.811   8.128  1.0434 -0.3059 -0.0467
   46MOL   H62141211   7.079   5.021   8.025 -0.1551  0.0548 -0.6974
   46MOL   H62241212   7.031   4.831   7.637 -1.6167  1.8016 -0.4769
   46MOL   H62341213   7.031   4.602   7.751  2.9547  0.8063 -2.5041
   46MOL   H62441214   6.914   5.036   7.538  0.7285 -2.3542  1.7109
   46MOL   H62541215   6.688   5.103   7.496 -0.8957 -0.9733  1.0841
   46MOL   H62641216   6.670   5.279   7.893  2.0322  1.0967 -0.0377
   46MOL   H62741217   6.886   5.215   7.933 -3.2029  2.2156  1.0472
   46MOL   H62841218   6.524   5.432   7.818 -1.2891  0.5626 -0.2087
   46MOL   H62941219   6.336   5.546   7.717  1.2234 -0.7544  2.1511
   46MOL   H63041220   6.295   5.264   7.406 -0.6553 -0.1139  1.1221
   46MOL   H63141221   6.493   5.132   7.501 -0.9336  0.1842 -1.0997
   46MOL   C63241222   6.216   5.566   7.392  0.4622 -0.1983 -0.1400
   46MOL   C63341223   6.341   5.633   7.368  0.0123 -0.1850 -0.0666
   46MOL   C63441224   6.350   5.719   7.257  0.4695 -0.0385  0.0270
   46MOL   C63541225   6.246   5.725   7.159 -0.0822 -0.2024 -0.0987
   46MOL   C63641226   6.123   5.655   7.183  0.1153  0.0500  0.2892
   46MOL   C63741227   6.103   5.590   7.311 -0.7985 -0.1419  0.0332
   46MOL   S63841228   6.277   5.841   7.037  0.1855 -0.1821 -0.0072
   46MOL   O63941229   6.414   5.831   6.982  0.2619 -0.2599 -0.2187
   46MOL   O64041230   6.237   5.969   7.106 -0.1223 -0.1313  0.0410
   46MOL   C64141231   6.167   5.796   6.902  0.0904 -0.3039 -0.3941
   46MOL   C64241232   6.212   5.710   6.802  0.9254 -0.2772  0.2312
   46MOL   C64341233   6.133   5.665   6.699  0.5654  0.9392  0.4672
   46MOL   C64441234   6.002   5.718   6.692 -0.2682 -0.6657  0.1040
   46MOL   C64541235   5.948   5.801   6.793 -0.1419  0.0940 -0.4485
   46MOL   C64641236   6.037   5.848   6.899 -0.0805  0.9686 -0.0543
   46MOL   O64741237   5.911   5.670   6.603  0.0940 -0.9042 -0.0914
   46MOL   C64841238   5.915   5.700   6.465  0.7455  0.0971  0.1212
   46MOL   C64941239   5.845   5.810   6.404  0.2548  0.4691  0.4798
   46MOL   C65041240   5.865   5.839   6.270 -0.0244  0.1795  0.1517
   46MOL   C65141241   5.944   5.755   6.190  0.2641 -0.1099 -0.2200
   46MOL   C65241242   6.002   5.639   6.247 -0.7736 -0.1463 -0.0998
   46MOL   C65341243   5.990   5.613   6.384 -0.4671 -0.7423 -0.6630
   46MOL   C65441244   5.946   5.781   6.047 -0.2828 -0.1794 -0.4473
   46MOL   C65541245   5.945   5.913   5.997 -0.5368  0.2982 -0.4707
   46MOL   C65641246   5.956   5.947   5.866  0.9458  0.6933  0.3500
   46MOL   C65741247   5.938   5.842   5.765 -0.4354 -0.4321 -0.0298
   46MOL   C65841248   5.951   5.711   5.813 -0.9741  0.0002  0.1881
   46MOL   C65941249   5.953   5.679   5.947 -0.0446  0.4955 -0.1715
   46MOL   O66041250   5.908   5.861   5.637  0.1352  0.2785  0.4117
   46MOL   H66141251   6.418   5.612   7.440 -0.5609  0.4243  0.7295
   46MOL   H66241252   6.443   5.765   7.226  0.1448  0.1530 -0.6712
   46MOL   H66341253   6.045   5.669   7.110  0.9192  2.1432 -0.2109
   46MOL   H66441254   6.014   5.544   7.350 -0.3417  0.0239  1.2818
   46MOL   H66541255   6.314   5.675   6.805  1.3513  0.7469 -1.7911
   46MOL   H66641256   6.168   5.593   6.626  0.4989  0.1824  1.1768
   46MOL   H66741257   5.846   5.837   6.791 -0.4021 -0.5300  0.6426
   46MOL   H66841258   5.992   5.907   6.978  0.0039  0.8030  0.1171
   46MOL   H66941259   5.775   5.857   6.471  0.7285  0.6205  0.8706
   46MOL   H67041260   5.803   5.914   6.222 -0.7336 -0.6562 -0.2459
   46MOL   H67141261   6.061   5.572   6.186  1.4592  1.2163  0.5067
   46MOL   H67241262   6.049   5.530   6.421 -0.0953 -0.2679 -0.1795
   46MOL   H67341263   5.956   5.989   6.073 -0.7209 -0.6536  0.5286
   46MOL   H67441264   5.965   6.053   5.843 -0.8375  0.8181  0.1228
   46MOL   H67541265   5.930   5.628   5.746  1.1094 -2.5160  2.5654
   46MOL   H67641266   5.942   5.574   5.969  0.2837  0.2803 -0.9997
   46MOL   C67741267   5.928   5.987   5.584  0.4440  0.1013  0.5080
   46MOL   C67841268   6.058   6.033   5.565 -0.2768  0.4167  0.0983
   46MOL   C67941269   6.073   6.164   5.512  0.2337 -0.4035  0.7129
   46MOL   C68041270   5.959   6.242   5.482  0.2218 -0.1418 -1.0818
   46MOL   C68141271   5.829   6.203   5.516  0.1576  0.5495  0.1452
   46MOL   C68241272   5.815   6.071   5.566 -0.1760  0.0961  0.6031
   46MOL   S68341273   5.964   6.393   5.381 -0.0152  0.4040 -0.1587
   46MOL   O68441274   5.942   6.508   5.473 -0.2318  0.4864  0.6729
   46MOL   O68541275   5.875   6.369   5.262  0.0302 -0.3368 -0.0486
   46MOL   C68641276   6.129   6.419   5.308 -0.2170  0.1578  0.7613
   46MOL   C68741277   6.208   6.535   5.348 -0.9287  0.4682 -0.0629
   46MOL   C68841278   6.342   6.544   5.303  0.0231  1.1223  0.3714
   46MOL   C68941279   6.395   6.444   5.215  0.7479 -0.3107  0.1186
   46MOL   C69041280   6.317   6.330   5.180  0.0137  0.1048  0.1391
   46MOL   C69141281   6.187   6.313   5.228  0.0890 -0.0096 -0.6803
   46MOL   O69241282   6.517   6.454   5.165  0.3320  0.3214  0.1943
   46MOL   C69341283   6.619   6.386   5.233 -0.0035  0.0178  0.6294
   46MOL   C69441284   6.734   6.342   5.161 -0.0251 -0.2622 -0.4515
   46MOL   C69541285   6.839   6.281   5.228 -0.0523  0.5776 -0.0946
   46MOL   C69641286   6.844   6.260   5.365 -0.0410 -0.1660  0.5278
   46MOL   C69741287   6.734   6.315   5.433  0.3137 -0.3274 -0.1693
   46MOL   C69841288   6.623   6.374   5.368  0.1712 -0.0656  0.2649
   46MOL   C69941289   6.961   6.203   5.428  0.3858  1.1714 -0.3317
   46MOL   C70041290   6.968   6.062   5.460 -0.1052  0.6268 -0.6644
   46MOL   C70141291   7.085   6.012   5.524 -0.0302  0.0055  0.3108
   46MOL   C70241292   7.185   6.103   5.560 -0.4430 -0.6268  0.8522
   46MOL   C70341293   7.177   6.241   5.512 -0.4009  0.2853 -0.3179
   46MOL   C70441294   7.067   6.292   5.444 -0.2819 -0.3036  0.6569
   46MOL   O70541295   7.304   6.058   5.612  0.7397 -0.4209  0.0697
   46MOL   H70641296   6.140   5.970   5.596  0.3870  0.7928 -0.8544
   46MOL   H70741297   6.172   6.198   5.486 -0.6033  1.2790 -0.3683
   46MOL   H70841298   5.746   6.271   5.506  0.8826  1.4368  0.1059
   46MOL   H70941299   5.717   6.029   5.584 -0.3975  0.3986  0.1213
   46MOL   H71041300   6.171   6.613   5.414 -2.0567 -0.3790  0.3286
   46MOL   H71141301   6.410   6.618   5.343  2.6808 -1.1532  0.2382
   46MOL   H71241302   6.355   6.255   5.113  0.3380  0.6738 -0.3142
   46MOL   H71341303   6.134   6.225   5.196  1.2078 -1.0637  0.3204
   46MOL   H71441304   6.739   6.339   5.053  1.3578 -0.2650 -0.3856
   46MOL   H71541305   6.927   6.259   5.169 -0.0998  0.4711 -0.1274
   46MOL   H71641306   6.725   6.313   5.541  0.4244 -1.0110 -0.1680
   46MOL   H71741307   6.546   6.412   5.433 -0.4286 -1.3136  0.2863
   46MOL   H71841308   6.891   5.992   5.430  0.2962 -0.0255 -0.1867
   46MOL   H71941309   7.096   5.915   5.570 -0.3700 -0.1697  0.0243
   46MOL   H72041310   7.250   6.310   5.551  0.2268 -1.0204  0.8877
   46MOL   H72141311   7.073   6.395   5.412  0.8157 -0.8659 -1.0229
   46MOL   C72241312   7.294   5.999   5.729  0.3226 -0.1049 -0.5731
   46MOL   C72341313   7.341   5.861   5.743 -0.0619 -0.2385  0.5866
   46MOL   C72441314   7.342   5.796   5.863  0.3781 -0.5438  0.1930
   46MOL   C72541315   7.286   5.861   5.975 -0.3517 -0.3374  1.1145
   46MOL   C72641316   7.238   5.993   5.968  0.5307 -0.5527 -0.2945
   46MOL   C72741317   7.242   6.063   5.841  1.1068 -0.1175 -0.5333
   46MOL   S72841318   7.291   5.785   6.139  0.3067 -0.3606  0.2346
   46MOL   O72941319   7.149   5.772   6.180  0.5636  0.4231  0.0793
   46MOL   O73041320   7.382   5.870   6.211 -0.2629  0.5607 -0.1980
   46MOL   C73141321   7.360   5.626   6.113  0.0237  0.1784 -0.6415
   46MOL   C73241322   7.286   5.514   6.088  0.1369 -0.2026 -0.3009
   46MOL   C73341323   7.341   5.394   6.054  0.3972 -0.5116 -0.3839
   46MOL   C73441324   7.482   5.378   6.057 -0.0523  0.0042 -0.7149
   46MOL   C73541325   7.561   5.490   6.094 -0.5830  0.1466  0.4151
   46MOL   C73641326   7.501   5.615   6.115 -0.4168 -0.4848  0.5547
   46MOL   O73741327   7.539   5.255   6.037 -0.8862 -0.3684 -0.5156
   46MOL   C73841328   7.459   5.146   6.028  0.2521  0.4980  0.7832
   46MOL   C73941329   7.441   5.088   5.900  0.2013  0.2911  0.6216
   46MOL   C74041330   7.370   4.965   5.883 -0.5398  0.0290 -0.1503
   46MOL   C74141331   7.316   4.900   5.995 -0.2423  0.1911  0.4685
   46MOL   C74241332   7.337   4.957   6.124  0.1044 -0.6027  0.1653
   46MOL   C74341333   7.404   5.083   6.139  0.0673 -0.0402 -0.0566
   46MOL   C74441334   7.252   4.768   5.985 -0.4604  0.4086  0.4418
   46MOL   C74541335   7.142   4.734   6.068  0.2279 -0.0463 -0.4565
   46MOL   C74641336   7.068   4.613   6.060 -0.4933 -0.0538  0.2458
   46MOL   C74741337   7.120   4.518   5.965 -0.4307  0.4322 -0.6919
   46MOL   C74841338   7.234   4.545   5.889  0.0380 -0.3118 -0.0805
   46MOL   C74941339   7.300   4.668   5.897 -0.1190 -0.2828 -0.0880
   46MOL   O75041340   7.058   4.404   5.932 -0.2768  0.6368  0.3700
   46MOL   H75141341   7.379   5.818   5.652  0.4930  1.8830 -0.2276
   46MOL   H75241342   7.375   5.694   5.875 -0.1244 -0.5521  1.6398
   46MOL   H75341343   7.186   6.041   6.049  0.2035 -0.7729 -0.3728
   46MOL   H75441344   7.207   6.165   5.841 -3.4922 -1.5423 -2.5767
   46MOL   H75541345   7.178   5.521   6.090  0.3226  2.7138  2.5179
   46MOL   H75641346   7.275   5.313   6.026 -0.3870 -0.6970  1.8619
   46MOL   H75741347   7.669   5.489   6.086 -0.5198  0.6597  1.1158
   46MOL   H75841348   7.559   5.705   6.129  0.6119 -0.8643 -1.0964
   46MOL   H75941349   7.489   5.132   5.814  0.4425  1.2562  1.2571
   46MOL   H76041350   7.365   4.918   5.786 -0.0237 -0.4187  0.0363
   46MOL   H76141351   7.301   4.902   6.210 -0.1327 -0.2269  0.3065
   46MOL   H76241352   7.428   5.121   6.237 -0.1885 -1.1949  0.4658
   46MOL   H76341353   7.109   4.803   6.144  0.1318  0.4194 -0.9152
   46MOL   H76441354   6.988   4.585   6.128 -2.7343  2.3405 -1.3358
   46MOL   H76541355   7.276   4.468   5.825  0.1099 -2.6602  2.7008
   46MOL   H76641356   7.381   4.681   5.827 -0.2432 -0.6297 -0.3011
   46MOL   C76741357   7.080   4.275   5.979 -0.3030  0.1142 -0.1352
   46MOL   C76841358   6.971   4.206   6.039 -0.9710  0.8733 -0.2438
   46MOL   C76941359   6.988   4.078   6.097 -0.0357  0.3076 -0.0450
   46MOL   C77041360   7.120   4.020   6.087 -0.3170 -0.1397 -0.2272
   46MOL   C77141361   7.225   4.081   6.013  0.2604 -0.0719  0.2255
   46MOL   C77241362   7.210   4.220   5.973  1.0905 -0.0130 -0.6463
   46MOL   S77341363   7.134   3.848   6.143  0.0674 -0.3696 -0.2299
   46MOL   O77441364   7.000   3.812   6.194 -0.2223  0.8633 -0.2798
   46MOL   O77541365   7.245   3.840   6.237 -0.5138 -0.6973 -0.2274
   46MOL   C77641366   7.172   3.740   5.999 -0.4751 -0.0178 -0.0380
   46MOL   C77741367   7.067   3.681   5.927 -0.5033  0.2168  0.0707
   46MOL   C77841368   7.097   3.639   5.795  0.0477 -0.0721  0.6190
   46MOL   C77941369   7.232   3.633   5.754 -0.5069  0.1270 -0.0940
   46MOL   C78041370   7.340   3.681   5.833 -0.4453  0.1720 -0.0275
   46MOL   C78141371   7.303   3.747   5.948  0.0047 -0.2427 -0.2481
   46MOL   O78241372   7.247   3.579   5.631 -0.3150  0.9975 -0.3969
   46MOL   C78341373   7.215   3.654   5.518  0.1807 -0.9825 -1.1683
   46MOL   C78441374   7.184   3.586   5.399 -0.2642 -0.3548  0.0969
   46MOL   C78541375   7.147   3.660   5.284  0.0728 -0.0896 -0.7828
   46MOL   C78641376   7.147   3.801   5.280 -0.1992  0.4138  0.0511
   46MOL   C78741377   7.177   3.869   5.399 -0.6256 -0.0690 -0.5421
   46MOL   C78841378   7.207   3.796   5.519 -0.4270  0.0590  0.2017
   46MOL   C78941379   7.121   3.864   5.153 -0.1735  0.7623  0.5427
   46MOL   C79041380   7.220   3.938   5.082 -0.0390  0.0008 -0.0290
   46MOL   C79141381   7.194   3.984   4.953  0.1043  0.4439 -0.4815
   46MOL   C79241382   7.068   3.971   4.892  0.1504 -0.8914  0.0389
   46MOL   C79341383   6.970   3.893   4.959  0.1409 -0.6175  0.2688
   46MOL   C79441384   6.993   3.839   5.089  0.2456 -0.3678  0.3291
   46MOL   O79541385   7.052   4.024   4.765  0.0244  0.2230 -0.6131
   46MOL   H79641386   6.871   4.247   6.040 -1.4784 -0.2590 -1.6938
   46MOL   H79741387   6.910   4.028   6.153  1.2332  0.2110  1.6939
   46MOL   H79841388   7.328   4.051   6.012  0.3650  0.2569  0.8017
   46MOL   H79941389   7.294   4.271   5.928  1.5416 -1.3517 -1.3869
   46MOL   H80041390   6.965   3.677   5.964 -0.2223  0.9507  0.9417
   46MOL   H80141391   7.016   3.608   5.730 -1.6228  0.7916  2.2193
   46MOL   H80241392   7.444   3.689   5.806 -0.9457 -0.1524 -2.1615
   46MOL   H80341393   7.387   3.798   5.993 -0.5140  2.2263 -2.0117
   46MOL   H80441394   7.191   3.479   5.410 -2.3072 -0.3328  1.8915
   46MOL   H80541395   7.132   3.600   5.196 -1.1602 -1.2242  0.1771
   46MOL   H80641396   7.181   3.977   5.402 -0.1858 -0.0688 -1.2257
   46MOL   H80741397   7.244   3.847   5.607  1.1364 -0.6601 -0.0245
   46MOL   H80841398   7.316   3.945   5.131 -0.3071  1.9531  0.2810
   46MOL   H80941399   7.272   4.043   4.907  0.8636 -1.9585 -2.4307
   46MOL   H81041400   6.880   3.858   4.911 -0.0108 -0.6161  0.5508
   46MOL   H81141401   6.917   3.784   5.142  1.2619 -1.0044  1.1526
   46MOL   C81241402   7.008   4.150   4.755  0.0799 -0.5901  0.1522
   46MOL   C81341403   6.870   4.178   4.775 -0.1430  0.4448 -0.3000
   46MOL   C81441404   6.822   4.308   4.755 -0.9862 -0.3130  1.0754
   46MOL   C81541405   6.916   4.415   4.726  0.1188 -0.8713  0.8650
   46MOL   C81641406   7.050   4.390   4.714 -0.2081 -0.5908 -0.3028
   46MOL   C81741407   7.094   4.254   4.719 -0.4469  0.5992 -0.6322
   46MOL   S81841408   6.851   4.582   4.722  0.1555  0.3027 -0.2810
   46MOL   O81941409   6.718   4.587   4.656  0.6121  0.5272  0.1962
   46MOL   O82041410   6.966   4.658   4.673 -0.0435  0.0890  0.3025
   46MOL   C82141411   6.816   4.614   4.893 -0.3793  0.5630 -0.1928
   46MOL   C82241412   6.680   4.662   4.927 -0.4367  0.5626  0.3566
   46MOL   C82341413   6.649   4.683   5.066  0.4208  0.3334 -0.7847
   46MOL   C82441414   6.742   4.659   5.169 -0.4415  0.1543  0.9543
   46MOL   C82541415   6.870   4.615   5.133 -0.0825 -0.5040  0.6055
   46MOL   C82641416   6.912   4.600   4.997 -0.0419 -0.5516  0.1049
   46MOL   O82741417   6.717   4.677   5.304  0.1702 -0.0662  0.9507
   46MOL   C82841418   6.777   4.783   5.373 -0.1189  0.2610  0.8771
   46MOL   C82941419   6.909   4.826   5.352 -0.4507  0.1973  0.0069
   46MOL   C83041420   6.967   4.926   5.434 -0.2389  0.7023 -0.0816
   46MOL   C83141421   6.890   4.988   5.533  0.4753  0.0542 -0.2932
   46MOL   C83241422   6.752   4.958   5.542  0.3853 -0.4118  0.4158
   46MOL   C83341423   6.699   4.856   5.468 -0.6093  0.3993  1.2281
   46MOL   C83441424   6.942   5.094   5.621  0.0209  0.1625  0.5774
   46MOL   C83541425   6.977   5.218   5.561 -0.1010 -0.1347  0.2643
   46MOL   C83641426   7.029   5.320   5.646  0.6118 -0.1427 -1.1760
   46MOL   C83741427   7.032   5.302   5.787  0.4356  0.3259  0.1322
   46MOL   C83841428   6.995   5.180   5.843 -0.1432  0.0932 -0.7326
   46MOL   C83941429   6.949   5.076   5.762 -0.7620  0.1557  0.6507
   46MOL   O84041430   7.070   5.407   5.866  0.6079 -0.8171 -0.5859
   46MOL   H84141431   6.796   4.099   4.784 -0.0002  0.3761  0.3061
   46MOL   H84241432   6.719   4.339   4.753 -0.6709  0.6817 -0.0555
   46MOL   H84341433   7.119   4.470   4.690 -1.5622  0.9906  1.0092
   46MOL   H84441434   7.197   4.238   4.689 -0.5937  1.0295 -1.3517
   46MOL   H84541435   6.611   4.675   4.845 -0.9549 -0.8872  0.5516
   46MOL   H84641436   6.551   4.717   5.097 -0.4395 -0.7874 -2.1828
   46MOL   H84741437   6.954   4.595   5.199  1.5069  0.6715 -1.0230
   46MOL   H84841438   7.012   4.562   4.980 -0.1252 -0.6385 -0.1932
   46MOL   H84941439   6.985   4.784   5.288  1.9844  2.0118  1.5825
   46MOL   H85041440   7.072   4.950   5.427 -0.4782  2.4153  1.7173
   46MOL   H85141441   6.690   5.019   5.606  1.0148  0.3144  0.3557
   46MOL   H85241442   6.594   4.834   5.472 -0.2616 -1.5206  0.4566
   46MOL   H85341443   6.978   5.232   5.454 -3.0317 -0.0449  0.2129
   46MOL   H85441444   7.064   5.414   5.607 -1.8865  3.0344  3.7172
   46MOL   H85541445   7.005   5.168   5.950  2.1275 -3.1948 -1.2312
   46MOL   H85641446   6.929   4.979   5.803 -1.1612 -0.2441 -0.4655
   46MOL   C85741447   6.988   5.509   5.874  0.5580 -0.0120  0.5590
   46MOL   C85841448   7.046   5.626   5.820  0.1368  0.6770 -0.6809
   46MOL   C85941449   6.958   5.737   5.814  0.4834 -0.6044 -0.6017
   46MOL   C86041450   6.835   5.731   5.882  0.7674  0.3370 -0.7495
   46MOL   C86141451   6.790   5.621   5.958  0.0405 -0.3941  0.4820
   46MOL   C86241452   6.864   5.501   5.947 -0.1873  0.3371 -0.1560
   46MOL   S86341453   6.727   5.873   5.881  0.2542  0.3129 -0.4437
   46MOL   O86441454   6.615   5.857   5.978  0.1013  0.2505  0.0448
   46MOL   O86541455   6.699   5.901   5.736  0.0381 -0.3000 -0.1968
   46MOL   C86641456   6.821   6.005   5.939  0.0428  0.0918  0.3136
   46MOL   C86741457   6.828   6.124   5.855  0.4640  0.0020  0.3575
   46MOL   C86841458   6.911   6.225   5.899 -0.4381 -0.5088  0.0381
   46MOL   C86941459   6.963   6.228   6.030  0.4028 -0.1494 -0.4035
   46MOL   C87041460   6.948   6.110   6.111 -0.1236 -0.2144 -0.6195
   46MOL   C87141461   6.885   5.995   6.064  0.3187  0.0652  0.5729
   46MOL   O87241462   7.035   6.333   6.075 -0.2100  0.5459  0.0308
   46MOL   C87341463   7.148   6.380   6.013  0.1573  0.2705 -0.9686
   46MOL   C87441464   7.143   6.451   5.893 -0.2850 -1.0543  0.7542
   46MOL   C87541465   7.258   6.487   5.829  0.2330  0.0758  0.3438
   46MOL   C87641466   7.383   6.435   5.866  0.1443 -0.3691  0.1662
   46MOL   C87741467   7.386   6.346   5.976 -0.3109 -0.8526  0.1015
   46MOL   C87841468   7.270   6.328   6.058 -0.2795  0.2437  0.3801
   46MOL   C87941469   7.511   6.482   5.791  0.0146  0.4642 -0.7503
   46MOL   C88041470   7.515   6.558   5.667  0.1518  0.4811  0.5785
   46MOL   C88141471   7.636   6.598   5.606 -0.0022 -1.6773 -0.4893
   46MOL   C88241472   7.762   6.557   5.656  0.4738  0.0579 -0.3752
   46MOL   C88341473   7.761   6.491   5.782 -0.3902  0.9927  0.0126
   46MOL   C88441474   7.641   6.454   5.845  0.2498 -0.0108  0.3770
   46MOL   O88541475   7.881   6.589   5.595 -0.3913  0.1405 -0.8400
   46MOL   H88641476   7.144   5.634   5.775  0.6453 -0.7227  0.1625
   46MOL   H88741477   6.995   5.828   5.770 -0.5003  0.9660  1.7189
   46MOL   H88841478   6.705   5.630   6.024 -0.5782  0.9618 -0.4889
   46MOL   H88941479   6.836   5.414   6.006  3.7723 -0.1558  1.1349
   46MOL   H89041480   6.784   6.132   5.757  2.4258  2.6817 -0.3816
   46MOL   H89141481   6.918   6.316   5.842 -0.9371  0.8839  2.1323
   46MOL   H89241482   7.003   6.116   6.204  2.6908  0.3303 -2.2905
   46MOL   H89341483   6.874   5.907   6.125  1.1106  0.2276  0.9526
   46MOL   H89441484   7.052   6.489   5.850  0.7571  2.1523  1.2551
   46MOL   H89541485   7.244   6.549   5.742  1.5228  1.6555  1.2342
   46MOL   H89641486   7.479   6.299   6.003 -0.5982 -0.5087  1.7066
   46MOL   H89741487   7.280   6.263   6.143 -0.0252 -1.6395 -1.0365
   46MOL   H89841488   7.424   6.567   5.608  2.4298 -0.3276 -3.2741
   46MOL   H89941489   7.644   6.652   5.513 -1.3831 -0.5944  0.0012
   46MOL   H90041490   7.856   6.469   5.829 -1.3119  1.0552  1.9554
   46MOL   H90141491   7.644   6.411   5.944 -0.4049  0.4439  0.5985
   46MOL   H90241492   7.875   6.657   5.529  0.0164  1.4664  0.4661
   47MOL     C141493   7.351   8.103   4.201  0.4015  0.0422  0.9527
   47MOL     C241494   7.301   8.000   4.290  0.2031 -0.9576  0.2541
   47MOL     C341495   7.321   8.008   4.429  0.2487  0.0843 -0.9661
   47MOL     C441496   7.381   8.122   4.481 -0.6743  0.1261 -0.1160
   47MOL     C541497   7.416   8.229   4.397 -0.1610 -0.6333 -0.2203
   47MOL     C641498   7.403   8.221   4.257  0.3840  0.5142 -0.6756
   47MOL     S741499   7.404   8.150   4.659 -0.0836 -0.0956  0.2132
   47MOL     O841500   7.536   8.206   4.683  0.0369 -0.4442 -0.5774
   47MOL     O941501   7.367   8.026   4.730 -0.0361 -0.4027 -0.4104
   47MOL    C1041502   7.289   8.283   4.699  0.1935  0.2188  0.1843
   47MOL    C1141503   7.332   0.053   4.708  0.1186 -0.1096  0.2389
   47MOL    C1241504   7.237   0.153   4.753 -0.0446  0.2178  0.6601
   47MOL    C1341505   7.104   0.119   4.781  0.1738  0.7444 -0.6319
   47MOL    C1441506   7.069   8.348   4.771  0.0009 -0.1423 -0.4242
   47MOL    C1541507   7.157   8.247   4.718 -0.0475  1.1460 -0.6556
   47MOL    O1641508   7.020   0.214   4.827  0.2036  0.4067  0.0882
   47MOL    C1741509   7.028   0.234   4.958 -0.4629  0.0026  0.4840
   47MOL    C1841510   7.102   0.336   5.020 -0.0993 -0.2389  0.1099
   47MOL    C1941511   7.089   0.358   5.161 -0.2459 -0.6420 -0.4055
   47MOL    C2041512   7.017   0.273   5.239 -0.7913 -0.6889 -0.1835
   47MOL    C2141513   6.960   0.160   5.186 -0.1230  0.5166  0.3811
   47MOL    C2241514   6.956   0.147   5.043 -0.6372  0.0524  0.1872
   47MOL    C2341515   6.997   0.302   5.383 -0.3423 -0.5308 -0.3011
   47MOL    C2441516   6.874   0.271   5.443 -0.1646 -0.1661 -0.3243
   47MOL    C2541517   6.841   0.314   5.574 -0.3759  0.4442 -0.2797
   47MOL    C2641518   6.931   0.396   5.643  0.4241 -0.3846 -0.6516
   47MOL    C2741519   7.060   0.417   5.595 -0.3467 -0.5291  0.2619
   47MOL    C2841520   7.098   0.365   5.465  0.0126  0.5452  0.2460
   47MOL    O2941521   6.901   0.454   5.769 -0.4943 -0.1283 -0.4808
   47MOL    H3041522   7.274   7.902   4.253  2.4625 -1.3598 -0.3747
   47MOL    H3141523   7.285   7.934   4.499 -0.6754  0.1943 -1.3234
   47MOL    H3241524   7.468   8.309   4.447  2.4308 -0.8367 -2.4593
   47MOL    H3341525   7.446   8.297   4.193 -2.3092  1.8158 -1.0061
   47MOL    H3441526   7.438   0.071   4.694  0.3273 -0.7076  1.0358
   47MOL    H3541527   7.270   0.256   4.761  2.2177 -0.5032  0.9846
   47MOL    H3641528   6.969   8.324   4.805 -0.4727  0.4116 -1.4174
   47MOL    H3741529   7.128   8.143   4.710  0.2373  0.8789  1.4824
   47MOL    H3841530   7.164   0.413   4.977 -1.1406 -1.1830 -3.2250
   47MOL    H3941531   7.140   0.441   5.209 -1.5350 -0.5693  0.8853
   47MOL    H4041532   6.907   0.095   5.253  1.3307  0.4382  1.4760
   47MOL    H4141533   6.901   0.067   4.996 -1.8748  0.9368  0.1195
   47MOL    H4241534   6.790   0.224   5.395  2.2836 -1.3881 -3.5633
   47MOL    H4341535   6.746   0.282   5.613  0.3922 -0.9016  0.5202
   47MOL    H4441536   7.133   0.470   5.656  0.7826  0.9197 -2.2888
   47MOL    H4541537   7.199   0.370   5.427  0.0419 -2.1580 -0.1142
   47MOL    H4641538   7.346   8.086   4.095  0.1907 -0.2506  1.0086
   47MOL    C4741539   6.788   0.530   5.780 -0.5443 -0.3331 -0.6271
   47MOL    C4841540   6.797   0.672   5.764  0.1381  0.1952 -0.1639
   47MOL    C4941541   6.678   0.745   5.781  0.2830  0.2394  0.1032
   47MOL    C5041542   6.557   0.677   5.802 -0.8063  0.2728 -0.1334
   47MOL    C5141543   6.551   0.539   5.812 -0.1281 -0.1276  0.0266
   47MOL    C5241544   6.670   0.465   5.808 -0.5294  0.4428  0.1618
   47MOL    S5341545   6.398   0.763   5.804  0.0351 -0.1724 -0.0782
   47MOL    O5441546   6.300   0.675   5.744 -0.5380 -0.0088  0.3735
   47MOL    O5541547   6.409   0.901   5.766  0.1955  0.0924  0.1648
   47MOL    C5641548   6.354   0.774   5.976 -0.2686 -0.6085 -0.1328
   47MOL    C5741549   6.450   0.803   6.074 -0.9437  0.9138 -0.1376
   47MOL    C5841550   6.421   0.816   6.210  0.2760 -0.1139  0.0636
   47MOL    C5941551   6.287   0.801   6.252 -0.1535  0.0598  0.3156
   47MOL    C6041552   6.191   0.773   6.154  0.7760 -0.2314 -0.0064
   47MOL    C6141553   6.224   0.743   6.017 -0.3113  0.3722 -0.6726
   47MOL    O6241554   6.255   0.829   6.381  0.3144  0.3942  0.2027
   47MOL    C6341555   6.326   0.765   6.480  0.2209  0.6072 -0.2440
   47MOL    C6441556   6.391   0.642   6.457  0.5756  0.2766  0.1399
   47MOL    C6541557   6.467   0.573   6.557 -0.1632  0.3523 -1.1523
   47MOL    C6641558   6.475   0.627   6.693 -0.6440 -0.2311 -0.1823
   47MOL    C6741559   6.413   0.753   6.715  0.0310  0.1562 -0.1414
   47MOL    C6841560   6.338   0.816   6.614  0.1253 -0.2288  0.1515
   47MOL    C6941561   6.561   0.573   6.804 -0.3575 -1.1695  0.4449
   47MOL    C7041562   6.686   0.522   6.776 -0.1210 -0.1129 -0.1825
   47MOL    C7141563   6.776   0.488   6.882  0.3385 -0.6301  0.3850
   47MOL    C7241564   6.729   0.495   7.013 -0.6268  0.6136  1.0056
   47MOL    C7341565   6.598   0.544   7.037  0.1070  0.2533  0.0743
   47MOL    C7441566   6.515   0.585   6.932  0.7030  0.0447 -0.1400
   47MOL    O7541567   6.816   0.455   7.117 -0.4672 -0.6424 -1.0459
   47MOL    H7641568   6.889   0.727   5.752 -0.1657  0.7158 -0.1357
   47MOL    H7741569   6.676   0.853   5.779  1.1799  0.2685  0.3879
   47MOL    H7841570   6.455   0.490   5.825 -1.4061  2.0504 -0.9539
   47MOL    H7941571   6.671   0.361   5.838 -1.3439 -0.1446 -1.7359
   47MOL    H8041572   6.555   0.803   6.050  0.0084  1.4250  3.6716
   47MOL    H8141573   6.502   0.843   6.276  1.3072 -0.4189 -1.0625
   47MOL    H8241574   6.091   0.777   6.194  0.3621 -0.5839 -0.9762
   47MOL    H8341575   6.144   0.724   5.947 -0.1756 -0.5326 -0.5931
   47MOL    H8441576   6.381   0.606   6.356  0.1974  0.8460 -0.0315
   47MOL    H8541577   6.524   0.485   6.532  1.3471  0.6370  1.1197
   47MOL    H8641578   6.413   0.799   6.812  1.0064 -0.3964  0.1311
   47MOL    H8741579   6.282   0.907   6.632  0.0567  0.2082 -2.0695
   47MOL    H8841580   6.711   0.522   6.671 -0.8632 -2.2008 -0.3930
   47MOL    H8941581   6.877   0.463   6.853  0.0916 -0.5468 -0.5900
   47MOL    H9041582   6.564   0.548   7.139  3.4454 -1.4265  1.3153
   47MOL    H9141583   6.414   0.613   6.955  1.4205  1.9715  0.7606
   47MOL    C9241584   6.806   0.509   7.246 -0.2910 -0.2128  0.3946
   47MOL    C9341585   6.891   0.611   7.294 -0.0098 -0.0815 -0.6640
   47MOL    C9441586   6.880   0.649   7.431 -0.1398 -0.0761 -0.3198
   47MOL    C9541587   6.781   0.599   7.517 -0.9985  0.4020  0.4841
   47MOL    C9641588   6.693   0.497   7.467 -0.4482 -0.3648 -0.8664
   47MOL    C9741589   6.703   0.458   7.332  0.5682 -0.4339  0.4873
   47MOL    S9841590   6.769   0.651   7.687  0.3093 -0.3724  0.0160
   47MOL    O9941591   6.758   0.797   7.679  0.4450  0.8326 -0.2873
   47MOL   O10041592   6.894   0.601   7.751 -0.2905  0.0443  0.1924
   47MOL   C10141593   6.614   0.588   7.766 -0.7855 -0.1526 -0.8757
   47MOL   C10241594   6.498   0.672   7.756 -0.5349 -0.6522 -0.3562
   47MOL   C10341595   6.382   0.645   7.834 -0.5942  0.0781  0.2899
   47MOL   C10441596   6.384   0.545   7.930  0.2034 -0.2093 -1.6386
   47MOL   C10541597   6.504   0.468   7.948  0.2282 -0.0808 -0.2672
   47MOL   C10641598   6.617   0.490   7.868 -0.5586 -0.6625 -0.4909
   47MOL   O10741599   6.281   0.529   8.015 -0.0489  0.1249 -0.1905
   47MOL   C10841600   6.164   0.456   7.975 -0.2299 -0.8667 -0.0869
   47MOL   C10941601   6.148   0.325   8.034 -0.0322  0.2872  0.5936
   47MOL   C11041602   6.027   0.259   8.003  0.2933 -0.3985 -0.6808
   47MOL   C11141603   5.915   0.315   7.938  0.0320  0.6449  0.6386
   47MOL   C11241604   5.930   0.446   7.888  0.4380 -0.2987  0.3006
   47MOL   C11341605   6.054   0.510   7.899  0.0827 -0.4594  0.3958
   47MOL   C11441606   5.792   0.241   7.928  0.3587  0.6145  0.1739
   47MOL   C11541607   5.792   0.102   7.909  0.0646  0.4989  0.4367
   47MOL   C11641608   5.674   0.027   7.914 -0.8602  0.0169 -0.4553
   47MOL   C11741609   5.555   0.097   7.943  0.1613 -0.1935 -0.3898
   47MOL   C11841610   5.555   0.232   7.962  0.2131 -0.3063 -1.1524
   47MOL   C11941611   5.673   0.305   7.950  0.1947  1.0601 -0.6971
   47MOL   O12041612   5.440   0.023   7.954  0.5980 -1.0793  0.0435
   47MOL   H12141613   6.968   0.658   7.235  0.8338  0.7713  1.0729
   47MOL   H12241614   6.962   0.707   7.470  1.3723 -0.3394 -2.9969
   47MOL   H12341615   6.614   0.459   7.531 -2.2830  1.4462 -1.9811
   47MOL   H12441616   6.643   0.376   7.296  1.4187 -0.9817  0.3364
   47MOL   H12541617   6.495   0.752   7.684 -3.4331  1.3442  1.8252
   47MOL   H12641618   6.300   0.715   7.824 -1.3766 -0.7216  1.0126
   47MOL   H12741619   6.502   0.388   8.021 -0.4784 -1.9510 -2.2548
   47MOL   H12841620   6.711   0.446   7.899 -1.3716 -2.8479 -1.0556
   47MOL   H12941621   6.221   0.289   8.105  1.9944 -0.2122 -1.6957
   47MOL   H13041622   6.015   0.163   8.051  0.5575  0.5447  1.2895
   47MOL   H13141623   5.847   0.500   7.845  0.8630 -0.9167 -1.3257
   47MOL   H13241624   6.070   0.608   7.855 -2.1780 -0.5504 -0.7115
   47MOL   H13341625   5.887   0.050   7.911 -1.0779 -1.5946  1.5149
   47MOL   H13441626   5.681   8.285   7.907 -0.2679  0.0576 -0.5356
   47MOL   H13541627   5.463   0.288   7.970  0.2984 -0.1132 -1.4839
   47MOL   H13641628   5.659   0.411   7.957 -0.4505  0.9397 -0.1237
   47MOL   C13741629   5.375   0.006   8.077  0.2334 -0.2759 -0.3197
   47MOL   C13841630   5.232   0.010   8.085  0.1360 -0.4363  0.5245
   47MOL   C13941631   5.172   8.358   8.212  0.1084  0.3475  0.3950
   47MOL   C14041632   5.248   8.334   8.332 -0.0548 -0.0415  0.0647
   47MOL   C14141633   5.388   8.330   8.318 -0.5577  0.4236 -0.5732
   47MOL   C14241634   5.448   8.348   8.193  0.1886  0.3770  0.0770
   47MOL   S14341635   5.177   8.280   0.125  0.2630  0.3755 -0.0019
   47MOL   O14441636   5.284   8.222   0.213 -0.1900 -0.2266  0.3858
   47MOL   O14541637   5.058   8.202   0.092 -0.0184 -0.4271  0.3299
   47MOL   C14641638   5.124   0.064   0.197  0.3498  0.1939 -0.3916
   47MOL   C14741639   5.132   0.179   0.118 -0.6509  1.0852 -0.4229
   47MOL   C14841640   5.097   0.304   0.173  0.0860  1.1083 -0.3245
   47MOL   C14941641   5.053   0.308   0.308 -0.4271 -0.1963 -0.6077
   47MOL   C15041642   5.056   0.194   0.388  0.3978  0.2209  0.3828
   47MOL   C15141643   5.084   0.068   0.333 -0.6840 -0.6629  0.9865
   47MOL   O15241644   5.029   0.432   0.368 -0.2017  0.5941  0.2546
   47MOL   C15341645   5.133   0.528   0.379  0.1444 -0.2948  0.4908
   47MOL   C15441646   5.108   0.666   0.357  0.6894 -0.6210 -0.4664
   47MOL   C15541647   5.214   0.763   0.356  0.0434  1.0417 -0.6460
   47MOL   C15641648   5.350   0.726   0.391 -0.2094 -0.4379  0.1906
   47MOL   C15741649   5.371   0.590   0.425 -0.0214 -0.4568  0.0067
   47MOL   C15841650   5.264   0.492   0.420  0.0319  0.3321 -0.2741
   47MOL   C15941651   5.462   0.819   0.390 -0.0759  0.3767 -0.1208
   47MOL   C16041652   5.591   0.767   0.360  0.8767 -0.4464 -0.1550
   47MOL   C16141653   5.700   0.852   0.383 -0.0492 -0.6387 -0.0016
   47MOL   C16241654   5.682   0.985   0.431 -0.4721  1.2536  0.0099
   47MOL   C16341655   5.559   1.040   0.442  0.8905  0.1921 -0.1313
   47MOL   C16441656   5.451   0.959   0.416 -0.4868 -0.0099 -0.1646
   47MOL   O16541657   5.796   1.065   0.452  0.4167  0.4277 -0.1476
   47MOL   H16641658   5.169   0.034   8.000 -1.8037 -0.7553  1.8371
   47MOL   H16741659   5.065   0.003   8.225  0.1236  2.0319 -0.6441
   47MOL   H16841660   5.445   8.311   0.042  0.6278 -0.0966 -1.4271
   47MOL   H16941661   5.555   8.340   8.189  0.2028  0.9196 -0.5874
   47MOL   H17041662   5.172   0.183   0.018  3.3829 -1.3964  0.9769
   47MOL   H17141663   5.111   0.397   0.121  0.8695  1.0700 -0.1870
   47MOL   H17241664   5.031   0.186   0.493  1.3472 -1.5492  0.5044
   47MOL   H17341665   5.080   8.342   0.390 -1.7228 -0.4609  1.2369
   47MOL   H17441666   5.009   0.700   0.330  1.4066  0.4039 -1.8468
   47MOL   H17541667   5.195   0.863   0.318  1.2969  1.6918  0.4274
   47MOL   H17641668   5.467   0.552   0.456 -0.2352 -2.4543 -1.6784
   47MOL   H17741669   5.286   0.390   0.447  1.7030 -0.0770 -2.9243
   47MOL   H17841670   5.606   0.662   0.339 -0.6139 -0.9113  0.9771
   47MOL   H17941671   5.802   0.818   0.370 -0.4212 -1.4151 -0.9367
   47MOL   H18041672   5.537   1.142   0.469  0.1968 -0.0329  0.1413
   47MOL   H18141673   5.353   0.998   0.438  0.6225  1.8926  1.5567
   47MOL   C18241674   5.818   1.169   0.369 -0.4074 -0.4407  0.7072
   47MOL   C18341675   5.861   1.290   0.423  0.1552  0.6286  0.2921
   47MOL   C18441676   5.886   1.404   0.338  0.2798  0.0709  0.1069
   47MOL   C18541677   5.856   1.395   0.204 -0.1862 -0.3220  0.3302
   47MOL   C18641678   5.801   1.281   0.145 -0.1616  0.2067 -0.3290
   47MOL   C18741679   5.794   1.169   0.231  0.3637  0.6632  0.8429
   47MOL   S18841680   5.880   1.538   0.102  0.4053 -0.1204 -0.0239
   47MOL   O18941681   5.871   1.503   8.327  0.6016  0.0455  0.0291
   47MOL   O19041682   6.018   1.591   0.125 -0.2223  0.2209  0.5497
   47MOL   C19141683   5.758   1.657   0.139 -0.2466 -0.1400 -1.1529
   47MOL   C19241684   5.732   1.765   0.045 -0.3957  0.3585  0.6238
   47MOL   C19341685   5.633   1.860   0.073 -0.3881  0.5171  0.0734
   47MOL   C19441686   5.559   1.861   0.191 -0.5225 -0.2709 -0.2425
   47MOL   C19541687   5.586   1.756   0.287 -0.1107 -0.5460  0.2408
   47MOL   C19641688   5.689   1.659   0.263  0.2373 -0.1100  0.1773
   47MOL   O19741689   5.471   1.959   0.217 -0.0924 -0.0609 -0.2695
   47MOL   C19841690   5.344   1.950   0.161 -0.5208  0.2394  0.3375
   47MOL   C19941691   5.305   2.018   0.043  0.0979 -0.1448 -0.2122
   47MOL   C20041692   5.172   2.009   8.359 -0.0171 -0.1822  0.1480
   47MOL   C20141693   5.082   1.917   0.046  0.3295 -0.3155  0.0196
   47MOL   C20241694   5.125   1.841   0.156  0.0227  0.7241  0.5962
   47MOL   C20341695   5.250   1.862   0.218  0.2940  0.2055 -0.2776
   47MOL   C20441696   4.942   1.895   8.363  0.1110 -0.4413  0.2139
   47MOL   C20541697   4.915   1.866   8.226  0.2177 -0.4337 -0.5727
   47MOL   C20641698   4.784   1.850   8.179 -0.3375 -0.0215  0.2160
   47MOL   C20741699   4.679   1.838   8.270 -0.2432 -0.0146  0.8118
   47MOL   C20841700   4.701   1.858   0.040 -0.7595 -0.1464 -0.7641
   47MOL   C20941701   4.832   1.886   0.092  0.1298 -0.1663 -0.1039
   47MOL   O21041702   4.561   1.781   8.216 -0.1580  0.0160  0.0586
   47MOL   H21141703   5.868   1.300   0.530 -1.6791 -1.6938  0.6691
   47MOL   H21241704   5.926   1.497   0.378  0.2808 -0.9071  2.5006
   47MOL   H21341705   5.767   1.277   0.043  1.9509  1.7361 -1.1408
   47MOL   H21441706   5.744   1.081   0.193  0.5007  0.0576  2.0305
   47MOL   H21541707   5.783   1.770   8.316 -0.0061  1.5794  0.8852
   47MOL   H21641708   5.612   1.932   8.360  0.0351 -1.4384 -1.8763
   47MOL   H21741709   5.533   1.756   0.381  0.8032 -2.0011  0.7798
   47MOL   H21841710   5.697   1.577   0.333  0.2153 -0.9178 -0.7491
   47MOL   H21941711   5.382   2.077   8.362 -0.5054  0.9254  0.1226
   47MOL   H22041712   5.145   2.074   8.277 -0.1444  0.6494  0.8414
   47MOL   H22141713   5.060   1.769   0.204  0.5507 -1.5432 -1.9531
   47MOL   H22241714   5.284   1.804   0.301 -0.3471 -2.3507 -1.7353
   47MOL   H22341715   4.995   1.870   8.154 -0.3786 -1.3971 -1.3050
   47MOL   H22441716   4.773   1.837   8.072  1.6071 -2.1591  0.2257
   47MOL   H22541717   4.614   1.841   0.101 -0.1823  0.2821  0.1977
   47MOL   H22641718   4.853   1.909   0.195  1.5255 -1.0110 -0.1766
   47MOL   C22741719   4.448   1.837   8.260 -0.3236  0.0125 -0.0569
   47MOL   C22841720   4.337   1.754   8.288  0.2772  0.2725  0.6861
   47MOL   C22941721   4.217   1.809   8.342  0.2475  0.6981 -0.5008
   47MOL   C23041722   4.199   1.949   8.360  0.1972  0.6774  0.0985
   47MOL   C23141723   4.307   2.029   8.328  0.6267  0.1368  0.0588
   47MOL   C23241724   4.430   1.981   8.281 -0.0955  0.5247 -0.4689
   47MOL   S23341725   4.043   2.029   0.051  0.0170  0.0281 -0.2952
   47MOL   O23441726   4.013   2.147   8.336  0.1043 -0.2577  0.4983
   47MOL   O23541727   4.064   2.038   0.198  0.1961  0.5805 -0.0336
   47MOL   C23641728   3.917   1.900   0.023 -0.5790 -0.3908 -0.9457
   47MOL   C23741729   3.902   1.803   0.118  0.5759 -0.6880 -0.7918
   47MOL   C23841730   3.805   1.702   0.092 -0.5547 -0.3061 -0.2626
   47MOL   C23941731   3.721   1.695   8.346  0.4059  0.4552 -0.4452
   47MOL   C24041732   3.748   1.795   8.247 -0.1197  0.2879  0.3237
   47MOL   C24141733   3.841   1.900   8.269  0.1356 -0.2035  0.9860
   47MOL   O24241734   3.619   1.607   8.314 -0.6514  0.3984  0.2355
   47MOL   C24341735   3.558   1.559   0.060  0.6062 -0.6570  1.1585
   47MOL   C24441736   3.463   1.643   0.125 -0.8853  0.1447  0.5388
   47MOL   C24541737   3.398   1.590   0.233 -0.5206  0.5619  0.2076
   47MOL   C24641738   3.428   1.457   0.280 -0.1790 -0.2736 -0.5998
   47MOL   C24741739   3.516   1.378   0.205  0.7922  0.7421  0.7370
   47MOL   C24841740   3.573   1.424   0.088  0.0971 -0.5509  0.4163
   47MOL   C24941741   3.376   1.401   0.404 -0.2546 -0.2479  0.6175
   47MOL   C25041742   3.448   1.313   0.487 -0.6710  0.8723 -0.3235
   47MOL   C25141743   3.391   1.271   0.610 -0.2153  0.4059  0.2894
   47MOL   C25241744   3.268   1.312   0.648  0.3285 -0.2218 -0.0445
   47MOL   C25341745   3.197   1.408   0.572  0.2506  0.1784 -0.4641
   47MOL   C25441746   3.250   1.442   0.448 -0.1783 -0.2612  0.1549
   47MOL   O25541747   3.220   1.266   0.771 -0.4945  0.5037 -0.3274
   47MOL   H25641748   4.357   1.647   8.288  2.2556  0.6261  0.5544
   47MOL   H25741749   4.138   1.741   0.006 -0.1562  0.7294 -1.4816
   47MOL   H25841750   4.298   2.136   8.340  0.7584 -0.0377  1.7734
   47MOL   H25941751   4.506   2.055   8.261  0.5880 -0.3490 -1.1568
   47MOL   H26041752   3.972   1.797   0.200 -0.1396 -1.4238 -0.2243
   47MOL   H26141753   3.799   1.623   0.166 -1.1559 -0.7758 -0.8091
   47MOL   H26241754   3.712   1.781   8.147  1.8628 -0.6958 -0.2897
   47MOL   H26341755   3.868   1.965   8.188 -0.5479 -1.4485 -0.2643
   47MOL   H26441756   3.434   1.743   0.097 -0.3167 -0.3891 -2.1372
   47MOL   H26541757   3.335   1.654   0.293 -2.4543  1.9777 -3.1667
   47MOL   H26641758   3.522   1.277   0.244 -0.8245  0.7816  1.1435
   47MOL   H26741759   3.639   1.369   0.024 -1.1035 -0.9816 -0.4821
   47MOL   H26841760   3.541   1.264   0.462 -0.4362 -0.2511  2.5454
   47MOL   H26941761   3.447   1.198   0.666 -1.3206  1.7312  3.1876
   47MOL   H27041762   3.093   1.435   0.585  0.2505 -0.7105  1.5308
   47MOL   H27141763   3.184   1.496   0.382 -0.6953  0.5616  1.3433
   47MOL   C27241764   3.153   1.357   0.845 -0.6034 -0.0800  0.6458
   47MOL   C27341765   3.215   1.475   0.892 -0.1934 -0.1250  0.0446
   47MOL   C27441766   3.132   1.584   0.930  0.5766 -0.2082 -0.7409
   47MOL   C27541767   2.991   1.560   0.947 -0.6938 -0.3883  0.1751
   47MOL   C27641768   2.936   1.430   0.924  0.0546 -0.0689 -0.0600
   47MOL   C27741769   3.013   1.336   0.860  0.3736  0.4420  0.2107
   47MOL   S27841770   2.883   1.706   0.969 -0.3884  0.0924  0.2351
   47MOL   O27941771   2.930   1.815   1.061  0.3106  0.0864 -0.1894
   47MOL   O28041772   2.752   1.639   0.991 -0.4634  0.4175 -0.1881
   47MOL   C28141773   2.875   1.778   0.801 -0.0928 -0.1023  0.0963
   47MOL   C28241774   2.822   1.701   0.697 -0.0055  0.1403 -0.3422
   47MOL   C28341775   2.818   1.759   0.563  0.2322  0.9960 -0.3552
   47MOL   C28441776   2.876   1.886   0.543  0.1366 -0.0263  0.2269
   47MOL   C28541777   2.928   1.964   0.649  0.0951 -0.4637 -0.3710
   47MOL   C28641778   2.926   1.908   0.781 -0.2996  0.2238 -0.9591
   47MOL   O28741779   2.859   1.953   0.422  0.1261  0.4837 -0.3485
   47MOL   C28841780   2.966   1.988   0.343  0.4743 -0.2428 -0.3465
   47MOL   C28941781   3.025   1.884   0.276  0.0833  0.3677  0.0595
   47MOL   C29041782   3.138   1.906   0.203  0.1698 -0.3853  0.0911
   47MOL   C29141783   3.201   2.032   0.209  0.3174 -0.8293  0.6109
   47MOL   C29241784   3.138   2.141   0.273  0.1093 -0.5128  0.5775
   47MOL   C29341785   3.021   2.116   0.347  0.4687 -1.3103  0.2623
   47MOL   C29441786   3.329   2.059   0.137  0.6513 -0.0323 -0.0156
   47MOL   C29541787   3.452   2.033   0.196 -0.4461 -0.7794  1.2588
   47MOL   C29641788   3.573   2.057   0.127  0.0723  0.2544 -0.2602
   47MOL   C29741789   3.576   2.121   8.365  0.3708 -0.4543  0.1223
   47MOL   C29841790   3.455   2.148   8.303 -0.8699 -0.2500  0.0091
   47MOL   C29941791   3.332   2.126   0.008 -0.4811  0.3757 -0.0465
   47MOL   O30041792   3.687   2.162   8.304  0.8518 -0.0668 -0.1744
   47MOL   H30141793   3.322   1.486   0.888  0.0339 -2.6021 -2.5373
   47MOL   H30241794   3.161   1.687   0.946 -2.7648  0.9928 -1.9822
   47MOL   H30341795   2.829   1.412   0.932 -0.5152  2.4047 -1.5766
   47MOL   H30441796   2.972   1.238   0.837 -0.9502  0.8319  0.8204
   47MOL   H30541797   2.780   1.603   0.714  0.9433 -0.7802 -3.0390
   47MOL   H30641798   2.773   1.695   0.488 -1.0590 -0.6087  1.7492
   47MOL   H30741799   2.970   2.063   0.637  0.2789 -0.3436  1.1566
   47MOL   H30841800   2.966   1.953   0.870 -1.2674 -0.9332  0.0757
   47MOL   H30941801   2.982   1.786   0.263 -0.6492  0.5586  0.9793
   47MOL   H31041802   3.172   1.820   0.146  0.4648  0.9360 -1.7853
   47MOL   H31141803   3.192   2.234   0.270 -0.5192 -0.1077  1.3689
   47MOL   H31241804   2.975   2.194   0.406  1.3434 -0.6506  0.0698
   47MOL   H31341805   3.466   1.990   0.294 -1.2179 -0.7601  1.3827
   47MOL   H31441806   3.664   2.022   0.173  0.7042  1.0179 -0.9359
   47MOL   H31541807   3.459   2.204   8.211  0.0411  2.0138  1.3955
   47MOL   H31641808   3.241   2.156   8.324 -0.0156 -1.2648 -1.9490
   47MOL   C31741809   3.717   2.296   8.303 -0.6444 -0.1790  0.0761
   47MOL   C31841810   3.737   2.370   8.185  0.7951 -0.8114 -0.4018
   47MOL   C31941811   3.758   2.505   8.187  0.0362 -0.2690 -0.1811
   47MOL   C32041812   3.775   2.570   8.308  0.7155  0.0780  0.6237
   47MOL   C32141813   3.779   2.498   0.060 -0.7273  0.0749  0.1127
   47MOL   C32241814   3.746   2.357   0.057 -0.5909 -0.2587 -0.3015
   47MOL   S32341815   3.804   2.740   8.313  0.0466 -0.0723  0.2870
   47MOL   O32441816   3.761   2.791   8.186  0.5948 -0.4690  0.0127
   47MOL   O32541817   3.944   2.756   8.353  0.5115 -0.0813  0.2409
   47MOL   C32641818   3.702   2.810   0.074 -0.2047 -0.5639  0.2891
   47MOL   C32741819   3.760   2.888   0.175 -0.1679 -0.2721 -0.0344
   47MOL   C32841820   3.680   2.951   0.269  0.3772 -0.1228  0.1707
   47MOL   C32941821   3.543   2.935   0.260 -0.2669  0.7494  0.3045
   47MOL   C33041822   3.484   2.853   0.165 -0.4589 -0.0722  0.5422
   47MOL   C33141823   3.563   2.794   0.064 -0.0731  0.7645  0.0664
   47MOL   O33241824   3.464   3.000   0.345 -0.2339 -0.6196  0.1497
   47MOL   C33341825   3.484   2.961   0.473 -1.0792  0.0011 -0.1563
   47MOL   C33441826   3.464   2.824   0.506  0.5442 -0.4013 -0.4868
   47MOL   C33541827   3.464   2.790   0.641  0.2970 -0.0025 -1.0756
   47MOL   C33641828   3.488   2.881   0.746  0.8452  0.4848 -0.4831
   47MOL   C33741829   3.524   3.013   0.703 -0.2787  0.1164  0.5799
   47MOL   C33841830   3.510   3.061   0.567 -0.1462  0.6462 -0.2290
   47MOL   C33941831   3.494   2.831   0.882  0.1102  0.2255  0.2715
   47MOL   C34041832   3.545   2.704   0.913 -0.5422 -1.2961 -0.1517
   47MOL   C34141833   3.546   2.661   1.048  0.2085  0.4325  0.8158
   47MOL   C34241834   3.508   2.748   1.151 -0.2285 -0.0621 -0.0005
   47MOL   C34341835   3.475   2.881   1.123  0.7344 -0.1644 -0.1119
   47MOL   C34441836   3.460   2.916   0.990  0.4521  0.1802 -0.3645
   47MOL   O34541837   3.512   2.704   1.280  0.1020 -0.3187 -0.2707
   47MOL   H34641838   3.722   2.324   8.088  1.3001 -1.1521 -0.3196
   47MOL   H34741839   3.762   2.562   8.095 -0.9121 -1.1074 -0.7477
   47MOL   H34841840   3.820   2.550   0.145  2.4421 -3.2242  0.7788
   47MOL   H34941841   3.749   2.306   0.152  2.2605 -0.0326 -0.2357
   47MOL   H35041842   3.867   2.903   0.175 -0.7271  4.3842 -0.1180
   47MOL   H35141843   3.733   3.012   0.341  0.4542 -0.7807  0.6695
   47MOL   H35241844   3.376   2.849   0.158 -0.5770 -1.6806  2.6849
   47MOL   H35341845   3.523   2.737   8.348 -1.8154 -0.1911  1.5669
   47MOL   H35441846   3.439   2.760   0.423 -0.0885  2.2396 -2.4029
   47MOL   H35541847   3.423   2.691   0.656 -2.2223  1.2739  1.0170
   47MOL   H35641848   3.540   3.097   0.769 -0.5299 -0.0938  0.9057
   47MOL   H35741849   3.524   3.167   0.551  0.4409  0.3545 -1.7199
   47MOL   H35841850   3.571   2.631   0.838 -0.7231  0.0502 -1.5521
   47MOL   H35941851   3.584   2.561   1.064 -1.2285 -0.5280 -1.5109
   47MOL   H36041852   3.450   2.946   1.205  1.0073 -0.0654 -0.1043
   47MOL   H36141853   3.418   3.014   0.976  0.9559  0.3838 -0.4707
   47MOL   C36241854   3.613   2.748   1.360  0.3202 -0.0727 -0.9461
   47MOL   C36341855   3.747   2.726   1.322 -0.1691  0.1017 -0.3674
   47MOL   C36441856   3.853   2.756   1.414  0.3378  1.3121  0.0146
   47MOL   C36541857   3.819   2.816   1.532  0.1964  0.0851  0.2886
   47MOL   C36641858   3.686   2.846   1.562 -0.2430 -0.1018  0.0257
   47MOL   C36741859   3.581   2.809   1.483 -0.0379  0.5962  0.5962
   47MOL   S36841860   3.944   2.849   1.651 -0.0730  0.0236 -0.3589
   47MOL   O36941861   3.898   2.810   1.783  0.4414 -0.2441 -0.0201
   47MOL   O37041862   3.989   2.988   1.632 -0.3143  0.7068  0.0582
   47MOL   C37141863   4.087   2.746   1.606  0.1480  0.1422  0.2601
   47MOL   C37241864   4.180   2.792   1.508  0.1102 -0.7193  0.0526
   47MOL   C37341865   4.300   2.715   1.490  0.1361 -0.1423  0.5267
   47MOL   C37441866   4.333   2.607   1.573 -0.5157  0.4173 -0.1205
   47MOL   C37541867   4.236   2.553   1.659 -0.0187  0.1676  0.3639
   47MOL   C37641868   4.111   2.620   1.673 -0.5563  0.5541  0.0142
   47MOL   O37741869   4.441   2.528   1.551  0.3995 -1.1297  0.4079
   47MOL   C37841870   4.429   2.409   1.479  0.1283 -0.2017  0.8380
   47MOL   C37941871   4.379   2.413   1.350  0.3380  0.2249 -0.1557
   47MOL   C38041872   4.369   2.295   1.271  0.7566  0.5957  0.6672
   47MOL   C38141873   4.405   2.170   1.330  0.2373  0.5002  0.4900
   47MOL   C38241874   4.457   2.167   1.460  0.6333 -0.3337  0.4321
   47MOL   C38341875   4.487   2.288   1.530 -0.3312 -0.6822  0.1944
   47MOL   C38441876   4.351   2.044   1.272 -0.8830 -0.2357 -0.3918
   47MOL   C38541877   4.258   1.968   1.340  0.2862 -0.4518 -0.3579
   47MOL   C38641878   4.204   1.846   1.291  0.2574 -0.0161  0.2441
   47MOL   C38741879   4.250   1.792   1.170 -0.1669  0.8510 -0.3253
   47MOL   C38841880   4.329   1.872   1.091 -0.3642 -0.6820 -0.2016
   47MOL   C38941881   4.370   1.998   1.140 -0.1542  0.2107  0.1308
   47MOL   O39041882   4.211   1.669   1.126  0.1048  0.9245  0.1500
   47MOL   H39141883   3.764   2.694   1.220  0.0942 -0.2197 -0.2258
   47MOL   H39241884   3.954   2.743   1.378  0.2435  0.8177 -0.0786
   47MOL   H39341885   3.666   2.894   1.657  0.6366 -0.2902  0.3060
   47MOL   H39441886   3.478   2.834   1.504 -0.0196  1.6667 -0.5505
   47MOL   H39541887   4.163   2.884   1.453 -0.3694 -1.4364 -1.0192
   47MOL   H39641888   4.366   2.758   1.416  1.2933 -1.4168  0.8043
   47MOL   H39741889   4.245   2.456   1.706  1.0989 -0.9108 -1.9796
   47MOL   H39841890   4.034   2.581   1.738 -0.7278 -1.8451 -1.5709
   47MOL   H39941891   4.351   2.509   1.310  0.0419  1.0892  2.0820
   47MOL   H40041892   4.317   2.292   1.177  1.7196  1.2453  0.1077
   47MOL   H40141893   4.465   2.073   1.512 -1.9546 -1.7472 -1.6525
   47MOL   H40241894   4.530   2.287   1.629 -2.1471 -0.8183  0.9873
   47MOL   H40341895   4.226   2.013   1.433 -0.8886 -0.5144 -0.7281
   47MOL   H40441896   4.130   1.787   1.342 -1.9806  2.1385 -0.4056
   47MOL   H40541897   4.363   1.845   0.993 -0.5037 -0.2715 -0.3646
   47MOL   H40641898   4.426   2.061   1.073 -3.0536  1.1562 -1.5017
   47MOL   C40741899   4.160   1.645   1.001  0.4693  0.1796 -0.0608
   47MOL   C40841900   4.038   1.707   0.961  0.1069 -0.2468  0.3832
   47MOL   C40941901   3.973   1.677   0.840 -0.3626  0.0776 -0.4500
   47MOL   C41041902   4.039   1.581   0.761 -0.7164 -0.0422  0.6786
   47MOL   C41141903   4.158   1.512   0.801 -0.6306  0.4714 -0.8638
   47MOL   C41241904   4.220   1.546   0.923 -0.1144  1.2907  0.1421
   47MOL   S41341905   3.960   1.537   0.606 -0.0596 -0.2386 -0.3135
   47MOL   O41441906   3.957   1.388   0.604  0.0141  0.2050 -0.1319
   47MOL   O41541907   4.028   1.612   0.494  0.0568 -0.4128 -0.6301
   47MOL   C41641908   3.796   1.591   0.617  0.2914 -0.0211 -0.2955
   47MOL   C41741909   3.714   1.526   0.710  0.4679 -0.6910 -0.0924
   47MOL   C41841910   3.575   1.558   0.707 -0.6205 -0.2455  0.0857
   47MOL   C41941911   3.524   1.644   0.604 -0.0055 -0.1658  0.5360
   47MOL   C42041912   3.616   1.711   0.520 -0.7012  0.2343 -0.1028
   47MOL   C42141913   3.751   1.677   0.520 -0.9144  0.2124  0.0697
   47MOL   O42241914   3.390   1.669   0.598 -0.1906  0.7410  0.2161
   47MOL   C42341915   3.352   1.786   0.650 -0.9060 -0.2416  0.1765
   47MOL   C42441916   3.315   1.885   0.560 -0.2521  0.5387 -0.5026
   47MOL   C42541917   3.267   2.007   0.607  0.6954 -0.6262  0.4700
   47MOL   C42641918   3.284   2.045   0.740 -0.4523 -0.4137  0.4001
   47MOL   C42741919   3.324   1.950   0.836 -0.5381  0.4592  0.6117
   47MOL   C42841920   3.365   1.818   0.791 -0.1985 -0.0589  0.3228
   47MOL   C42941921   3.270   2.187   0.785  0.4334  0.0624  0.2429
   47MOL   C43041922   3.342   2.241   0.900  0.4315 -0.7760  0.0400
   47MOL   C43141923   3.332   2.375   0.932  0.0771  0.8735  0.1355
   47MOL   C43241924   3.262   2.463   0.844 -0.8187 -0.2195  0.4421
   47MOL   C43341925   3.178   2.413   0.742 -0.5736  0.0460  0.3818
   47MOL   C43441926   3.183   2.274   0.720 -0.1649 -0.5645  0.3813
   47MOL   O43541927   3.273   2.600   0.862  0.8410 -0.2688  0.0027
   47MOL   H43641928   3.993   1.775   1.031  0.1517  0.4944 -0.2978
   47MOL   H43741929   3.887   1.734   0.808 -0.1020  0.5667 -0.2837
   47MOL   H43841930   4.202   1.433   0.742  0.9105  0.4792  0.2466
   47MOL   H43941931   4.319   1.506   0.941 -0.7111 -1.2517 -2.0123
   47MOL   H44041932   3.752   1.459   0.786 -2.0926 -1.6110  0.4216
   47MOL   H44141933   3.499   1.516   0.770 -0.3232 -2.6075 -1.0608
   47MOL   H44241934   3.593   1.781   0.441  0.2473  0.3688 -0.2620
   47MOL   H44341935   3.815   1.732   0.453 -1.0897  0.9580  0.5011
   47MOL   H44441936   3.307   1.853   0.457  0.6972 -0.0688 -0.4010
   47MOL   H44541937   3.239   2.082   0.535 -0.6580  0.2240  1.8591
   47MOL   H44641938   3.344   1.990   0.934  0.0237  0.0499  0.6656
   47MOL   H44741939   3.413   1.749   0.858 -1.8550 -2.0349 -0.4751
   47MOL   H44841940   3.412   2.190   0.965 -0.9387  0.4115  2.5044
   47MOL   H44941941   3.388   2.407   1.019  0.0882  0.6902  0.1959
   47MOL   H45041942   3.122   2.477   0.676 -0.9926 -0.8903 -0.1806
   47MOL   H45141943   3.123   2.239   0.637 -0.7709 -0.0849  0.6070
   47MOL   C45241944   3.169   2.654   0.932  0.2445 -0.0293  0.4500
   47MOL   C45341945   3.092   2.747   0.870  0.3782  0.1579  0.9558
   47MOL   C45441946   2.981   2.814   0.927 -0.4717 -0.1821 -0.7546
   47MOL   C45541947   2.949   2.781   1.061 -0.1066  0.8218  0.1291
   47MOL   C45641948   3.018   2.671   1.125 -0.3939  0.1961 -0.6691
   47MOL   C45741949   3.131   2.615   1.065  0.6073 -0.5627  0.0581
   47MOL   S45841950   2.801   2.859   1.137  0.1954  0.0460  0.0197
   47MOL   O45941951   2.723   2.912   1.023 -0.5831 -0.0285 -0.1559
   47MOL   O46041952   2.852   2.941   1.247  0.2414  0.1532  0.3277
   47MOL   C46141953   2.717   2.724   1.204 -0.1183 -0.2933  0.3986
   47MOL   C46241954   2.738   2.692   1.342 -0.5550  0.3474  0.3391
   47MOL   C46341955   2.687   2.569   1.388  1.0016  0.6813  1.0096
   47MOL   C46441956   2.612   2.483   1.310  0.4562 -0.4410 -0.2436
   47MOL   C46541957   2.587   2.519   1.177  0.8914 -0.2167 -0.6717
   47MOL   C46641958   2.642   2.637   1.120 -0.2899  0.2639 -0.1822
   47MOL   O46741959   2.570   2.366   1.369  0.0068  0.1978  0.1328
   47MOL   C46841960   2.554   2.256   1.286  0.3436  0.2190  0.1443
   47MOL   C46941961   2.665   2.197   1.215 -0.3126  0.0085  0.4101
   47MOL   C47041962   2.640   2.101   1.118  0.0050 -0.2229 -0.1476
   47MOL   C47141963   2.507   2.062   1.091 -0.0360  0.2791  0.3050
   47MOL   C47241964   2.400   2.111   1.166  0.4241  0.1705 -0.2610
   47MOL   C47341965   2.424   2.212   1.258 -0.8376  0.1275 -0.1980
   47MOL   C47441966   2.481   1.959   0.984  1.0981  0.4119  0.3765
   47MOL   C47541967   2.530   1.974   0.850 -0.7184  0.0243  0.0860
   47MOL   C47641968   2.513   1.877   0.753  0.3336  0.2304 -0.5472
   47MOL   C47741969   2.463   1.752   0.780 -0.1823 -0.0779 -0.8826
   47MOL   C47841970   2.409   1.731   0.909 -0.0770 -0.2958  0.2608
   47MOL   C47941971   2.419   1.834   1.009  0.2723  0.8138 -0.4459
   47MOL   O48041972   2.469   1.660   0.682  0.0353  0.2263  0.5092
   47MOL   H48141973   3.120   2.772   0.768 -0.0982 -1.3383  0.4460
   47MOL   H48241974   2.924   2.888   0.873  1.7271 -0.3996 -3.5010
   47MOL   H48341975   2.988   2.635   1.222  0.9511 -0.4837 -0.4829
   47MOL   H48441976   3.185   2.534   1.114  0.2414 -0.9868 -0.2312
   47MOL   H48541977   2.795   2.754   1.409 -1.4349  0.7448  0.7254
   47MOL   H48641978   2.705   2.542   1.491 -2.8439  1.2804  1.8909
   47MOL   H48741979   2.525   2.457   1.113 -0.0529  1.0744 -1.0231
   47MOL   H48841980   2.629   2.669   1.018 -0.6361  1.6972  0.2990
   47MOL   H48941981   2.767   2.224   1.237 -0.7539  2.0979 -0.0173
   47MOL   H49041982   2.729   2.057   1.076 -0.6571 -1.5118 -0.2442
   47MOL   H49141983   2.303   2.066   1.154  0.8559 -0.4369 -1.5424
   47MOL   H49241984   2.342   2.250   1.317 -1.4405 -1.9085  0.3102
   47MOL   H49341985   2.575   2.064   0.813 -1.8969  0.0724 -1.2477
   47MOL   H49441986   2.519   1.896   0.647 -2.8270  0.7172 -0.6935
   47MOL   H49541987   2.353   1.642   0.934  0.1277 -0.3037  0.6899
   47MOL   H49641988   2.372   1.814   1.104  2.1596  0.5739  0.4507
   47MOL   C49741989   2.382   1.678   0.574 -0.4561 -0.1193 -0.1035
   47MOL   C49841990   2.434   1.709   0.445 -0.0169  0.0634 -0.4775
   47MOL   C49941991   2.343   1.719   0.335 -0.3931 -0.0474 -0.0359
   47MOL   C50041992   2.207   1.712   0.359 -0.7851  0.7052 -0.2858
   47MOL   C50141993   2.158   1.684   0.490  0.3185  0.0438 -0.2967
   47MOL   C50241994   2.247   1.659   0.598 -0.2491  0.0008 -0.8670
   47MOL   S50341995   2.094   1.736   0.213 -0.1912  0.3131  0.4373
   47MOL   O50441996   2.139   1.668   0.091  0.0903 -0.1860  0.4441
   47MOL   O50541997   2.081   1.884   0.202  0.5069 -0.7668  0.1382
   47MOL   C50641998   1.940   1.665   0.258  0.2085 -0.8597  0.8155
   47MOL   C50741999   1.847   1.749   0.320  0.1928  0.2016  0.0032
   47MOL   C50842000   1.736   1.690   0.379 -0.5447  0.3181  0.2479
   47MOL   C50942001   1.710   1.552   0.367  0.2807 -0.5704  0.4481
   47MOL   C51042002   1.799   1.472   0.296 -0.7846  1.1012  0.2642
   47MOL   C51142003   1.920   1.528   0.247  0.2925  0.1455 -0.0878
   47MOL   O51242004   1.600   1.511   0.439  0.2487 -0.5584 -0.4448
   47MOL   C51342005   1.622   1.426   0.546  0.0798 -0.4828  0.0495
   47MOL   C51442006   1.592   1.285   0.542  0.2012 -0.5010  0.2169
   47MOL   C51542007   1.606   1.217   0.668  0.0325  0.6945 -0.1416
   47MOL   C51642008   1.631   1.286   0.790 -0.2627 -0.0895 -0.6225
   47MOL   C51742009   1.647   1.422   0.789  0.1990  0.2059 -0.5017
   47MOL   C51842010   1.643   1.492   0.668  0.1525 -0.0062  0.2219
   47MOL   C51942011   1.630   1.203   0.909 -0.2354 -0.1622 -0.1111
   47MOL   C52042012   1.747   1.193   0.983  0.0903  0.1152 -0.0875
   47MOL   C52142013   1.768   1.091   1.077 -0.5101 -0.4510 -0.1333
   47MOL   C52242014   1.658   1.013   1.125  0.1309 -0.2026  0.0112
   47MOL   C52342015   1.533   1.030   1.054 -0.3919  0.1943 -0.0760
   47MOL   C52442016   1.520   1.124   0.951 -0.5776  0.4411  0.0372
   47MOL   O52542017   1.674   0.934   1.236  0.1541 -0.1234  0.0774
   47MOL   H52642018   2.541   1.715   0.430 -0.0387 -0.7021 -0.9278
   47MOL   H52742019   2.373   1.746   0.236  1.1445 -1.2714  0.0756
   47MOL   H52842020   2.054   1.682   0.520  0.7723 -1.8547  1.2630
   47MOL   H52942021   2.212   1.642   0.698 -0.8396  0.2395 -1.0313
   47MOL   H53042022   1.873   1.853   0.336  2.5846 -0.4920  0.8784
   47MOL   H53142023   1.674   1.746   0.446  2.0583  0.7050  2.4238
   47MOL   H53242024   1.782   1.366   0.306 -1.9056  1.4742  2.9912
   47MOL   H53342025   1.992   1.466   0.196 -1.0730 -2.0723  0.6075
   47MOL   H53442026   1.573   1.234   0.449  0.8710  1.1955 -0.8700
   47MOL   H53542027   1.581   1.112   0.676  2.2107  0.2454  1.1002
   47MOL   H53642028   1.653   1.472   0.885 -1.7979  0.4885 -0.4933
   47MOL   H53742029   1.657   1.599   0.663  1.6246 -0.1492  0.9711
   47MOL   H53842030   1.840   1.244   0.960 -0.0193 -0.2626 -1.4508
   47MOL   H53942031   1.855   1.093   1.141 -1.0844 -0.3347  0.6540
   47MOL   H54042032   1.446   0.973   1.084  0.6553 -2.0438 -1.1529
   47MOL   H54142033   1.426   1.142   0.902  0.0878  1.4125 -0.9132
   47MOL   C54242034   1.563   0.888   1.294 -0.3128 -0.1657  0.4551
   47MOL   C54342035   1.461   0.969   1.352 -0.4366 -0.4535  0.1957
   47MOL   C54442036   1.339   0.917   1.397  0.3222 -0.5896 -0.1429
   47MOL   C54542037   1.331   0.780   1.411 -0.1931 -0.3179  0.5710
   47MOL   C54642038   1.436   0.700   1.367  0.0311 -0.8356 -0.4973
   47MOL   C54742039   1.559   0.752   1.314  1.0338  0.0467  0.3449
   47MOL   S54842040   1.185   0.697   1.473  0.2346  0.0761 -0.0997
   47MOL   O54942041   1.232   0.621   1.589 -0.0023  0.0694 -0.4271
   47MOL   O55042042   1.119   0.628   1.358 -0.1472  0.1343 -0.2733
   47MOL   C55142043   1.072   0.827   1.526  0.0906 -0.2824 -0.2546
   47MOL   C55242044   1.080   0.868   1.666  0.3781  0.5068 -0.1373
   47MOL   C55342045   1.003   0.977   1.711 -0.1801  0.0310  0.3471
   47MOL   C55442046   0.923   1.048   1.617 -0.5146 -0.5611  0.0999
   47MOL   C55542047   0.912   1.006   1.486 -0.4311 -0.5373  0.4885
   47MOL   C55642048   0.984   0.890   1.439  0.4611 -0.3745 -1.0376
   47MOL   O55742049   0.864   1.163   1.663  0.8819  0.1856 -0.3769
   47MOL   C55842050   0.900   1.285   1.605 -0.1481  0.3937  0.0311
   47MOL   C55942051   0.802   1.368   1.560  0.1679  0.0592  0.2161
   47MOL   C56042052   0.836   1.486   1.492 -0.2406  0.0339  0.7229
   47MOL   C56142053   0.970   1.522   1.470 -0.1988  0.2861 -0.7729
   47MOL   C56242054   1.071   1.438   1.524 -0.4716  0.2662  0.5911
   47MOL   C56342055   1.034   1.319   1.589  0.5313 -0.1734 -0.5244
   47MOL   C56442056   1.006   1.646   1.390  0.0880  0.3476  0.3288
   47MOL   C56542057   0.948   1.686   1.268  0.4164  0.0369  0.5257
   47MOL   C56642058   0.974   1.808   1.202 -0.4125 -0.3027 -0.6976
   47MOL   C56742059   1.078   1.884   1.262  0.4347 -0.3178  0.7527
   47MOL   C56842060   1.136   1.852   1.387 -0.0965 -0.1149 -0.7772
   47MOL   C56942061   1.107   1.728   1.444  0.1086  0.0190  0.3346
   47MOL   O57042062   1.117   2.000   1.199  0.3506 -0.2062  0.3674
   47MOL   H57142063   1.476   1.076   1.349  1.2686 -0.6259  1.6117
   47MOL   H57242064   1.260   0.983   1.430  1.5740  0.2606  1.1633
   47MOL   H57342065   1.422   0.594   1.383 -0.0308 -0.7250  0.1830
   47MOL   H57442066   1.636   0.681   1.288  2.7905  1.8235  0.5747
   47MOL   H57542067   1.139   0.797   1.722 -0.1738  0.6467  0.6263
   47MOL   H57642068   1.012   1.024   1.807 -0.8252 -2.0600  1.4574
   47MOL   H57742069   0.843   1.071   1.434  1.6593  0.9042 -0.5486
   47MOL   H57842070   0.977   0.858   1.337  2.2353  0.2410 -1.3594
   47MOL   H57942071   0.696   1.351   1.572  0.0209  0.4809 -0.4767
   47MOL   H58042072   0.759   1.543   1.444 -1.4191  0.5963  3.1895
   47MOL   H58142073   1.174   1.466   1.506 -0.0771 -1.2274  0.4205
   47MOL   H58242074   1.114   1.251   1.615  0.6556  0.2569  0.2393
   47MOL   H58342075   0.865   1.631   1.225 -0.1106  1.9302 -0.9757
   47MOL   H58442076   0.927   1.849   1.114  1.1806  1.6311 -0.6786
   47MOL   H58542077   1.211   1.925   1.415 -0.8268  0.4785 -0.3717
   47MOL   H58642078   1.156   1.714   1.539  3.1962  3.2823 -0.6571
   47MOL   C58742079   1.044   2.117   1.213  0.4002  0.3054  0.1476
   47MOL   C58842080   0.921   2.117   1.283  0.3608  0.1754 -0.3977
   47MOL   C58942081   0.845   2.234   1.309  0.9159  0.6134 -0.4315
   47MOL   C59042082   0.896   2.353   1.259 -0.5874  0.3076  0.4005
   47MOL   C59142083   1.019   2.356   1.193  0.6093  0.2004  0.2281
   47MOL   C59242084   1.089   2.240   1.162  0.2755  0.2199  0.2679
   47MOL   S59342085   0.798   2.499   1.287 -0.1356  0.2826 -0.2837
   47MOL   O59442086   0.802   2.521   1.432  0.1053 -0.5158  0.7175
   47MOL   O59542087   0.669   2.479   1.220 -0.3017 -0.2279 -0.1861
   47MOL   C59642088   0.875   2.645   1.206  0.6480  0.0819 -0.3097
   47MOL   C59742089   0.811   2.695   1.091 -0.5838  0.3707  0.3732
   47MOL   C59842090   0.878   2.794   1.014  0.3993  0.1236 -0.6774
   47MOL   C59942091   0.996   2.845   1.059 -0.2745 -0.1637  0.0968
   47MOL   C60042092   1.048   2.817   1.187  0.1522  0.2298 -0.4480
   47MOL   C60142093   0.986   2.711   1.265 -0.1816  0.0988 -0.3558
   47MOL   O60242094   1.057   2.940   0.983  0.4281 -0.3045  0.2226
   47MOL   C60342095   1.147   2.898   0.882  0.2950  0.5926  0.4796
   47MOL   C60442096   1.249   2.808   0.913  0.7976  0.7973  0.0294
   47MOL   C60542097   1.330   2.758   0.812  0.4660  0.5928 -0.4053
   47MOL   C60642098   1.308   2.803   0.683 -0.0744 -0.3375  0.7438
   47MOL   C60742099   1.214   2.899   0.652  0.1023  0.6378  0.4323
   47MOL   C60842100   1.133   2.946   0.756 -0.4258 -0.6268  0.4844
   47MOL   C60942101   1.388   2.749   0.568  0.0853  0.0307 -0.5582
   47MOL   C61042102   1.446   2.831   0.475 -0.3431  0.6383  0.0313
   47MOL   C61142103   1.530   2.773   0.374  0.3560  0.4210 -0.1266
   47MOL   C61242104   1.533   2.634   0.350  0.0671  0.0619 -0.1160
   47MOL   C61342105   1.456   2.555   0.441 -0.5850 -0.5556  0.6649
   47MOL   C61442106   1.387   2.609   0.554 -0.6758 -0.0431  0.0189
   47MOL   O61542107   1.606   2.573   0.249 -0.6623 -0.0073  0.5678
   47MOL   H61642108   0.883   2.026   1.328 -1.1491  0.7672 -0.4413
   47MOL   H61742109   0.753   2.238   1.364 -0.2183  1.0819 -2.3120
   47MOL   H61842110   1.063   2.451   1.165 -0.1524  0.1884 -1.0460
   47MOL   H61942111   1.181   2.248   1.106 -0.5375  0.5514 -1.0368
   47MOL   H62042112   0.725   2.654   1.041  0.2610 -0.9131 -0.0537
   47MOL   H62142113   0.846   2.811   0.912  2.9286 -0.6587 -1.6417
   47MOL   H62242114   1.135   2.874   1.217  1.0723 -1.2151 -0.3154
   47MOL   H62342115   1.024   2.675   1.359 -1.0004 -1.5629 -0.6369
   47MOL   H62442116   1.255   2.775   1.016 -0.0781 -0.6577 -0.3678
   47MOL   H62542117   1.409   2.692   0.844 -0.8169 -0.1858  1.2452
   47MOL   H62642118   1.210   2.948   0.556  1.2586 -0.2592 -0.0882
   47MOL   H62742119   1.068   3.030   0.737  0.2132 -0.2936 -0.2556
   47MOL   H62842120   1.436   2.938   0.482  0.1672  0.7699 -1.1601
   47MOL   H62942121   1.589   2.841   0.314  1.3663 -0.4869 -0.1876
   47MOL   H63042122   1.455   2.447   0.433  1.5257 -0.6012  0.4975
   47MOL   H63142123   1.340   2.552   0.631  0.8479 -1.8711 -0.3704
   47MOL   C63242124   1.534   2.510   0.156 -0.5063  0.1488  0.3998
   47MOL   C63342125   1.494   2.376   0.183  0.4265 -0.3152  0.3947
   47MOL   C63442126   1.412   2.312   0.082 -0.6716  0.0284 -0.2597
   47MOL   C63542127   1.387   2.375   8.324  0.2338 -0.1262  0.4237
   47MOL   C63642128   1.417   2.514   8.306  0.0333  0.4705 -1.0894
   47MOL   C63742129   1.488   2.583   0.039 -0.3506  0.7465 -0.3157
   47MOL   S63842130   1.332   2.284   8.184 -0.2862  0.2948 -0.1238
   47MOL   O63942131   1.214   2.360   8.131  0.6845  0.4352  0.1648
   47MOL   O64042132   1.311   2.140   8.207 -0.2710 -0.2976 -0.2812
   47MOL   C64142133   1.462   2.290   8.057  0.2009 -0.8155  0.4385
   47MOL   C64242134   1.429   2.286   7.917 -0.3727  0.5472  0.1166
   47MOL   C64342135   1.529   2.275   7.821 -0.0501  0.4971 -0.3005
   47MOL   C64442136   1.665   2.296   7.859 -0.0484 -0.1838  0.1364
   47MOL   C64542137   1.701   2.308   7.998 -0.3492 -0.6500 -0.0634
   47MOL   C64642138   1.599   2.295   8.094  0.0686 -0.0094  0.0738
   47MOL   O64742139   1.765   2.284   7.763 -0.5966 -1.0420 -0.1127
   47MOL   C64842140   1.785   2.170   7.689 -0.3231  0.4361 -0.0676
   47MOL   C64942141   1.775   2.044   7.753  0.2177 -0.0427  0.0785
   47MOL   C65042142   1.773   1.928   7.678 -0.2360  0.3354  1.0615
   47MOL   C65142143   1.802   1.926   7.542 -0.2925  0.4938  1.1053
   47MOL   C65242144   1.820   2.049   7.473  0.0357  0.5085  0.5779
   47MOL   C65342145   1.828   2.169   7.551  0.3020  0.6916 -0.2384
   47MOL   C65442146   1.769   1.801   7.465  0.4518  0.2212 -1.2226
   47MOL   C65542147   1.672   1.787   7.363 -0.0899 -0.2426 -0.2186
   47MOL   C65642148   1.664   1.678   7.273 -0.1190 -0.3562  0.0518
   47MOL   C65742149   1.757   1.576   7.292 -0.0473  1.2288  1.2133
   47MOL   C65842150   1.843   1.573   7.400 -0.4100  1.1451 -0.2154
   47MOL   C65942151   1.853   1.684   7.483  0.2262  0.4081 -0.0857
   47MOL   O66042152   1.742   1.465   7.210 -0.5157  0.1866 -0.3947
   47MOL   H66142153   1.523   2.337   0.279  0.2752 -1.1010  0.1268
   47MOL   H66242154   1.377   2.211   0.090  0.2962 -0.0998  2.7673
   47MOL   H66342155   1.391   2.575   8.221 -0.0280  3.8267  1.2515
   47MOL   H66442156   1.510   2.689   0.031 -1.5183  1.0895  0.7462
   47MOL   H66542157   1.326   2.285   7.883 -0.1940  1.3311 -0.4816
   47MOL   H66642158   1.499   2.277   7.718 -1.1548  1.3276  0.0263
   47MOL   H66742159   1.804   2.308   8.028  0.1793  1.4644 -1.7395
   47MOL   H66842160   1.627   2.304   8.198 -3.2139  0.2021  0.9859
   47MOL   H66942161   1.756   2.038   7.860  3.1829 -1.8039  0.5666
   47MOL   H67042162   1.770   1.830   7.723  1.1887 -0.2698 -0.1062
   47MOL   H67142163   1.834   2.056   7.366  0.9548 -0.8983  0.5932
   47MOL   H67242164   1.846   2.260   7.495 -2.0239  1.8745  0.8542
   47MOL   H67342165   1.599   1.865   7.348 -2.5674 -2.3077  0.6478
   47MOL   H67442166   1.590   1.686   7.194  0.0018  1.7400  0.1190
   47MOL   H67542167   1.918   1.497   7.416 -0.8029  0.6731 -0.5991
   47MOL   H67642168   1.946   1.699   7.535  0.6421  0.5855 -0.8778
   47MOL   C67742169   1.762   1.341   7.258 -0.2437  0.6180  0.0476
   47MOL   C67842170   1.662   1.286   7.340 -0.7330 -0.1555 -0.3795
   47MOL   C67942171   1.681   1.160   7.401  0.0060 -0.6022  0.3493
   47MOL   C68042172   1.805   1.093   7.384 -0.2266 -0.1954  0.0131
   47MOL   C68142173   1.909   1.151   7.305  0.4562 -0.6906 -0.1295
   47MOL   C68242174   1.880   1.273   7.241  1.0222 -0.4336  0.2106
   47MOL   S68342175   1.825   0.924   7.443  0.2866  0.4089 -0.3717
   47MOL   O68442176   1.957   0.871   7.407 -0.4381  0.1998  0.0548
   47MOL   O68542177   1.697   0.857   7.409 -0.4567  0.0152  0.2044
   47MOL   C68642178   1.832   0.950   7.622 -0.7014  0.1307 -0.0174
   47MOL   C68742179   1.720   0.985   7.697 -0.0852  0.0752 -0.4967
   47MOL   C68842180   1.730   1.013   7.836  0.3387 -0.2671 -0.2369
   47MOL   C68942181   1.863   1.017   7.892 -0.4142  0.4286  0.1819
   47MOL   C69042182   1.976   0.969   7.830 -0.2214 -0.0627  0.3464
   47MOL   C69142183   1.957   0.939   7.693 -0.3934  0.2049 -0.1644
   47MOL   O69242184   1.873   1.079   8.011 -0.5163 -0.1097 -0.3664
   47MOL   C69342185   1.871   1.214   8.018  0.3708  0.6113 -1.0933
   47MOL   C69442186   1.880   1.270   8.145  0.1215 -0.1345  0.4133
   47MOL   C69542187   1.875   1.409   8.164  0.4843  1.0873  0.6552
   47MOL   C69642188   1.859   1.495   8.055  0.3797  0.2680  0.1195
   47MOL   C69742189   1.851   1.441   7.926 -0.1260 -0.5569 -0.5990
   47MOL   C69842190   1.864   1.301   7.910  0.4697 -0.1596  0.1195
   47MOL   C69942191   1.835   1.631   8.082 -0.2310  0.2485 -0.2408
   47MOL   C70042192   1.932   1.712   8.149  0.4547  0.8112 -0.0383
   47MOL   C70142193   1.907   1.846   8.184 -0.1464  0.3590  0.1625
   47MOL   C70242194   1.788   1.907   8.139 -0.1772  0.2810 -0.1937
   47MOL   C70342195   1.692   1.829   8.066 -0.1080  0.1143 -1.0467
   47MOL   C70442196   1.718   1.694   8.037 -0.3511 -0.0246 -0.4817
   47MOL   O70542197   1.773   2.042   8.158 -0.5162  0.2412 -0.2976
   47MOL   H70642198   1.570   1.341   7.351 -0.1808  0.8119 -0.5857
   47MOL   H70742199   1.605   1.100   7.449  1.5238 -2.8817 -0.0118
   47MOL   H70842200   1.997   1.097   7.276 -0.1592 -2.0922  0.5718
   47MOL   H70942201   1.962   1.311   7.182  0.0358  4.6681  1.9385
   47MOL   H71042202   1.622   0.981   7.651  0.1469 -1.7403 -0.8386
   47MOL   H71142203   1.646   1.054   7.889 -0.8835  1.0800 -3.0700
   47MOL   H71242204   2.075   0.967   7.873  0.8780 -1.0574 -2.1314
   47MOL   H71342205   2.050   0.903   7.653 -0.6053 -0.4267 -0.0800
   47MOL   H71442206   1.898   1.207   8.232  0.0174 -0.4201  0.2297
   47MOL   H71542207   1.884   1.451   8.263 -3.2142 -1.0531  2.0275
   47MOL   H71642208   1.840   1.510   7.843  1.9231 -1.9679 -2.1016
   47MOL   H71742209   1.876   1.269   7.808  2.8154  0.9349  0.0087
   47MOL   H71842210   2.022   1.664   8.184 -0.4936 -0.4150  0.7250
   47MOL   H71942211   1.975   1.899   8.248  0.4519 -0.6742  0.3969
   47MOL   H72042212   1.598   1.872   8.037 -0.5900  0.0499  0.3572
   47MOL   H72142213   1.646   1.643   7.974 -1.0100  0.8604 -0.4505
   47MOL   C72242214   1.805   2.085   8.289 -0.2706 -0.2844 -0.1384
   47MOL   C72342215   1.713   2.068   0.035 -0.2064 -0.5238 -0.0467
   47MOL   C72442216   1.753   2.125   0.156  0.0120 -0.0839  0.2720
   47MOL   C72542217   1.883   2.178   0.174  0.8978 -0.0844 -0.4607
   47MOL   C72642218   1.976   2.180   0.070 -0.0851 -0.1807  0.2702
   47MOL   C72742219   1.934   2.138   8.305  0.6347 -0.2467  0.2503
   47MOL   S72842220   1.926   2.235   0.343  0.6523 -0.3173 -0.5178
   47MOL   O72942221   1.966   2.113   0.412  0.5266  0.5827 -0.1720
   47MOL   O73042222   1.819   2.322   0.389 -0.2743  0.1052 -0.2417
   47MOL   C73142223   2.070   2.340   0.319 -0.0738  0.2471 -0.6036
   47MOL   C73242224   2.196   2.296   0.376  0.1065  0.1967 -0.2276
   47MOL   C73342225   2.308   2.384   0.354  0.3859 -0.4803  0.6571
   47MOL   C73442226   2.293   2.511   0.298  0.6359  0.6690  0.2890
   47MOL   C73542227   2.164   2.552   0.263  0.3095 -0.6751  0.1200
   47MOL   C73642228   2.055   2.464   0.258 -0.0384 -0.0968 -0.6440
   47MOL   O73742229   2.403   2.590   0.291  0.4161  0.5722 -0.6631
   47MOL   C73842230   2.455   2.622   0.168  0.2867 -0.3181 -0.1258
   47MOL   C73942231   2.444   2.759   0.131  1.1075  0.6261  0.2041
   47MOL   C74042232   2.511   2.806   0.015  0.4415 -1.0491 -0.2514
   47MOL   C74142233   2.589   2.717   8.302 -0.0195 -0.3943 -0.5359
   47MOL   C74242234   2.602   2.586   8.341 -0.1271  0.1637 -0.8484
   47MOL   C74342235   2.536   2.539   0.091 -0.6871  0.1568  0.3630
   47MOL   C74442236   2.658   2.770   8.179 -0.0703 -0.0624  0.0501
   47MOL   C74542237   2.718   2.898   8.178  0.1558 -0.5264  0.3894
   47MOL   C74642238   2.770   2.944   8.056 -0.1933  0.0937  0.1807
   47MOL   C74742239   2.770   2.871   7.939  0.5007 -0.2833  1.0988
   47MOL   C74842240   2.726   2.738   7.947 -0.0997  0.0506 -0.5299
   47MOL   C74942241   2.663   2.685   8.059 -0.0793  0.0085 -0.4548
   47MOL   O75042242   2.801   2.920   7.821  0.6821  0.2856  0.1884
   47MOL   H75142243   1.623   2.010   0.018 -0.5756  0.0252 -0.0002
   47MOL   H75242244   1.692   2.125   0.246  1.4843 -0.2489  1.2871
   47MOL   H75342245   2.080   2.209   0.079 -0.3277  0.4977  0.8816
   47MOL   H75442246   1.996   2.131   8.217  0.7666 -2.7556  0.4837
   47MOL   H75542247   2.197   2.202   0.429  2.4675  0.1179 -0.3339
   47MOL   H75642248   2.406   2.352   0.388 -0.4533 -4.4195 -0.3736
   47MOL   H75742249   2.146   2.653   0.227 -1.6500  0.5533  4.2185
   47MOL   H75842250   1.957   2.492   0.225 -0.7161 -1.6638 -0.0124
   47MOL   H75942251   2.388   2.819   0.202  1.2590  0.6152  0.3329
   47MOL   H76042252   2.507   2.910   8.352 -0.9237 -0.8447  0.6339
   47MOL   H76142253   2.666   2.523   8.281  1.0414  0.4042  0.1257
   47MOL   H76242254   2.537   2.438   0.129 -1.7467 -0.1702 -0.4342
   47MOL   H76342255   2.716   2.956   8.269 -0.3814  0.5987 -0.3392
   47MOL   H76442256   2.808   3.045   8.054  3.5670 -1.2336  0.5330
   47MOL   H76542257   2.731   2.676   7.859  0.0412  0.0932 -0.5518
   47MOL   H76642258   2.611   2.593   8.042  0.9478 -0.4930 -0.9381
   47MOL   C76742259   2.735   3.033   7.788 -0.0274 -0.0886 -0.2186
   47MOL   C76842260   2.802   3.145   7.733  0.0534 -0.4900  0.2511
   47MOL   C76942261   2.732   3.261   7.687 -0.1246  0.5752 -0.4538
   47MOL   C77042262   2.591   3.279   7.713  0.1503  0.3919  0.1248
   47MOL   C77142263   2.524   3.166   7.773 -0.0083  0.6324 -0.6252
   47MOL   C77242264   2.595   3.048   7.802  0.2333 -0.3820 -0.4952
   47MOL   S77342265   2.488   3.404   7.650  0.2234 -0.0494 -0.4067
   47MOL   O77442266   2.404   3.437   7.762 -0.5261  0.1914 -0.4188
   47MOL   O77542267   2.419   3.356   7.529 -0.4026  0.2559  0.6101
   47MOL   C77642268   2.597   3.542   7.610 -0.5050  0.2263  0.5567
   47MOL   C77742269   2.676   3.545   7.494  0.2534 -1.2289 -0.1293
   47MOL   C77842270   2.758   3.659   7.468 -0.6169 -0.2202  0.3411
   47MOL   C77942271   2.773   3.759   7.571  0.3133 -0.9390  0.6044
   47MOL   C78042272   2.702   3.752   7.691 -0.1213  0.2732  0.2455
   47MOL   C78142273   2.614   3.643   7.710  0.6344 -0.4857 -0.1996
   47MOL   O78242274   2.856   3.865   7.537 -0.8876  0.0454  0.2121
   47MOL   C78342275   2.813   3.956   7.444 -0.4627 -0.2570 -0.0952
   47MOL   C78442276   2.893   3.979   7.331  0.3749  0.1192 -0.0314
   47MOL   C78542277   2.859   4.077   7.235  0.3059 -0.3141 -0.6916
   47MOL   C78642278   2.738   4.149   7.241 -0.8573  0.9681 -0.6811
   47MOL   C78742279   2.654   4.116   7.347 -0.1828  0.1391 -0.3145
   47MOL   C78842280   2.691   4.015   7.444 -0.7118  0.0762 -0.0607
   47MOL   C78942281   2.700   4.252   7.144  0.3657 -0.1747  0.1692
   47MOL   C79042282   2.752   4.271   7.015  0.1674 -0.6911  0.7501
   47MOL   C79142283   2.703   4.369   6.929  0.2034 -0.7441  0.4002
   47MOL   C79242284   2.606   4.465   6.966  0.1838 -0.2988 -0.1149
   47MOL   C79342285   2.549   4.447   7.092  0.3407 -0.5954 -0.4515
   47MOL   C79442286   2.590   4.342   7.179  0.3419  0.4978 -0.1714
   47MOL   O79542287   2.571   4.565   6.877 -0.6061 -0.4255 -0.5234
   47MOL   H79642288   2.909   3.150   7.719  0.1952  0.6794  1.5894
   47MOL   H79742289   2.792   3.326   7.625  2.1370  2.1972  3.2373
   47MOL   H79842290   2.419   3.153   7.792 -0.0461 -2.7463 -2.6704
   47MOL   H79942291   2.545   2.963   7.845  0.7605  0.1648  1.2309
   47MOL   H80042292   2.661   3.474   7.414 -0.3498 -0.2942 -0.8575
   47MOL   H80142293   2.827   3.669   7.386  2.8790 -0.4979  3.1055
   47MOL   H80242294   2.710   3.835   7.760 -0.8402 -0.7577  1.5971
   47MOL   H80342295   2.562   3.647   7.804 -0.3802 -1.7927 -0.6839
   47MOL   H80442296   2.985   3.924   7.317 -1.4552 -2.8069 -0.9963
   47MOL   H80542297   2.927   4.114   7.159  2.7129 -1.5807  0.7829
   47MOL   H80642298   2.554   4.157   7.356  0.4056  1.7515 -0.8988
   47MOL   H80742299   2.627   3.993   7.528 -0.2128 -0.5250  0.1642
   47MOL   H80842300   2.823   4.201   6.974  0.8155  0.2997  0.1551
   47MOL   H80942301   2.730   4.372   6.824 -1.3085  0.8297  0.0454
   47MOL   H81042302   2.466   4.508   7.126 -0.6256 -3.1872  2.0763
   47MOL   H81142303   2.542   4.339   7.276 -0.4758  3.5373 -0.4427
   47MOL   C81242304   2.583   4.697   6.916  0.0877 -0.2589  0.3581
   47MOL   C81342305   2.483   4.792   6.883 -0.5077  0.2209 -0.4185
   47MOL   C81442306   2.502   4.930   6.915 -0.4266  0.0696  0.2301
   47MOL   C81542307   2.619   4.977   6.974  0.8041  0.1069  0.8618
   47MOL   C81642308   2.717   4.885   7.000  1.1066 -0.0593  0.2523
   47MOL   C81742309   2.700   4.747   6.976  0.4166  0.5199  0.4592
   47MOL   S81842310   2.644   5.156   6.997  0.2033 -0.2128 -0.1038
   47MOL   O81942311   2.693   5.216   6.872 -0.4708  0.3591 -0.2542
   47MOL   O82042312   2.718   5.181   7.123 -0.5823  0.0014  0.1035
   47MOL   C82142313   2.481   5.230   7.024 -0.5803 -0.6978  0.1235
   47MOL   C82242314   2.449   5.343   6.957 -0.1102 -0.0600 -1.2386
   47MOL   C82342315   2.324   5.408   6.978 -0.0906  0.2106 -0.5261
   47MOL   C82442316   2.240   5.359   7.080 -0.0604  0.3776  0.0220
   47MOL   C82542317   2.287   5.243   7.154  0.4011 -0.5103  0.2190
   47MOL   C82642318   2.403   5.175   7.124 -0.2534 -0.2550 -0.7154
   47MOL   O82742319   2.122   5.423   7.113  0.6470 -0.0499 -0.0957
   47MOL   C82842320   2.113   5.477   7.243  0.4904 -0.0701 -0.7567
   47MOL   C82942321   2.040   5.417   7.341 -0.2967  0.7091 -0.7834
   47MOL   C83042322   2.041   5.465   7.473  0.9739  0.3216 -0.4114
   47MOL   C83142323   2.106   5.586   7.506  0.3157 -0.1883 -0.3540
   47MOL   C83242324   2.164   5.659   7.399 -0.1327  0.0750 -1.1520
   47MOL   C83342325   2.169   5.601   7.269 -0.4269 -0.0833 -0.3199
   47MOL   C83442326   2.074   5.632   7.641 -0.7588 -0.2005 -0.2114
   47MOL   C83542327   2.033   5.764   7.669 -0.9663 -0.1692 -0.0021
   47MOL   C83642328   2.009   5.811   7.801 -0.2734  0.3238  0.5580
   47MOL   C83742329   2.024   5.718   7.907 -0.0305 -1.0085 -0.1182
   47MOL   C83842330   2.058   5.587   7.882  0.8665 -0.2520 -0.4964
   47MOL   C83942331   2.078   5.540   7.748  0.3410 -0.0308  0.2898
   47MOL   O84042332   1.999   5.767   8.033 -0.7814 -0.3825  0.4337
   47MOL   H84142333   2.391   4.756   6.837 -1.0942 -0.4805  1.2693
   47MOL   H84242334   2.434   5.006   6.878 -0.2073 -0.4516 -1.2840
   47MOL   H84342335   2.814   4.910   7.041  2.8118 -4.5010 -0.7914
   47MOL   H84442336   2.784   4.682   6.996 -0.1373 -1.0161 -2.0338
   47MOL   H84542337   2.520   5.376   6.883 -2.1877  1.5772 -2.5679
   47MOL   H84642338   2.298   5.499   6.926 -2.9288  0.1831  0.7741
   47MOL   H84742339   2.231   5.194   7.232  0.1156 -1.7901 -0.7606
   47MOL   H84842340   2.440   5.087   7.174  1.8976  1.1314  0.2132
   47MOL   H84942341   1.983   5.328   7.318 -0.1788  0.2514  0.6221
   47MOL   H85042342   1.992   5.406   7.549  1.2595 -0.3982 -0.7892
   47MOL   H85142343   2.204   5.758   7.412  1.0212 -0.6126  0.7859
   47MOL   H85242344   2.217   5.657   7.190  0.7885 -2.1375 -1.0815
   47MOL   H85342345   2.041   5.842   7.595  0.0019  0.2071  0.5075
   47MOL   H85442346   1.985   5.913   7.827  3.2741  2.0032 -2.3197
   47MOL   H85542347   2.071   5.511   7.958  0.4789  0.8969  0.7298
   47MOL   H85642348   2.110   5.437   7.741 -0.7705 -0.2680 -1.6676
   47MOL   C85742349   2.102   5.760   8.117  0.4484  0.3928  0.4018
   47MOL   C85842350   2.132   5.640   8.190 -0.2929  0.0876  0.3560
   47MOL   C85942351   2.236   5.639   8.284 -0.4365 -0.3342  0.8547
   47MOL   C86042352   2.303   5.760   8.316  0.1373  0.5689  0.4909
   47MOL   C86142353   2.268   5.882   8.249  0.2920  0.7059 -0.1146
   47MOL   C86242354   2.166   5.876   8.151 -0.5015 -0.1940 -0.1138
   47MOL   S86342355   2.437   5.767   0.061  0.4979  0.2049  0.0760
   47MOL   O86442356   2.383   5.756   0.196  0.0297 -0.1864 -0.5501
   47MOL   O86542357   2.520   5.878   0.019  0.3184 -0.0004  1.0708
   47MOL   C86642358   2.539   5.617   0.031  0.8505  0.1994 -0.6668
   47MOL   C86742359   2.547   5.560   8.266 -0.9206 -0.4726  0.2651
   47MOL   C86842360   2.629   5.448   8.245  0.2856 -0.2976  0.6888
   47MOL   C86942361   2.709   5.404   8.352  0.5136  0.3094  0.2766
   47MOL   C87042362   2.715   5.473   0.113  0.2784  0.2084  0.4352
   47MOL   C87142363   2.627   5.577   0.133  0.4136 -0.6286  0.4815
   47MOL   O87242364   2.801   5.309   8.335 -0.2130  0.1137  0.6661
   47MOL   C87342365   2.881   5.314   8.223  0.3641 -0.1157  0.1003
   47MOL   C87442366   2.868   5.220   8.123 -0.8409  0.9684  0.5033
   47MOL   C87542367   2.955   5.226   8.013  0.0248  0.4127  0.3285
   47MOL   C87642368   3.047   5.335   7.998 -0.0196 -0.1554  0.3603
   47MOL   C87742369   3.054   5.429   8.100 -0.6450 -0.5661  0.3380
   47MOL   C87842370   2.965   5.419   8.205 -0.6071 -0.8848  1.1042
   47MOL   C87942371   3.129   5.357   7.879  0.0158  0.7210 -0.4143
   47MOL   C88042372   3.266   5.386   7.883 -0.3966  1.1046  0.3827
   47MOL   C88142373   3.333   5.395   7.764  0.0259 -0.4188 -0.2409
   47MOL   C88242374   3.278   5.365   7.644 -0.1035 -0.2493  0.4992
   47MOL   C88342375   3.140   5.351   7.636 -0.8515 -0.0421 -0.6826
   47MOL   C88442376   3.066   5.343   7.754 -0.6909  0.0870  0.3863
   47MOL   O88542377   3.346   5.389   7.530 -0.0525  0.6032  0.2912
   47MOL   H88642378   2.081   5.545   8.178  1.1357 -0.3653 -2.5691
   47MOL   H88742379   2.253   5.551   8.345  1.2650 -0.6022  0.0257
   47MOL   H88842380   2.312   5.975   8.281  1.7205 -0.1725  0.5367
   47MOL   H88942381   2.138   5.968   8.102 -1.6764 -0.8910 -0.7568
   47MOL   H89042382   2.489   5.603   8.185 -0.3301 -0.0160  0.0825
   47MOL   H89142383   2.635   5.402   8.148  1.6595 -0.4910  0.8576
   47MOL   H89242384   2.784   5.432   0.185 -0.4937  0.9893  1.6384
   47MOL   H89342385   2.628   5.625   0.230  0.0862 -0.6942  0.5202
   47MOL   H89442386   2.793   5.142   8.131  0.6542 -0.4398  1.0507
   47MOL   H89542387   2.947   5.145   7.942  2.6867 -0.6041  1.1301
   47MOL   H89642388   3.123   5.511   8.091 -3.0719  1.2650 -2.3326
   47MOL   H89742389   2.960   5.493   8.283  2.4894  1.6485 -0.9804
   47MOL   H89842390   3.319   5.400   7.976 -0.0778  0.0078  0.3802
   47MOL   H89942391   3.437   5.426   7.766  0.2917 -1.2995 -0.3271
   47MOL   H90042392   3.097   5.341   7.538 -0.1498 -0.9840 -0.8910
   47MOL   H90142393   2.959   5.335   7.748 -0.6813  0.6287 -0.6978
   47MOL   H90242394   3.412   5.457   7.532 -1.6306  2.1619  0.9782
   48MOL     C142395   1.892   6.649   6.337  0.6599  0.0149  0.4685
   48MOL     C242396   1.923   6.783   6.368  0.1304 -0.2017 -0.6982
   48MOL     C342397   1.868   6.847   6.481  0.8804 -0.0083 -0.2776
   48MOL     C442398   1.767   6.774   6.553  0.0994  0.2246 -0.2301
   48MOL     C542399   1.737   6.641   6.521 -1.2103  0.5135 -0.5987
   48MOL     C642400   1.791   6.582   6.407 -0.6529 -0.2300 -0.2097
   48MOL     S742401   1.674   6.865   6.676 -0.2378  0.4573 -0.4929
   48MOL     O842402   1.747   6.992   6.714 -0.4433 -0.1315 -0.0723
   48MOL     O942403   1.647   6.764   6.782  0.0946 -0.1933 -0.0614
   48MOL    C1042404   1.521   6.911   6.603  0.1934 -0.3001 -0.4139
   48MOL    C1142405   1.446   7.006   6.663 -0.1499 -0.0146 -0.1356
   48MOL    C1242406   1.316   7.033   6.618 -0.3691  0.0760 -0.5824
   48MOL    C1342407   1.252   6.970   6.514 -0.3367  0.4096  0.2992
   48MOL    C1442408   1.329   6.868   6.450 -0.3909  0.0013 -0.1972
   48MOL    C1542409   1.466   6.843   6.489 -0.0503  0.1017  0.0066
   48MOL    O1642410   1.120   6.981   6.496 -0.1104 -0.3007 -0.3856
   48MOL    C1742411   1.033   6.883   6.544  0.0855  0.3758 -0.1459
   48MOL    C1842412   0.978   6.903   6.666 -0.4987  1.2034 -0.3769
   48MOL    C1942413   0.884   6.807   6.709 -0.0513 -0.1423  0.5139
   48MOL    C2042414   0.853   6.691   6.633  0.5519 -0.3160  0.5495
   48MOL    C2142415   0.914   6.676   6.503 -0.2123  0.3142 -0.3684
   48MOL    C2242416   1.005   6.778   6.461  0.0442  0.5248  0.7173
   48MOL    C2342417   0.766   6.585   6.686  0.2867  0.4601 -0.2476
   48MOL    C2442418   0.795   6.447   6.663 -0.1339 -0.4382 -0.2493
   48MOL    C2542419   0.718   6.347   6.714  0.1991  0.4015 -0.2363
   48MOL    C2642420   0.610   6.373   6.804 -0.0488  1.0384  0.3974
   48MOL    C2742421   0.576   6.506   6.829  0.9940  0.1465 -0.5927
   48MOL    C2842422   0.650   6.612   6.769  0.1434 -0.0053  0.3911
   48MOL    O2942423   0.550   6.263   6.858 -0.5675 -0.4917 -0.2796
   48MOL    H3042424   1.988   6.848   6.311 -0.2267  0.8857  0.1151
   48MOL    H3142425   1.899   6.949   6.496  3.2409 -0.6323 -0.6107
   48MOL    H3242426   1.667   6.592   6.587 -0.7697  0.6839 -0.0073
   48MOL    H3342427   1.773   6.477   6.385  0.8822 -0.4849 -0.3669
   48MOL    H3442428   1.486   7.054   6.751 -2.0829  0.0062  0.7545
   48MOL    H3542429   1.261   7.107   6.675  0.0699 -0.1888  0.1797
   48MOL    H3642430   1.285   6.810   6.370  2.2380 -1.8477 -0.3863
   48MOL    H3742431   1.535   6.779   6.436 -0.3626 -0.2424  0.0189
   48MOL    H3842432   0.995   7.000   6.711 -0.8109  0.4028  1.5012
   48MOL    H3942433   0.847   6.821   6.809 -0.0909 -1.1020  0.6424
   48MOL    H4042434   0.887   6.591   6.443 -1.5055 -1.2748  2.3724
   48MOL    H4142435   1.049   6.777   6.363 -3.2194 -1.8412 -0.7981
   48MOL    H4242436   0.869   6.417   6.590  0.6677  0.3668  0.2315
   48MOL    H4342437   0.734   6.243   6.691 -0.5880 -0.1801  1.7142
   48MOL    H4442438   0.498   6.540   6.895 -0.7187 -1.2814 -1.8271
   48MOL    H4542439   0.619   6.714   6.786  1.4394  1.2373 -3.8838
   48MOL    H4642440   1.960   6.603   6.268 -0.6606 -2.0082  0.4832
   48MOL    C4742441   0.430   6.279   6.917  0.1052 -0.4054  0.2479
   48MOL    C4842442   0.310   6.274   6.840 -0.7076 -0.3298  0.2544
   48MOL    C4942443   0.181   6.277   6.902 -0.6333 -0.6497  0.3179
   48MOL    C5042444   0.173   6.263   7.039 -0.3123 -0.9812  0.6293
   48MOL    C5142445   0.291   6.271   7.115  0.1802  0.3367  0.5947
   48MOL    C5242446   0.421   6.282   7.054 -0.4233 -0.1225  0.2545
   48MOL    S5342447   0.011   6.220   7.115 -0.4884 -0.1197 -0.4160
   48MOL    O5442448   0.003   6.076   7.150 -0.0549 -0.1577 -0.1317
   48MOL    O5542449   8.268   6.282   7.037 -0.5934 -0.3086 -0.0227
   48MOL    C5642450   0.019   6.299   7.269 -0.2931 -0.5329  0.9934
   48MOL    C5742451   0.021   6.443   7.282 -0.2418  0.5616 -0.4655
   48MOL    C5842452   0.038   6.506   7.408  0.0965 -0.0340 -0.1179
   48MOL    C5942453   0.057   6.431   7.526 -0.3801 -0.8793 -0.1308
   48MOL    C6042454   0.055   6.289   7.517  0.3608  0.0261  0.2541
   48MOL    C6142455   0.031   6.227   7.390 -0.1078 -0.4245 -0.7465
   48MOL    O6242456   0.086   6.505   7.639  0.1159  0.6030  0.0132
   48MOL    C6342457   0.209   6.478   7.696  0.3153  0.7018 -0.7899
   48MOL    C6442458   0.219   6.426   7.822  0.3685 -0.0689  0.4335
   48MOL    C6542459   0.345   6.390   7.874  0.3129 -0.2432  0.2670
   48MOL    C6642460   0.467   6.422   7.808  0.3513 -0.0476 -0.6835
   48MOL    C6742461   0.466   6.478   7.678 -0.4814 -0.1458 -0.1118
   48MOL    C6842462   0.333   6.508   7.624  0.3063 -0.3493 -0.0751
   48MOL    C6942463   0.599   6.398   7.883  0.1900  0.3639  0.1031
   48MOL    C7042464   0.603   6.420   8.021  0.2679  0.4253  0.1317
   48MOL    C7142465   0.725   6.413   8.087 -0.2448  0.0026 -0.8734
   48MOL    C7242466   0.843   6.373   8.026  0.1602 -0.3902 -0.5445
   48MOL    C7342467   0.844   6.361   7.889  0.1600 -0.0875 -0.0291
   48MOL    C7442468   0.721   6.376   7.815 -0.5680 -0.0637  0.0585
   48MOL    O7542469   0.967   6.349   8.085 -0.2606  0.3075  0.7578
   48MOL    H7642470   0.310   6.289   6.733  0.6840  0.4142  0.3444
   48MOL    H7742471   0.096   6.265   6.836 -0.2989  1.7854 -0.6036
   48MOL    H7842472   0.284   6.274   7.223 -0.0858  0.5019  0.5716
   48MOL    H7942473   0.512   6.264   7.110  1.8809  4.6373 -1.6606
   48MOL    H8042474   0.028   6.501   7.192  2.9279 -0.3817 -0.8865
   48MOL    H8142475   0.042   6.614   7.409 -4.5916  0.2348  0.8112
   48MOL    H8242476   0.074   6.237   7.610  2.2137  1.3125  0.6154
   48MOL    H8342477   0.022   6.119   7.386  2.0539 -0.6174 -0.9286
   48MOL    H8442478   0.129   6.386   7.868 -0.4213  1.5371  0.3058
   48MOL    H8542479   0.343   6.346   7.973  1.3372  1.8260  1.2473
   48MOL    H8642480   0.556   6.502   7.624 -0.4431  4.4237  1.7108
   48MOL    H8742481   0.325   6.551   7.525 -2.0155 -1.3969 -0.3724
   48MOL    H8842482   0.518   6.450   8.081 -0.0068  0.5793 -0.3351
   48MOL    H8942483   0.731   6.429   8.194  2.4441 -2.7154 -0.5586
   48MOL    H9042484   0.936   6.331   7.842 -0.0637 -1.0371  0.1336
   48MOL    H9142485   0.720   6.359   7.709  1.2036  1.3203 -0.2047
   48MOL    C9242486   0.985   6.378   8.218  0.2589  0.2113  0.1295
   48MOL    C9342487   0.964   6.287   8.317  0.9584 -0.0583 -0.1037
   48MOL    C9442488   0.979   6.320   0.081  0.1919  0.1371 -1.0104
   48MOL    C9542489   1.012   6.454   0.108 -0.3008  0.2827 -0.7708
   48MOL    C9642490   1.034   6.552   0.011  0.4476 -0.1560  0.7915
   48MOL    C9742491   1.021   6.512   8.245  0.5002 -0.2461  0.0658
   48MOL    S9842492   1.038   6.498   0.278  0.0633 -0.1678 -0.4786
   48MOL    O9942493   1.137   6.602   0.272 -1.0780 -0.8559 -0.4243
   48MOL   O10042494   1.066   6.378   0.356  0.8587 -0.3932 -0.0149
   48MOL   C10142495   0.885   6.569   0.330 -0.3775 -0.2516  0.1205
   48MOL   C10242496   0.838   6.683   0.267  0.1531  0.2987  0.1395
   48MOL   C10342497   0.719   6.751   0.312  0.7700 -0.2383 -0.8873
   48MOL   C10442498   0.650   6.701   0.423  0.2932  0.6976  0.7303
   48MOL   C10542499   0.695   6.580   0.482  0.7056 -0.0458 -0.3067
   48MOL   C10642500   0.815   6.518   0.438 -0.5547  0.3570 -0.2320
   48MOL   O10742501   0.565   6.782   0.489  0.1185 -0.0611  0.1586
   48MOL   C10842502   0.617   6.894   0.549 -0.1368  0.2593 -0.7379
   48MOL   C10942503   0.563   7.024   0.529  0.5201  0.1764  0.4217
   48MOL   C11042504   0.633   7.141   0.573 -0.5695  0.0949 -0.0817
   48MOL   C11142505   0.758   7.132   0.630  0.3304  0.0993  0.3425
   48MOL   C11242506   0.806   7.001   0.664 -0.1245  0.6971  0.5864
   48MOL   C11342507   0.739   6.885   0.627 -0.7758 -0.8287 -0.3780
   48MOL   C11442508   0.848   7.244   0.661 -0.2604 -0.1530 -0.1168
   48MOL   C11542509   0.979   7.234   0.605  0.2890  0.4063  0.8279
   48MOL   C11642510   1.073   7.335   0.625  0.4522  0.5998  0.1597
   48MOL   C11742511   1.044   7.432   0.723  0.2175 -0.3438  0.0742
   48MOL   C11842512   0.918   7.434   0.788 -0.8898 -0.0596 -0.4120
   48MOL   C11942513   0.816   7.346   0.753 -0.1000  0.5125  0.0126
   48MOL   O12042514   1.149   7.521   0.745  0.3203  0.4086  0.3086
   48MOL   H12142515   0.936   6.189   8.281  2.7136 -0.6391  0.0213
   48MOL   H12242516   0.974   6.245   0.158  0.6056  0.9870 -0.1402
   48MOL   H12342517   1.058   6.654   0.036  1.3487  0.1065 -1.0833
   48MOL   H12442518   1.033   6.579   8.160 -2.8372 -0.4588 -0.6735
   48MOL   H12542519   0.898   6.709   0.181  0.7278 -3.1598 -0.5785
   48MOL   H12642520   0.692   6.844   0.265  0.1202 -0.8784 -1.8039
   48MOL   H12742521   0.639   6.546   0.568  0.1742 -0.0697 -0.6593
   48MOL   H12842522   0.855   6.435   0.492 -0.1258  0.8086  0.1476
   48MOL   H12942523   0.468   7.030   0.478 -0.4757 -1.3932  2.0367
   48MOL   H13042524   0.589   7.238   0.558 -1.8966  0.3573  4.6483
   48MOL   H13142525   0.904   6.993   0.709  0.1099 -0.5558 -0.1339
   48MOL   H13242526   0.775   6.786   0.648  2.3566  0.0210 -1.5790
   48MOL   H13342527   0.998   7.146   0.546  0.7489  0.2387  1.2220
   48MOL   H13442528   1.168   7.335   0.574 -0.9949 -1.9686 -2.7060
   48MOL   H13542529   0.895   7.509   0.862  0.0642 -0.4298  0.2731
   48MOL   H13642530   0.714   7.337   0.787  0.1064 -1.1298  0.2169
   48MOL   C13742531   1.135   7.658   0.715  0.1706 -0.5230 -0.0135
   48MOL   C13842532   1.183   7.721   0.594 -0.1355 -0.0059  0.3474
   48MOL   C13942533   1.171   7.866   0.575  0.5882  0.1476 -0.8895
   48MOL   C14042534   1.118   7.936   0.685  0.4790  0.1705  0.4205
   48MOL   C14142535   1.086   7.879   0.812 -0.0959  0.8313  0.2248
   48MOL   C14242536   1.090   7.739   0.822 -0.0833 -0.1800  1.0308
   48MOL   S14342537   1.096   8.115   0.681  0.1682 -0.2039  0.2769
   48MOL   O14442538   1.127   8.167   0.816  0.0277 -0.6100 -0.3072
   48MOL   O14542539   0.970   8.142   0.611  0.1091  0.2409  0.5223
   48MOL   C14642540   1.225   8.179   0.573  0.0784  0.4406 -0.4329
   48MOL   C14742541   1.188   8.251   0.454  0.0936  0.0220  0.4511
   48MOL   C14842542   1.282   8.292   0.359  0.1550 -0.2470  0.6199
   48MOL   C14942543   1.417   8.286   0.387  0.4696  0.0726  0.6214
   48MOL   C15042544   1.463   8.212   0.500  0.1672  0.1003  0.4906
   48MOL   C15142545   1.367   8.159   0.592 -0.2415 -0.2789  0.3462
   48MOL   O15242546   1.505   8.340   0.300  0.5139 -0.6152 -0.6333
   48MOL   C15342547   1.564   8.265   0.198  0.4703  0.0202  0.6565
   48MOL   C15442548   1.705   8.252   0.189 -0.8890  0.9892 -0.4453
   48MOL   C15542549   1.766   8.170   0.093  0.0847  0.1608  0.8423
   48MOL   C15642550   1.692   8.096   8.362  0.3720 -0.0441 -0.5975
   48MOL   C15742551   1.553   8.122   8.364 -0.1360 -0.3837 -0.2350
   48MOL   C15842552   1.491   8.197   0.100  0.5000 -0.0062  0.1544
   48MOL   C15942553   1.747   8.005   8.261 -0.1747  0.0159  0.3530
   48MOL   C16042554   1.676   7.981   8.136  0.3063  0.8565  0.6344
   48MOL   C16142555   1.729   7.898   8.038  0.1506  0.1818 -0.6645
   48MOL   C16242556   1.849   7.832   8.065 -0.1968 -0.7129  0.0740
   48MOL   C16342557   1.918   7.856   8.189  0.6104  0.1911 -0.5295
   48MOL   C16442558   1.866   7.939   8.290  0.1688  0.9670 -0.6286
   48MOL   O16542559   1.899   7.748   7.963  0.3796  0.6230  0.2057
   48MOL   H16642560   1.227   7.660   0.517 -0.2712  1.3143 -0.7899
   48MOL   H16742561   1.214   7.905   0.484  0.9234  0.9679 -0.3758
   48MOL   H16842562   1.063   7.948   0.892  0.6491  2.7917 -1.2103
   48MOL   H16942563   1.057   7.685   0.910 -2.7636 -0.5336 -0.1197
   48MOL   H17042564   1.086   8.269   0.423  0.5046 -0.0087 -0.9423
   48MOL   H17142565   1.247   8.351   0.275 -1.1024 -0.2289  1.1350
   48MOL   H17242566   1.568   8.190   0.505  0.4970  1.3051 -0.8625
   48MOL   H17342567   1.397   8.102   0.679  1.0447  1.6547  1.1927
   48MOL   H17442568   1.773   8.307   0.253 -1.0106  2.4089 -1.5023
   48MOL   H17542569   1.873   8.167   0.081 -0.1218 -1.2526 -0.9451
   48MOL   H17642570   1.496   8.064   8.293 -0.3146 -0.3142 -0.1483
   48MOL   H17742571   1.384   8.211   0.107  0.1800 -1.6516 -1.1968
   48MOL   H17842572   1.579   8.027   8.124 -0.7731 -1.3062  0.7075
   48MOL   H17942573   1.675   7.879   7.946  0.0398  0.2831 -0.6198
   48MOL   H18042574   2.015   7.815   8.210  0.0235 -0.0889  1.7626
   48MOL   H18142575   1.928   7.972   0.007 -0.1860  2.0088 -0.7768
   48MOL   C18242576   2.018   7.690   7.978 -0.3872  0.6069 -0.4889
   48MOL   C18342577   2.133   7.756   7.922 -0.2903 -0.2892 -0.3526
   48MOL   C18442578   2.260   7.697   7.940 -0.3384  0.1971 -0.2873
   48MOL   C18542579   2.282   7.572   8.005  0.2310  0.3183  0.0685
   48MOL   C18642580   2.165   7.500   8.047  0.2589  0.4760  1.0575
   48MOL   C18742581   2.042   7.560   8.039  0.2150 -0.3390  0.4477
   48MOL   S18842582   2.455   7.516   8.009 -0.5889 -0.4904  0.0497
   48MOL   O18942583   2.463   7.383   8.063  0.1985  0.3285  0.6744
   48MOL   O19042584   2.547   7.627   8.051 -0.4745  0.4402  0.0213
   48MOL   C19142585   2.485   7.488   7.836 -0.4802  0.3060  0.7558
   48MOL   C19242586   2.593   7.555   7.765  1.1015 -0.4652  0.3688
   48MOL   C19342587   2.612   7.535   7.629 -0.8309  0.4387  0.1939
   48MOL   C19442588   2.528   7.448   7.556 -0.0039 -0.0426  0.8936
   48MOL   C19542589   2.427   7.378   7.626 -0.5499  0.3670  0.3373
   48MOL   C19642590   2.407   7.398   7.758 -0.0107 -0.3353 -0.0331
   48MOL   O19742591   2.544   7.447   7.420 -0.4252 -0.1256  0.0474
   48MOL   C19842592   2.468   7.362   7.345 -0.5545 -0.7319  0.1873
   48MOL   C19942593   2.329   7.371   7.328 -0.2358 -0.2947 -0.1151
   48MOL   C20042594   2.260   7.281   7.247 -1.0068 -0.3852  0.5903
   48MOL   C20142595   2.329   7.185   7.169 -0.1172  0.5389 -0.5497
   48MOL   C20242596   2.471   7.179   7.184  0.5481  0.9927  0.5342
   48MOL   C20342597   2.533   7.261   7.274 -0.5023 -0.0863 -0.8440
   48MOL   C20442598   2.267   7.101   7.059 -0.1890  0.1662 -0.2399
   48MOL   C20542599   2.161   7.153   6.991  0.7096  0.0124  0.1717
   48MOL   C20642600   2.101   7.079   6.889 -0.0788  0.6099 -0.2819
   48MOL   C20742601   2.145   6.946   6.867 -0.3876  0.1685  0.8033
   48MOL   C20842602   2.236   6.892   6.955 -0.3380  0.3469  0.7156
   48MOL   C20942603   2.306   6.967   7.043  0.0028 -0.4879 -0.1972
   48MOL   O21042604   2.093   6.881   6.757  0.0575 -0.7987  0.0101
   48MOL   H21142605   2.114   7.849   7.871 -2.7840  0.6488  2.1461
   48MOL   H21242606   2.340   7.753   7.892 -0.3372 -1.4874 -2.3407
   48MOL   H21342607   2.186   7.399   8.081 -3.4932  0.0550  2.4035
   48MOL   H21442608   1.957   7.510   8.082 -1.1698  1.3537 -0.2485
   48MOL   H21542609   2.649   7.627   7.823 -0.4016 -1.3214  2.9534
   48MOL   H21642610   2.683   7.601   7.583 -1.3833  0.4666 -0.6421
   48MOL   H21742611   2.363   7.301   7.585 -1.9779  0.4509  2.3434
   48MOL   H21842612   2.335   7.338   7.812 -1.2065 -1.5632 -2.9390
   48MOL   H21942613   2.261   7.439   7.377  0.0598 -0.2401  0.2226
   48MOL   H22042614   2.152   7.283   7.248 -0.9868  1.8258  0.6025
   48MOL   H22142615   2.539   7.110   7.137 -1.8546 -0.3387 -1.1222
   48MOL   H22242616   2.640   7.258   7.286 -0.6770 -2.0983  0.3231
   48MOL   H22342617   2.132   7.256   7.010  4.1186  0.8545  1.0783
   48MOL   H22442618   2.026   7.114   6.820 -1.5586 -2.8142 -0.5320
   48MOL   H22542619   2.263   6.788   6.939 -1.1325  0.3746 -0.9386
   48MOL   H22642620   2.380   6.922   7.108 -1.2485  0.6020  2.0350
   48MOL   C22742621   2.056   6.749   6.759 -0.4202 -0.3085 -0.4731
   48MOL   C22842622   1.954   6.715   6.849  0.0709  0.5713 -0.5740
   48MOL   C22942623   1.912   6.580   6.846 -0.1823 -0.6260 -0.3128
   48MOL   C23042624   1.973   6.486   6.758 -0.7724 -0.6633 -0.3242
   48MOL   C23142625   2.078   6.520   6.672 -0.0020 -0.5156  0.2066
   48MOL   C23242626   2.129   6.655   6.682 -0.2444  0.3871 -0.4648
   48MOL   S23342627   1.916   6.324   6.775 -0.0990  0.1437  0.1605
   48MOL   O23442628   1.767   6.329   6.770 -0.4524  0.4655  0.3143
   48MOL   O23542629   1.982   6.262   6.889 -0.1256 -0.0673 -0.6306
   48MOL   C23642630   1.965   6.235   6.629 -0.0636 -0.7440  0.1851
   48MOL   C23742631   2.080   6.159   6.644 -0.0994 -0.3709 -0.2795
   48MOL   C23842632   2.120   6.082   6.530 -0.4392 -0.2217 -0.4376
   48MOL   C23942633   2.050   6.089   6.406  0.2005 -0.3320  0.1580
   48MOL   C24042634   1.941   6.175   6.397  0.5554 -0.2823  0.4519
   48MOL   C24142635   1.891   6.245   6.509  0.7711  0.1068  0.2722
   48MOL   O24242636   2.083   6.012   6.301  0.3075 -0.3498  0.5301
   48MOL   C24342637   2.043   5.883   6.310  0.5219  0.2124  0.7513
   48MOL   C24442638   1.920   5.833   6.265 -0.1689  0.0605  0.3659
   48MOL   C24542639   1.884   5.703   6.294 -0.0375 -0.3168 -0.0667
   48MOL   C24642640   1.969   5.615   6.361 -0.7811  0.5249  0.4459
   48MOL   C24742641   2.097   5.658   6.393  0.0365 -0.1644 -0.1283
   48MOL   C24842642   2.136   5.793   6.368 -0.1043 -0.2820  0.2500
   48MOL   C24942643   1.918   5.492   6.423  0.2262  0.2081 -0.2606
   48MOL   C25042644   1.802   5.499   6.501 -0.1903  0.5391  1.3132
   48MOL   C25142645   1.764   5.391   6.579  0.2226  0.0719  0.1810
   48MOL   C25242646   1.839   5.273   6.577 -0.2136 -0.1413 -0.2832
   48MOL   C25342647   1.948   5.259   6.488 -0.1285  0.0522 -0.0154
   48MOL   C25442648   1.983   5.371   6.418  0.0602 -0.3168 -0.6048
   48MOL   O25542649   1.812   5.180   6.672  0.3408 -0.4560  0.0768
   48MOL   H25642650   1.887   6.784   6.898  1.2130  0.8971  0.5445
   48MOL   H25742651   1.823   6.556   6.903 -0.8253 -0.0145 -1.0321
   48MOL   H25842652   2.125   6.445   6.611 -0.0434 -0.8186  0.5444
   48MOL   H25942653   2.211   6.674   6.615  0.5198  1.3313  0.7128
   48MOL   H26042654   2.130   6.159   6.739 -0.9445 -1.7143  0.1732
   48MOL   H26142655   2.201   6.013   6.543 -1.2189 -0.9084  0.9422
   48MOL   H26242656   1.883   6.204   6.311  4.0955 -1.9279 -2.6366
   48MOL   H26342657   1.799   6.300   6.492  1.3310  0.6079 -1.1957
   48MOL   H26442658   1.855   5.899   6.208  0.7136  0.5701 -0.0535
   48MOL   H26542659   1.790   5.673   6.250 -0.9874  0.5934  1.3028
   48MOL   H26642660   2.163   5.585   6.439 -0.6234 -1.1889 -0.8176
   48MOL   H26742661   2.233   5.826   6.401 -0.4145 -0.5152  1.4085
   48MOL   H26842662   1.730   5.577   6.480 -0.6072 -0.2139 -0.1798
   48MOL   H26942663   1.676   5.390   6.642 -0.4934 -0.9145 -0.8263
   48MOL   H27042664   2.007   5.169   6.480  2.4371  1.6375  0.4640
   48MOL   H27142665   2.074   5.362   6.360 -1.0368 -0.0579 -2.4355
   48MOL   C27242666   1.813   5.044   6.645 -0.1146 -0.2939  0.0823
   48MOL   C27342667   1.937   4.973   6.630  0.0525 -0.1223  0.1290
   48MOL   C27442668   1.936   4.837   6.600  0.2353  0.3634  0.2928
   48MOL   C27542669   1.816   4.771   6.578  0.6006  1.0099 -0.5845
   48MOL   C27642670   1.693   4.836   6.601 -0.2249 -0.0614 -0.5948
   48MOL   C27742671   1.689   4.968   6.651 -0.1298  0.2347 -0.2686
   48MOL   S27842672   1.823   4.607   6.508  0.2129 -0.0692 -0.4865
   48MOL   O27942673   1.686   4.557   6.483  0.8233  0.1241  0.0646
   48MOL   O28042674   1.921   4.526   6.582 -0.0722 -0.0655  0.3158
   48MOL   C28142675   1.903   4.640   6.350 -0.7674 -0.6450 -0.1074
   48MOL   C28242676   2.043   4.653   6.330  0.2627  0.5435  0.6005
   48MOL   C28342677   2.085   4.720   6.218 -0.8093  0.0672  0.2507
   48MOL   C28442678   1.999   4.760   6.114  0.2648  0.3867 -0.8826
   48MOL   C28542679   1.859   4.742   6.125 -0.3833 -0.0384  0.5847
   48MOL   C28642680   1.814   4.682   6.245  0.4090  0.1716 -0.4335
   48MOL   O28742681   2.050   4.824   6.003 -0.1748 -0.1067 -0.0783
   48MOL   C28842682   2.114   4.945   6.028  0.3281  0.5328 -0.0162
   48MOL   C28942683   2.256   4.956   6.017 -0.0571 -0.0494 -0.5451
   48MOL   C29042684   2.321   5.086   6.050  0.4745  0.4333 -0.1680
   48MOL   C29142685   2.234   5.201   6.071  0.8640  0.9415 -0.3488
   48MOL   C29242686   2.096   5.183   6.081 -0.0705  1.2585  0.6174
   48MOL   C29342687   2.036   5.058   6.057  0.7425 -0.4149 -0.0360
   48MOL   C29442688   2.291   5.341   6.096 -0.1921 -0.3563 -0.2089
   48MOL   C29542689   2.415   5.354   6.161  0.1008 -0.0364 -0.4117
   48MOL   C29642690   2.469   5.478   6.175 -0.4854 -0.2761  0.5908
   48MOL   C29742691   2.400   5.597   6.149  0.0978 -0.5709 -0.7732
   48MOL   C29842692   2.270   5.583   6.096  0.3128  0.4520 -0.1099
   48MOL   C29942693   2.215   5.457   6.070 -0.7302 -0.1291 -0.0898
   48MOL   O30042694   2.461   5.715   6.184 -0.1662  0.0540 -0.1505
   48MOL   H30142695   2.032   5.021   6.643  0.1484 -1.0191  3.0386
   48MOL   H30242696   2.027   4.789   6.567 -0.4309  0.6476 -2.0139
   48MOL   H30342697   1.602   4.782   6.581 -0.2243 -0.5953  0.8189
   48MOL   H30442698   1.598   5.024   6.669 -0.5846 -0.4926 -0.2406
   48MOL   H30542699   2.111   4.622   6.408  1.8452  0.2968 -0.8385
   48MOL   H30642700   2.191   4.735   6.212 -0.6376 -1.4479 -0.4654
   48MOL   H30742701   1.789   4.786   6.056 -1.1214  1.9270  2.5329
   48MOL   H30842702   1.706   4.685   6.253  0.4599  0.1021  0.3014
   48MOL   H30942703   2.320   4.877   5.980 -0.1772  0.3942 -1.7026
   48MOL   H31042704   2.425   5.113   6.045  0.9468 -1.0900  0.9363
   48MOL   H31142705   2.029   5.266   6.101 -1.2982  1.0619 -2.4202
   48MOL   H31242706   1.929   5.051   6.063  0.8486 -3.8561 -0.7784
   48MOL   H31342707   2.480   5.270   6.176 -1.0848 -0.8400  0.3460
   48MOL   H31442708   2.573   5.477   6.204 -1.3691  1.5957  4.0155
   48MOL   H31542709   2.212   5.673   6.082 -0.5934 -0.0724  0.2165
   48MOL   H31642710   2.114   5.441   6.035 -0.6538  0.9320 -0.8263
   48MOL   C31742711   2.484   5.795   6.073 -0.3212  0.2586 -0.2337
   48MOL   C31842712   2.608   5.779   6.001  0.7545  0.5320  0.1526
   48MOL   C31942713   2.636   5.870   5.895  0.7312  0.1861 -0.2352
   48MOL   C32042714   2.541   5.967   5.854  0.2360 -0.0943 -0.1523
   48MOL   C32142715   2.417   5.987   5.926  0.4956 -0.9550 -0.3172
   48MOL   C32242716   2.389   5.902   6.035 -0.6189  0.3268 -0.0258
   48MOL   S32342717   2.562   6.068   5.710  0.1400  0.2260 -0.3672
   48MOL   O32442718   2.468   6.178   5.726  0.5656 -0.1968  0.1009
   48MOL   O32542719   2.552   5.971   5.600 -0.4938 -0.2430  0.1815
   48MOL   C32642720   2.731   6.129   5.696 -0.3602  0.4207 -0.0061
   48MOL   C32742721   2.769   6.182   5.571 -0.6157  0.0342  0.0803
   48MOL   C32842722   2.883   6.268   5.570  0.0334  0.1376 -0.4883
   48MOL   C32942723   2.966   6.283   5.683 -0.7853  0.1957  0.2764
   48MOL   C33042724   2.919   6.227   5.808 -0.5063  0.1405  0.6005
   48MOL   C33142725   2.799   6.154   5.815 -0.0319 -0.5693  0.0991
   48MOL   O33242726   3.078   6.360   5.673 -0.3312  0.2187  0.2703
   48MOL   C33342727   3.103   6.460   5.765  0.1721  0.4900  1.2585
   48MOL   C33442728   3.048   6.591   5.747 -0.1078 -0.5038 -0.3344
   48MOL   C33542729   3.096   6.693   5.834 -0.0882  0.1743  0.6004
   48MOL   C33642730   3.184   6.664   5.941  0.7018 -0.3110 -0.6105
   48MOL   C33742731   3.236   6.535   5.952 -0.5635 -0.0176  0.1307
   48MOL   C33842732   3.194   6.436   5.866  0.2743  0.5514 -0.8850
   48MOL   C33942733   3.226   6.761   6.049 -1.1397 -0.2463  1.5136
   48MOL   C34042734   3.234   6.725   6.187  0.3185 -0.5019 -0.2251
   48MOL   C34142735   3.282   6.809   6.286 -0.1823 -0.2409 -0.0678
   48MOL   C34242736   3.311   6.944   6.258 -0.2025 -0.4116 -1.0646
   48MOL   C34342737   3.310   6.977   6.123 -0.2964 -0.2099 -0.5000
   48MOL   C34442738   3.264   6.892   6.021  0.8869 -0.7119 -0.0533
   48MOL   O34542739   3.340   7.028   6.360  0.2949  0.0041 -0.4375
   48MOL   H34642740   2.677   5.699   6.025  0.4443  0.4452  0.7752
   48MOL   H34742741   2.726   5.865   5.836  0.2201  0.1286 -1.0166
   48MOL   H34842742   2.352   6.070   5.905  0.7030 -1.0940 -1.5616
   48MOL   H34942743   2.303   5.919   6.097 -0.6943 -1.8421  0.4959
   48MOL   H35042744   2.704   6.169   5.486  2.5879 -4.3333 -1.8683
   48MOL   H35142745   2.909   6.319   5.478 -0.5072 -0.3395 -0.9127
   48MOL   H35242746   2.970   6.243   5.902  2.4104  1.4078 -1.1110
   48MOL   H35342747   2.766   6.126   5.913  0.2281  0.9633  0.6411
   48MOL   H35442748   2.989   6.608   5.659 -3.9067 -0.9751  2.0166
   48MOL   H35542749   3.054   6.791   5.820  0.5293  0.6871  2.2556
   48MOL   H35642750   3.310   6.511   6.028  1.2604  0.2092 -1.5244
   48MOL   H35742751   3.237   6.337   5.867 -1.2026 -0.1230 -2.0267
   48MOL   H35842752   3.203   6.626   6.218  0.4670 -0.8686 -1.2464
   48MOL   H35942753   3.272   6.770   6.386  0.0140 -2.0189 -0.7184
   48MOL   H36042754   3.342   7.073   6.086  1.7985 -1.0715 -0.9626
   48MOL   H36142755   3.245   6.933   5.922  0.7119 -0.5806  0.0355
   48MOL   C36242756   3.308   7.160   6.343  0.8755 -0.1717  0.3183
   48MOL   C36342757   3.415   7.244   6.317 -0.3444 -0.1904 -0.3099
   48MOL   C36442758   3.391   7.381   6.287  0.3749 -0.2367 -0.1785
   48MOL   C36542759   3.257   7.424   6.274  0.4853  0.4948  0.4723
   48MOL   C36642760   3.145   7.330   6.290 -0.0934 -0.1307  0.3995
   48MOL   C36742761   3.171   7.198   6.323  0.2621 -0.7983 -0.6882
   48MOL   S36842762   3.234   7.605   6.229 -0.3830 -0.0420  0.2894
   48MOL   O36942763   3.285   7.634   6.092  0.1007  0.2697 -0.0196
   48MOL   O37042764   3.294   7.683   6.340  0.6127 -0.3447  0.2448
   48MOL   C37142765   3.062   7.650   6.223  0.0161 -1.1398 -0.3308
   48MOL   C37242766   3.014   7.745   6.317 -0.0502  0.0418 -0.0234
   48MOL   C37342767   2.877   7.770   6.303  0.1929 -0.1001  0.6085
   48MOL   C37442768   2.791   7.705   6.211 -0.3092 -0.5407  0.6403
   48MOL   C37542769   2.847   7.617   6.114  0.3802  0.6373 -0.7718
   48MOL   C37642770   2.984   7.588   6.125 -0.5424 -0.1863  0.2029
   48MOL   O37742771   2.660   7.743   6.218 -0.0955  0.4299 -0.3883
   48MOL   C37842772   2.560   7.656   6.248  0.1078 -0.1327  0.5018
   48MOL   C37942773   2.426   7.707   6.246 -1.0078  0.5511 -0.4908
   48MOL   C38042774   2.323   7.622   6.285  0.9971 -0.9911 -0.1444
   48MOL   C38142775   2.343   7.495   6.330  0.0261  0.3874  0.1928
   48MOL   C38242776   2.476   7.444   6.336 -0.0443  0.4459  0.0315
   48MOL   C38342777   2.582   7.528   6.301 -0.1913 -0.6464  0.0161
   48MOL   C38442778   2.219   7.417   6.373  0.4804 -0.6871 -0.1875
   48MOL   C38542779   2.095   7.444   6.321  0.0171  0.2662 -0.3303
   48MOL   C38642780   1.978   7.365   6.342 -0.7394 -1.0083  0.3427
   48MOL   C38742781   1.982   7.263   6.443  0.5981 -0.9373  0.3307
   48MOL   C38842782   2.100   7.244   6.515 -0.0323  0.2697  0.0809
   48MOL   C38942783   2.222   7.313   6.474 -0.2462  0.2798 -0.0949
   48MOL   O39042784   1.865   7.195   6.472  0.4334 -0.8192 -0.2644
   48MOL   H39142785   3.517   7.210   6.329 -0.6483 -0.5982  1.3487
   48MOL   H39242786   3.472   7.450   6.269  0.2601 -0.0815 -0.1042
   48MOL   H39342787   3.043   7.366   6.280 -0.3217 -0.9756 -0.2967
   48MOL   H39442788   3.090   7.129   6.337 -0.7841  0.8932  1.9471
   48MOL   H39542789   3.070   7.800   6.391  0.2533  0.2081 -0.3750
   48MOL   H39642790   2.823   7.839   6.367 -2.5257  0.0188 -1.7114
   48MOL   H39742791   2.785   7.564   6.044  0.6962  0.3506 -0.8325
   48MOL   H39842792   3.036   7.522   6.058  0.2239  1.3549 -0.7653
   48MOL   H39942793   2.412   7.807   6.209  0.1365  0.9625  0.1778
   48MOL   H40042794   2.225   7.666   6.298  1.0964 -0.5420 -0.8766
   48MOL   H40142795   2.498   7.341   6.357  0.0224  0.3335 -0.5840
   48MOL   H40242796   2.683   7.490   6.313 -0.4736 -1.8155 -1.0982
   48MOL   H40342797   2.093   7.523   6.247  1.4686  2.4303  1.8587
   48MOL   H40442798   1.891   7.395   6.286 -0.9509 -0.6627  0.8568
   48MOL   H40542799   2.102   7.172   6.595 -2.0963 -1.4073 -1.3329
   48MOL   H40642800   2.318   7.293   6.519 -0.0609 -1.3326 -1.1917
   48MOL   C40742801   1.786   7.143   6.372  0.0972 -0.6935 -0.0630
   48MOL   C40842802   1.847   7.085   6.256 -0.4643 -0.1274 -0.7050
   48MOL   C40942803   1.765   7.018   6.165  0.3202 -0.7933  0.6232
   48MOL   C41042804   1.627   7.016   6.179 -0.1156  0.0022  0.3343
   48MOL   C41142805   1.561   7.084   6.282 -0.9300 -0.5372 -0.4553
   48MOL   C41242806   1.644   7.154   6.380 -0.0650 -0.0110  0.1452
   48MOL   S41342807   1.533   6.928   6.053 -0.2452  0.1456  0.2410
   48MOL   O41442808   1.498   7.033   5.953  0.5675 -0.7217  0.1055
   48MOL   O41542809   1.425   6.862   6.123  0.4430  0.8664 -0.2461
   48MOL   C41642810   1.625   6.795   5.974  0.2028  0.5447  0.3490
   48MOL   C41742811   1.692   6.708   6.060 -0.2759  0.8123  0.2003
   48MOL   C41842812   1.750   6.594   6.006 -0.7754 -0.2945 -0.5106
   48MOL   C41942813   1.750   6.566   5.863 -0.5068 -0.1798  0.3406
   48MOL   C42042814   1.677   6.658   5.785 -0.5083  0.0430  0.8029
   48MOL   C42142815   1.619   6.777   5.838 -0.0843 -0.0271  0.1861
   48MOL   O42242816   1.806   6.454   5.811 -0.2724  0.0360  0.1507
   48MOL   C42342817   1.919   6.402   5.871  0.2899  0.1209  0.4037
   48MOL   C42442818   2.046   6.448   5.816  1.0637 -0.5476 -0.2843
   48MOL   C42542819   2.171   6.405   5.875  1.0319  0.2575 -1.0127
   48MOL   C42642820   2.167   6.333   6.000  0.3011 -0.1823 -0.4375
   48MOL   C42742821   2.039   6.285   6.048 -0.4926  0.6834  0.2556
   48MOL   C42842822   1.918   6.319   5.984  0.4677  0.3578  0.7905
   48MOL   C42942823   2.291   6.313   6.077 -0.2760 -0.7291 -0.1989
   48MOL   C43042824   2.286   6.322   6.221 -0.0164  0.5107  0.2577
   48MOL   C43142825   2.400   6.327   6.297 -0.3093 -0.3010  0.9571
   48MOL   C43242826   2.519   6.324   6.230 -0.1223  0.3619 -0.5475
   48MOL   C43342827   2.530   6.325   6.092  0.6668  0.3955 -0.6302
   48MOL   C43442828   2.415   6.315   6.011 -0.0320 -0.4215  0.3770
   48MOL   O43542829   2.632   6.323   6.308  0.8492  1.0331  0.1945
   48MOL   H43642830   1.954   7.079   6.241 -0.0918 -0.0196  1.6761
   48MOL   H43742831   1.799   6.972   6.073  0.8168 -2.2721  1.5286
   48MOL   H43842832   1.453   7.079   6.290 -0.9875  0.4435 -0.5643
   48MOL   H43942833   1.600   7.206   6.464  0.1062  2.2072 -1.0890
   48MOL   H44042834   1.666   6.719   6.164 -0.8091  1.6016 -0.0142
   48MOL   H44142835   1.800   6.531   6.078 -0.9321  1.5449  1.2501
   48MOL   H44242836   1.671   6.632   5.681 -2.9100 -2.8047  1.5941
   48MOL   H44342837   1.572   6.848   5.771  1.3443  1.2751  0.5226
   48MOL   H44442838   2.045   6.507   5.726 -0.3981 -1.8485 -1.1572
   48MOL   H44542839   2.265   6.439   5.834  2.4225 -1.5764  0.5757
   48MOL   H44642840   2.039   6.221   6.136  0.8334 -0.4497 -0.5387
   48MOL   H44742841   1.820   6.281   6.009 -0.6527  1.8775 -1.2074
   48MOL   H44842842   2.187   6.322   6.266 -1.1302  1.6040 -2.1277
   48MOL   H44942843   2.396   6.327   6.405  0.7503  0.8069  0.9969
   48MOL   H45042844   2.628   6.329   6.046  0.6857  2.2935 -0.4650
   48MOL   H45142845   2.430   6.310   5.905 -0.4323  1.2601  0.2333
   48MOL   C45242846   2.675   6.448   6.350 -0.3222  0.2485  0.1836
   48MOL   C45342847   2.815   6.481   6.318  0.1202 -0.3331 -0.1087
   48MOL   C45442848   2.859   6.614   6.337  0.6910  0.6306 -0.0896
   48MOL   C45542849   2.775   6.710   6.391  0.3821  0.0947  0.0988
   48MOL   C45642850   2.647   6.671   6.431  0.6738  0.1622  0.0447
   48MOL   C45742851   2.594   6.544   6.404  0.1620  0.3736 -1.2082
   48MOL   S45842852   2.835   6.876   6.422  0.4264 -0.0860  0.0093
   48MOL   O45942853   2.982   6.867   6.456 -0.1054  0.4717  0.2454
   48MOL   O46042854   2.745   6.943   6.522  0.0808 -0.4132  0.7722
   48MOL   C46142855   2.820   6.972   6.268  0.2405 -0.0201  0.5398
   48MOL   C46242856   2.907   6.926   6.167 -0.3057 -0.4954  0.1091
   48MOL   C46342857   2.935   7.007   6.050  0.2288 -0.3699  0.0822
   48MOL   C46442858   2.874   7.139   6.040 -0.0600  0.3324 -0.2611
   48MOL   C46542859   2.792   7.186   6.146 -0.7759 -0.1164  0.1598
   48MOL   C46642860   2.769   7.102   6.259 -0.3483 -0.2213 -0.0234
   48MOL   O46742861   2.901   7.218   5.941 -0.1872  0.3489  0.4034
   48MOL   C46842862   2.920   7.164   5.816  0.2433 -0.0546 -0.1837
   48MOL   C46942863   2.811   7.142   5.725  0.7090 -0.3773 -0.5328
   48MOL   C47042864   2.834   7.083   5.599 -0.0028 -0.2313  0.3360
   48MOL   C47142865   2.968   7.045   5.555  0.7840  0.1075 -0.1502
   48MOL   C47242866   3.078   7.070   5.638  0.7257 -0.4862  0.4817
   48MOL   C47342867   3.055   7.132   5.765  1.0021  0.2229 -0.1505
   48MOL   C47442868   2.972   6.980   5.423 -0.6159 -0.5245 -0.2527
   48MOL   C47542869   2.883   7.027   5.314  0.1738  0.0606 -0.6156
   48MOL   C47642870   2.882   6.959   5.189  0.0285 -0.1291 -0.7928
   48MOL   C47742871   2.975   6.854   5.162 -0.1216 -0.0623 -0.3506
   48MOL   C47842872   3.077   6.823   5.261  0.1464 -0.0733 -0.3058
   48MOL   C47942873   3.070   6.886   5.387 -0.2032 -0.1821  0.8768
   48MOL   O48042874   2.987   6.795   5.037  0.2023  0.7189  0.0882
   48MOL   H48142875   2.870   6.409   6.259  1.5529  1.9510 -1.6134
   48MOL   H48242876   2.966   6.630   6.335  0.7538  0.1819 -1.7333
   48MOL   H48342877   2.584   6.744   6.481  1.0677  1.4415 -1.2965
   48MOL   H48442878   2.489   6.526   6.422  0.4151 -0.3492 -0.3886
   48MOL   H48542879   2.957   6.830   6.174  1.0029  0.2572  1.4919
   48MOL   H48642880   2.993   6.969   5.967 -1.5776  1.5209 -2.0993
   48MOL   H48742881   2.744   7.283   6.149  2.8642  1.7732 -0.1233
   48MOL   H48842882   2.719   7.137   6.349  1.8627 -1.6313  1.8165
   48MOL   H48942883   2.710   7.163   5.757  0.4203 -3.0126  0.4504
   48MOL   H49042884   2.748   7.045   5.547  0.3432  0.4792 -0.7690
   48MOL   H49142885   3.180   7.045   5.613  0.7378 -1.4556  1.4857
   48MOL   H49242886   3.142   7.157   5.823  0.9349  1.5776 -0.6228
   48MOL   H49342887   2.807   7.102   5.334  0.1746  0.2307 -1.2496
   48MOL   H49442888   2.810   6.989   5.114 -1.7061 -1.0759  0.4525
   48MOL   H49542889   3.158   6.759   5.228 -0.0447 -1.9433  2.6517
   48MOL   H49642890   3.151   6.864   5.455  1.0283  1.6511  0.0534
   48MOL   C49742891   2.875   6.753   4.972 -0.2380  0.2986 -0.3110
   48MOL   C49842892   2.828   6.618   4.977 -1.0740  0.0627  0.1683
   48MOL   C49942893   2.711   6.583   4.904 -0.0161  1.1987  0.2041
   48MOL   C50042894   2.639   6.685   4.836 -0.4715  0.0625 -0.3176
   48MOL   C50142895   2.685   6.819   4.831 -0.6409  0.5481  0.0611
   48MOL   C50242896   2.810   6.849   4.896  0.0178  0.3171  0.3970
   48MOL   S50342897   2.474   6.660   4.767 -0.0122 -0.3444  0.1248
   48MOL   O50442898   2.389   6.779   4.782 -0.5532 -0.5842 -0.6045
   48MOL   O50542899   2.423   6.531   4.814  0.2855  0.3621  0.3415
   48MOL   C50642900   2.499   6.655   4.590  0.5481  0.0333 -0.2418
   48MOL   C50742901   2.582   6.749   4.527 -0.4233 -0.0876  0.2307
   48MOL   C50842902   2.605   6.737   4.385 -0.1808  0.6339 -0.2970
   48MOL   C50942903   2.536   6.632   4.313  0.1818 -1.1289 -0.4180
   48MOL   C51042904   2.446   6.544   4.380 -0.2686 -0.4328 -0.6197
   48MOL   C51142905   2.427   6.558   4.521 -0.3000 -0.3898  0.4815
   48MOL   O51242906   2.561   6.612   4.179 -0.1701  0.3405 -0.1090
   48MOL   C51342907   2.648   6.510   4.146 -0.2577  1.3575 -0.0228
   48MOL   C51442908   2.605   6.373   4.152  0.2197 -0.6700  0.1330
   48MOL   C51542909   2.699   6.273   4.142  0.4403 -0.0420 -0.4076
   48MOL   C51642910   2.839   6.299   4.129  0.1991 -0.3631  0.0355
   48MOL   C51742911   2.883   6.433   4.127  0.3309 -0.2569 -0.0622
   48MOL   C51842912   2.785   6.538   4.127 -0.1115  0.6342  0.4418
   48MOL   C51942913   2.942   6.190   4.137 -0.7871 -1.0155 -0.3840
   48MOL   C52042914   3.068   6.199   4.075  0.1055  0.0786  0.3016
   48MOL   C52142915   3.168   6.094   4.089 -0.0812 -0.2939 -0.3782
   48MOL   C52242916   3.145   5.983   4.166 -0.1088  0.0687 -0.7003
   48MOL   C52342917   3.022   5.980   4.229 -0.8812 -0.4213  0.1154
   48MOL   C52442918   2.920   6.077   4.219 -0.1670 -0.3531 -0.2712
   48MOL   O52542919   3.245   5.887   4.163  0.2212 -0.5755  0.4404
   48MOL   H52642920   2.874   6.536   5.031 -1.1380  0.4147  0.7544
   48MOL   H52742921   2.673   6.482   4.909  1.6197  0.6358  1.4748
   48MOL   H52842922   2.624   6.901   4.797  1.1421  1.0155 -2.1438
   48MOL   H52942923   2.846   6.950   4.881  0.6044 -0.1909 -1.8588
   48MOL   H53042924   2.630   6.823   4.589 -1.0199  1.3378 -0.9806
   48MOL   H53142925   2.670   6.809   4.337 -1.1404  3.6623  2.7221
   48MOL   H53242926   2.388   6.465   4.336  0.8741 -0.7823 -1.5119
   48MOL   H53342927   2.361   6.496   4.579  0.4851 -0.9726  0.7527
   48MOL   H53442928   2.502   6.350   4.175  0.3019  0.5500  1.8297
   48MOL   H53542929   2.664   6.172   4.162  0.0996 -0.0704 -1.1494
   48MOL   H53642930   2.990   6.448   4.122  0.5002 -0.8223  1.6676
   48MOL   H53742931   2.824   6.638   4.138  0.9568  0.3058 -0.3625
   48MOL   H53842932   3.103   6.293   4.034  2.1945 -0.9005 -0.2176
   48MOL   H53942933   3.258   6.097   4.029 -1.2510 -1.9049 -2.2598
   48MOL   H54042934   3.005   5.895   4.294  3.2703 -0.4272  1.3019
   48MOL   H54142935   2.837   6.072   4.288  3.5248  0.9595  4.5352
   48MOL   C54242936   3.258   5.803   4.275  0.2178  0.3396 -0.6204
   48MOL   C54342937   3.264   5.666   4.253  0.4244 -0.8502  0.2147
   48MOL   C54442938   3.271   5.576   4.363  0.5272 -0.0002  0.2753
   48MOL   C54542939   3.300   5.624   4.490 -0.6869 -0.1303  0.5916
   48MOL   C54642940   3.299   5.757   4.511  0.1925 -0.6083 -0.7667
   48MOL   C54742941   3.277   5.846   4.404 -1.1220 -0.2451 -0.2966
   48MOL   S54842942   3.315   5.510   4.628  0.0157 -0.0587  0.0534
   48MOL   O54942943   3.326   5.599   4.745 -0.3905  0.4455  0.6047
   48MOL   O55042944   3.420   5.413   4.599  0.2395  0.4268  0.3418
   48MOL   C55142945   3.158   5.419   4.626  0.4303 -0.0223 -0.1819
   48MOL   C55242946   3.041   5.489   4.603  0.0698 -1.0421  0.0013
   48MOL   C55342947   2.917   5.419   4.604  0.1661  0.2779  0.4485
   48MOL   C55442948   2.919   5.279   4.627 -0.6538 -0.3053 -0.3125
   48MOL   C55542949   3.035   5.214   4.654  0.0455 -0.2200  0.4272
   48MOL   C55642950   3.154   5.284   4.655 -0.0489 -0.4300 -0.1766
   48MOL   O55742951   2.809   5.201   4.628  0.2193 -0.2119 -0.4307
   48MOL   C55842952   2.685   5.251   4.656  0.5927 -0.6670  0.6456
   48MOL   C55942953   2.582   5.220   4.568 -0.0254 -0.0768 -0.0103
   48MOL   C56042954   2.453   5.264   4.587 -0.1639  0.3167 -0.0922
   48MOL   C56142955   2.420   5.335   4.707 -0.0546  0.2322 -0.8361
   48MOL   C56242956   2.523   5.362   4.799 -0.6698 -0.1965  0.5103
   48MOL   C56342957   2.658   5.329   4.769  0.4018  0.0159 -0.7738
   48MOL   C56442958   2.285   5.372   4.745 -0.1614 -0.2149  0.6420
   48MOL   C56542959   2.244   5.506   4.745  0.8585  0.4102  0.5339
   48MOL   C56642960   2.108   5.530   4.783  0.4375  0.1827 -0.9255
   48MOL   C56742961   2.013   5.430   4.791  0.4443  0.3256 -0.0125
   48MOL   C56842962   2.057   5.296   4.782 -0.5011 -0.2343  0.4760
   48MOL   C56942963   2.194   5.268   4.771 -0.4389  0.3192 -0.2024
   48MOL   O57042964   1.884   5.463   4.823  0.6559  0.1369  0.3942
   48MOL   H57142965   3.242   5.623   4.156  0.5134  0.0434 -0.2092
   48MOL   H57242966   3.252   5.472   4.346 -0.4576 -0.0092  1.3282
   48MOL   H57342967   3.315   5.800   4.609 -2.2045 -0.7176 -0.3072
   48MOL   H57442968   3.268   5.952   4.423 -1.2743 -0.2932 -0.0892
   48MOL   H57542969   3.041   5.591   4.566  2.1864 -0.3492  1.8045
   48MOL   H57642970   2.824   5.471   4.590  0.1952  0.0790 -0.4884
   48MOL   H57742971   3.028   5.109   4.681 -1.3202 -0.3088 -0.1971
   48MOL   H57842972   3.243   5.229   4.677 -0.9851 -1.4078  1.2188
   48MOL   H57942973   2.606   5.159   4.482  0.5309  0.3252 -0.1436
   48MOL   H58042974   2.373   5.237   4.521  0.3400 -0.4461 -0.4004
   48MOL   H58142975   2.493   5.405   4.893 -0.3851 -0.3934  0.6921
   48MOL   H58242976   2.736   5.359   4.837 -1.4822 -0.1124  1.4788
   48MOL   H58342977   2.310   5.588   4.722 -1.2451  2.3910  1.3888
   48MOL   H58442978   2.079   5.632   4.806  1.6745  0.1306  1.0162
   48MOL   H58542979   1.996   5.207   4.784 -2.1164  0.7996 -1.2189
   48MOL   H58642980   2.230   5.167   4.778 -0.0370  0.4144 -0.8432
   48MOL   C58742981   1.786   5.411   4.742 -0.6411 -1.2269 -0.3203
   48MOL   C58842982   1.785   5.424   4.602 -0.3016  0.0493 -0.0545
   48MOL   C58942983   1.700   5.342   4.523 -0.0743  0.2460 -0.1189
   48MOL   C59042984   1.606   5.254   4.581  0.4302  0.0600 -0.4040
   48MOL   C59142985   1.607   5.242   4.717 -0.3247  0.0574 -0.4584
   48MOL   C59242986   1.690   5.327   4.798  0.1644 -0.4419  0.1433
   48MOL   S59342987   1.503   5.139   4.488  0.3637 -0.2157 -0.0227
   48MOL   O59442988   1.372   5.132   4.557  0.8549  0.2298  0.1309
   48MOL   O59542989   1.578   5.014   4.476  0.3459  0.1442  0.9898
   48MOL   C59642990   1.499   5.202   4.319 -0.3643 -0.3567  0.2205
   48MOL   C59742991   1.486   5.344   4.296 -0.0128  0.2286  0.0041
   48MOL   C59842992   1.484   5.388   4.164  0.5202 -0.0103 -0.5512
   48MOL   C59942993   1.503   5.296   4.055 -0.3960  0.3604  0.7636
   48MOL   C60042994   1.529   5.157   4.078 -0.1677  0.2785 -0.3263
   48MOL   C60142995   1.525   5.110   4.207  0.0950  0.2448 -0.0217
   48MOL   O60242996   1.508   5.339   3.926 -0.2454 -0.3008  0.6800
   48MOL   C60342997   1.630   5.390   3.887  0.9902  0.0134  0.0490
   48MOL   C60442998   1.740   5.309   3.860 -0.4920  0.3306 -0.6301
   48MOL   C60542999   1.868   5.367   3.825  0.3848 -0.1290 -0.4587
   48MOL   C60643000   1.880   5.509   3.832  0.7801 -0.5606  0.4915
   48MOL   C60743001   1.771   5.593   3.853  0.1067  0.3530  0.5289
   48MOL   C60843002   1.641   5.528   3.868 -0.4938 -0.3808  0.3155
   48MOL   C60943003   2.016   5.568   3.822 -0.0289  0.3757  0.0555
   48MOL   C61043004   2.042   5.691   3.753  0.9194  0.3921 -0.1222
   48MOL   C61143005   2.178   5.738   3.745  0.0812  0.0046  0.6350
   48MOL   C61243006   2.282   5.674   3.816  0.1952 -0.6242  0.6575
   48MOL   C61343007   2.256   5.552   3.884 -0.2728  0.1834 -0.0332
   48MOL   C61443008   2.125   5.498   3.879 -0.3688  0.7127 -0.1381
   48MOL   O61543009   2.404   5.739   3.822  0.2018  0.1015  0.2740
   48MOL   H61643010   1.860   5.489   4.559 -0.2181 -0.1360 -0.1914
   48MOL   H61743011   1.707   5.360   4.416  0.0240  0.2911 -0.1048
   48MOL   H61843012   1.536   5.179   4.770 -1.8525  1.3623 -0.9083
   48MOL   H61943013   1.677   5.329   4.905 -0.6938  1.7844  0.0258
   48MOL   H62043014   1.485   5.423   4.370 -0.0161  0.5616 -0.3507
   48MOL   H62143015   1.479   5.495   4.150  2.2394  0.0831 -0.6255
   48MOL   H62243016   1.540   5.083   4.000 -1.0702 -1.3687  1.0598
   48MOL   H62343017   1.541   5.004   4.221 -1.9979 -0.0152  0.4916
   48MOL   H62443018   1.728   5.202   3.871 -0.3136  0.4320  0.7033
   48MOL   H62543019   1.954   5.303   3.811  0.7319  0.3427 -0.4952
   48MOL   H62643020   1.774   5.701   3.859 -0.8483  0.4229 -0.1535
   48MOL   H62743021   1.548   5.582   3.871  0.1840  0.8012  0.4954
   48MOL   H62843022   1.953   5.738   3.714  1.0577  0.7304 -0.0340
   48MOL   H62943023   2.206   5.831   3.697 -0.4618  0.4500  1.1869
   48MOL   H63043024   2.334   5.491   3.927  1.2884  0.4967 -2.3497
   48MOL   H63143025   2.127   5.400   3.925  1.5597  0.7641 -0.0815
   48MOL   C63243026   2.511   5.693   3.750 -0.0651  0.1105  0.1483
   48MOL   C63343027   2.631   5.759   3.777  0.2639  0.2196 -0.1890
   48MOL   C63443028   2.748   5.707   3.722  0.2753  0.4822  0.8197
   48MOL   C63543029   2.748   5.603   3.625  0.6489 -0.0795  0.5339
   48MOL   C63643030   2.622   5.551   3.587 -0.1432  0.1842 -0.3302
   48MOL   C63743031   2.511   5.582   3.663 -0.1686 -0.3009  0.1242
   48MOL   S63843032   2.892   5.550   3.536 -0.0242 -0.3817  0.1281
   48MOL   O63943033   2.898   5.625   3.412 -0.4331 -0.1053  0.0096
   48MOL   O64043034   2.896   5.403   3.525 -0.2574 -0.2296 -0.2049
   48MOL   C64143035   3.025   5.600   3.643  0.5569  0.7330 -0.9072
   48MOL   C64243036   3.105   5.710   3.615 -0.3589  0.5204  0.8280
   48MOL   C64343037   3.192   5.751   3.716  0.2574 -0.1489 -0.1674
   48MOL   C64443038   3.211   5.680   3.838 -0.2200 -0.3219  0.2092
   48MOL   C64543039   3.141   5.560   3.856 -0.2299 -0.0095 -0.6119
   48MOL   C64643040   3.048   5.521   3.760 -0.6750 -0.1033 -0.0361
   48MOL   O64743041   3.289   5.728   3.942  0.0976  0.3190  0.0667
   48MOL   C64843042   3.411   5.779   3.905 -0.0111 -0.0526  0.1553
   48MOL   C64943043   3.442   5.910   3.862  0.2454 -0.2294  0.2081
   48MOL   C65043044   3.569   5.950   3.823 -0.4772 -0.3273 -0.5008
   48MOL   C65143045   3.676   5.857   3.831 -0.2229 -0.3563  0.5016
   48MOL   C65243046   3.652   5.734   3.897  0.2200 -0.2767  0.7075
   48MOL   C65343047   3.522   5.696   3.934  0.4258 -0.7476 -0.6913
   48MOL   C65443048   3.806   5.909   3.779  0.1938  0.3376  0.4225
   48MOL   C65543049   3.852   6.040   3.809 -0.4217  0.3324  0.4131
   48MOL   C65643050   3.970   6.090   3.761 -0.2591 -0.4906 -0.3229
   48MOL   C65743051   4.058   6.000   3.695  0.4434 -0.6604  0.0495
   48MOL   C65843052   4.020   5.866   3.664  0.2582 -0.4448  0.1197
   48MOL   C65943053   3.892   5.822   3.707  0.2178 -0.3790  0.4202
   48MOL   O66043054   4.186   6.045   3.670 -0.0370 -0.2641  0.2121
   48MOL   H66143055   2.641   5.849   3.836  0.4663 -0.4641  0.8233
   48MOL   H66243056   2.844   5.752   3.745  0.1992  1.2444 -0.2947
   48MOL   H66343057   2.606   5.485   3.503  0.7440  1.8416 -1.8341
   48MOL   H66443058   2.420   5.528   3.641  0.0268  0.2161 -2.1103
   48MOL   H66543059   3.093   5.776   3.531 -1.9613  0.1289  0.7392
   48MOL   H66643060   3.242   5.845   3.701 -0.1773  0.1775  0.4202
   48MOL   H66743061   3.150   5.499   3.944 -0.0975  0.5203 -0.2596
   48MOL   H66843062   2.987   5.432   3.762 -1.4073  0.2786 -3.2369
   48MOL   H66943063   3.354   5.972   3.847  0.2231 -0.4293 -0.4818
   48MOL   H67043064   3.574   6.053   3.791  0.8497 -0.6963 -1.5414
   48MOL   H67143065   3.734   5.665   3.906 -1.0276 -1.6156  1.9517
   48MOL   H67243066   3.515   5.596   3.975 -1.6460 -0.7686 -1.0268
   48MOL   H67343067   3.794   6.101   3.877 -0.1415  0.3139  0.6683
   48MOL   H67443068   3.999   6.193   3.771 -1.8935  0.1074 -1.4268
   48MOL   H67543069   4.079   5.796   3.607  0.2626 -0.9020  0.6843
   48MOL   H67643070   3.871   5.721   3.678 -2.0189  0.5986 -1.4483
   48MOL   C67743071   4.286   5.976   3.736  0.4326 -0.2447  0.0881
   48MOL   C67843072   4.351   5.869   3.672 -0.3163  0.2018 -0.2557
   48MOL   C67943073   4.452   5.788   3.727  0.1632 -0.5100 -0.0313
   48MOL   C68043074   4.492   5.829   3.856 -0.4129  0.3776  0.8533
   48MOL   C68143075   4.438   5.937   3.927  0.1726 -0.2168  1.0117
   48MOL   C68243076   4.332   6.009   3.867  0.2463 -1.0248 -0.2515
   48MOL   S68343077   4.641   5.754   3.924 -0.2939 -0.0210 -0.1247
   48MOL   O68443078   4.598   5.720   4.060  0.0466 -0.4873 -0.6743
   48MOL   O68543079   4.750   5.852   3.909  0.1089  0.3147  0.2794
   48MOL   C68643080   4.693   5.609   3.843  0.1852  0.1656  0.2511
   48MOL   C68743081   4.673   5.483   3.900  0.0906  0.7187 -0.0877
   48MOL   C68843082   4.702   5.366   3.823  0.2271  0.2143 -0.2688
   48MOL   C68943083   4.754   5.374   3.692  0.4157 -0.1430 -0.7658
   48MOL   C69043084   4.795   5.499   3.641  0.4677  0.3709  0.2426
   48MOL   C69143085   4.766   5.613   3.723  0.3284 -0.4126  0.5938
   48MOL   O69243086   4.777   5.258   3.628 -0.1560 -0.2245  0.0714
   48MOL   C69343087   4.732   5.236   3.503  0.3173  0.3542 -0.2433
   48MOL   C69443088   4.808   5.169   3.408  0.5849  0.6597 -0.1828
   48MOL   C69543089   4.761   5.151   3.272  0.8804  0.4815 -0.0226
   48MOL   C69643090   4.635   5.206   3.235  0.3359  0.5512  0.4004
   48MOL   C69743091   4.558   5.280   3.332 -0.3674  0.4928  0.1808
   48MOL   C69843092   4.602   5.286   3.462 -0.5232 -0.4405  0.1136
   48MOL   C69943093   4.585   5.210   3.098 -0.5971 -0.2751 -0.4865
   48MOL   C70043094   4.561   5.333   3.038 -0.2356  0.5684  0.4276
   48MOL   C70143095   4.537   5.340   2.901  0.0615 -1.5283 -0.5039
   48MOL   C70243096   4.537   5.222   2.822 -0.3848  0.6120 -0.1346
   48MOL   C70343097   4.564   5.103   2.885  0.4632 -0.8332 -0.2542
   48MOL   C70443098   4.585   5.093   3.023  0.1648 -0.5928 -0.5376
   48MOL   O70543099   4.516   5.229   2.687 -0.5795 -0.3280  0.2053
   48MOL   H70643100   4.313   5.843   3.575 -1.4190 -2.4740  0.8583
   48MOL   H70743101   4.506   5.710   3.676  1.4730 -0.9244  1.9069
   48MOL   H70843102   4.469   5.953   4.029 -2.3621 -2.2209  2.1639
   48MOL   H70943103   4.289   6.093   3.921 -3.5070 -1.9434 -1.6915
   48MOL   H71043104   4.619   5.461   3.991 -0.3734 -1.0526 -0.7600
   48MOL   H71143105   4.671   5.274   3.871  0.1381  1.1477  1.5320
   48MOL   H71243106   4.847   5.495   3.547  1.1601 -0.1841  0.6372
   48MOL   H71343107   4.789   5.712   3.686 -2.1153  0.2909  0.8689
   48MOL   H71443108   4.903   5.132   3.445  0.6049  1.2384  0.3581
   48MOL   H71543109   4.817   5.091   3.201 -0.2202 -0.5391 -0.0567
   48MOL   H71643110   4.462   5.316   3.297 -1.4984 -0.1223  2.5418
   48MOL   H71743111   4.538   5.326   3.539 -0.3011  0.8577 -0.3642
   48MOL   H71843112   4.580   5.418   3.101  0.9933  1.1548 -0.6881
   48MOL   H71943113   4.522   5.434   2.851 -1.6720 -1.5983 -0.1433
   48MOL   H72043114   4.572   5.015   2.822 -1.7187 -0.7359 -0.7232
   48MOL   H72143115   4.602   4.999   3.074  1.1449  1.3827  2.9318
   48MOL   C72243116   4.426   5.141   2.626  0.1030  0.0317  0.3122
   48MOL   C72343117   4.462   5.099   2.497  0.0235 -0.6617 -0.3380
   48MOL   C72443118   4.369   5.025   2.419 -0.2908 -0.1489  0.6343
   48MOL   C72543119   4.244   4.996   2.474 -0.4074  0.5310 -0.3195
   48MOL   C72643120   4.205   5.040   2.603  0.3672  0.9971 -0.9173
   48MOL   C72743121   4.296   5.108   2.684  0.3778 -0.3090  1.1332
   48MOL   S72843122   4.135   4.903   2.371  0.0693 -0.0850  0.5864
   48MOL   O72943123   4.220   4.810   2.291 -0.4010  0.0874 -0.3954
   48MOL   O73043124   4.043   5.003   2.308 -0.8005 -0.0249  0.3338
   48MOL   C73143125   4.036   4.802   2.486 -0.2182  0.3313  0.1112
   48MOL   C73243126   3.893   4.819   2.487 -0.1315  0.2117  0.3465
   48MOL   C73343127   3.815   4.744   2.575 -0.6572  0.1149 -0.1151
   48MOL   C73443128   3.880   4.648   2.659 -0.7476  0.1518 -0.2932
   48MOL   C73543129   4.024   4.637   2.658  0.1230  0.3436  0.3239
   48MOL   C73643130   4.099   4.715   2.573  0.2428  0.2616  0.1768
   48MOL   O73743131   3.796   4.556   2.721 -0.1372 -0.3753 -0.3584
   48MOL   C73843132   3.755   4.577   2.847  0.4340  0.1877  0.3270
   48MOL   C73943133   3.786   4.493   2.950  0.4808 -1.1721  0.0691
   48MOL   C74043134   3.749   4.521   3.082  0.1765 -0.2294  0.2502
   48MOL   C74143135   3.660   4.621   3.114  0.0998  0.6720 -0.3631
   48MOL   C74243136   3.615   4.699   3.010 -0.1405 -0.3000  0.6816
   48MOL   C74343137   3.669   4.683   2.881  0.1774  0.0711 -0.4451
   48MOL   C74443138   3.615   4.651   3.258 -0.4878  0.1865 -0.3972
   48MOL   C74543139   3.497   4.593   3.317  0.1325 -0.1179 -0.4461
   48MOL   C74643140   3.478   4.605   3.458 -0.8631 -0.0002 -0.0952
   48MOL   C74743141   3.554   4.690   3.531  0.1199 -0.2303  0.2887
   48MOL   C74843142   3.675   4.747   3.476 -0.8483  0.4506  0.5360
   48MOL   C74943143   3.706   4.720   3.338  0.7478  0.0751 -0.5959
   48MOL   O75043144   3.522   4.708   3.666 -0.5673 -0.4424  0.3901
   48MOL   H75143145   4.559   5.136   2.465  0.4071 -1.6702 -0.3668
   48MOL   H75243146   4.392   4.987   2.320  0.4271 -0.0301  0.7505
   48MOL   H75343147   4.111   5.009   2.646  1.1105  1.4380  1.0862
   48MOL   H75443148   4.275   5.144   2.784  0.1480  2.0619  0.2698
   48MOL   H75543149   3.853   4.877   2.405  0.0015 -2.9067 -2.0169
   48MOL   H75643150   3.708   4.756   2.568 -0.9566 -1.8450  0.9767
   48MOL   H75743151   4.075   4.561   2.715  0.0979  0.0958  0.0167
   48MOL   H75843152   4.206   4.701   2.576  0.1119 -0.6178  3.4771
   48MOL   H75943153   3.865   4.422   2.929  1.4721 -0.3958  1.0918
   48MOL   H76043154   3.796   4.471   3.166 -1.5964 -0.4145  1.1722
   48MOL   H76143155   3.550   4.782   3.032  2.0072  0.7736  3.1749
   48MOL   H76243156   3.645   4.758   2.807 -1.3324 -0.1458 -0.1855
   48MOL   H76343157   3.430   4.533   3.258 -1.8186  1.8425 -0.2996
   48MOL   H76443158   3.398   4.552   3.507  1.0814 -2.3947  0.6132
   48MOL   H76543159   3.730   4.809   3.545  2.1929 -0.8882 -0.6129
   48MOL   H76643160   3.797   4.759   3.294  1.6900 -1.1971  0.1904
   48MOL   C76743161   3.456   4.825   3.695 -0.1979  0.4814  0.0472
   48MOL   C76843162   3.533   4.948   3.696  0.6090  0.3157  0.4836
   48MOL   C76943163   3.462   5.070   3.712  0.0838  0.5777  0.1466
   48MOL   C77043164   3.322   5.073   3.723 -0.0345  0.2680  0.0384
   48MOL   C77143165   3.252   4.947   3.742  0.0362 -0.3908  0.0276
   48MOL   C77243166   3.318   4.826   3.717  0.2516 -0.0612 -0.4798
   48MOL   S77343167   3.240   5.231   3.740 -0.2930 -0.3807  0.2957
   48MOL   O77443168   3.267   5.284   3.878 -0.5501  0.1627  1.0162
   48MOL   O77543169   3.100   5.211   3.695 -0.5773 -0.2553 -0.2371
   48MOL   C77643170   3.329   5.334   3.621 -0.0513  0.3795 -0.1464
   48MOL   C77743171   3.311   5.319   3.484 -1.0318  0.2016 -0.2475
   48MOL   C77843172   3.382   5.407   3.401 -0.3696 -0.8225 -0.4507
   48MOL   C77943173   3.477   5.506   3.461  0.2946 -0.4293 -1.6827
   48MOL   C78043174   3.499   5.505   3.603 -0.3994 -0.1942  0.0868
   48MOL   C78143175   3.427   5.414   3.678 -0.9428  0.0494  0.0767
   48MOL   O78243176   3.542   5.596   3.374 -0.3710  0.2125  0.0654
   48MOL   C78343177   3.677   5.611   3.384 -0.1984  0.4673 -0.4371
   48MOL   C78443178   3.734   5.736   3.370 -0.1625  0.1066  0.1300
   48MOL   C78543179   3.871   5.754   3.368 -0.4109 -0.3797 -0.4391
   48MOL   C78643180   3.958   5.642   3.382  0.3267 -0.1081  0.2984
   48MOL   C78743181   3.900   5.515   3.404  0.2490 -0.0741 -0.0763
   48MOL   C78843182   3.756   5.498   3.405  0.5600  0.4383  0.2279
   48MOL   C78943183   4.104   5.658   3.374  0.3481  0.5017 -0.2773
   48MOL   C79043184   4.170   5.725   3.272  0.0772  0.1528 -0.0017
   48MOL   C79143185   4.309   5.727   3.271 -0.1067 -0.4296  0.1983
   48MOL   C79243186   4.388   5.653   3.362  0.4762  0.6080  0.1707
   48MOL   C79343187   4.328   5.579   3.460 -0.2575  0.1670  0.0468
   48MOL   C79443188   4.188   5.584   3.463  0.5070 -0.1884 -0.2606
   48MOL   O79543189   4.524   5.645   3.363  0.0360  0.1021 -0.8475
   48MOL   H79643190   3.639   4.947   3.675  0.1862  2.2511 -2.1334
   48MOL   H79743191   3.514   5.164   3.704 -1.1310  1.0358 -3.2757
   48MOL   H79843192   3.148   4.957   3.770  0.3369  1.1120  0.6360
   48MOL   H79943193   3.266   4.735   3.744  1.2966 -0.9324 -1.3391
   48MOL   H80043194   3.239   5.246   3.448 -0.4858 -0.6211  0.3174
   48MOL   H80143195   3.374   5.415   3.294 -0.9427  1.1360 -0.2859
   48MOL   H80243196   3.568   5.572   3.652 -1.3263 -1.4124  3.1869
   48MOL   H80343197   3.451   5.407   3.783 -0.4576 -1.9769 -0.1414
   48MOL   H80443198   3.663   5.815   3.355  2.3614  2.2350 -1.0816
   48MOL   H80543199   3.903   5.853   3.336  0.9625 -0.6077  0.1968
   48MOL   H80643200   3.963   5.428   3.401 -2.0089 -1.9207  3.2104
   48MOL   H80743201   3.724   5.396   3.420  0.7988  0.4332  0.7094
   48MOL   H80843202   4.121   5.757   3.182  0.5683  1.9507  0.3521
   48MOL   H80943203   4.366   5.772   3.191 -1.1692  0.1498 -0.2326
   48MOL   H81043204   4.389   5.513   3.521  1.9954  1.5160 -0.7263
   48MOL   H81143205   4.130   5.532   3.537  0.9704 -0.2879  0.0381
   48MOL   C81243206   4.590   5.749   3.312 -1.2135 -0.1665  0.2872
   48MOL   C81343207   4.574   5.880   3.365 -0.2328  0.3089 -0.2993
   48MOL   C81443208   4.637   5.987   3.299  0.6537  0.2214 -0.0871
   48MOL   C81543209   4.726   5.964   3.192  0.5881 -0.5869  0.0733
   48MOL   C81643210   4.741   5.832   3.142  0.1921 -1.1062  0.1059
   48MOL   C81743211   4.673   5.723   3.205 -0.2158 -0.4546  0.5058
   48MOL   S81843212   4.838   6.088   3.128  0.1890  0.4483  0.1424
   48MOL   O81943213   4.795   6.218   3.175 -0.1700 -0.1480  0.1333
   48MOL   O82043214   4.859   6.064   2.982 -0.4203  0.0665  0.0202
   48MOL   C82143215   4.999   6.046   3.203  0.4032  0.4552 -0.1120
   48MOL   C82243216   5.055   6.140   3.292 -0.9272  0.0436 -0.9088
   48MOL   C82343217   5.191   6.118   3.333  0.2874  0.1677  0.2266
   48MOL   C82443218   5.261   6.003   3.286  0.5167 -0.5785  0.5897
   48MOL   C82543219   5.192   5.909   3.199 -0.4164  0.7000  0.3692
   48MOL   C82643220   5.058   5.923   3.167  0.0993  0.4295 -0.0732
   48MOL   O82743221   5.398   5.990   3.299  0.7351  0.0368 -0.2562
   48MOL   C82843222   5.443   6.006   3.425 -0.0944 -0.2232 -0.5336
   48MOL   C82943223   5.531   6.108   3.449 -0.0368  0.5333 -0.2093
   48MOL   C83043224   5.598   6.131   3.569  0.4225  0.1334  0.3094
   48MOL   C83143225   5.558   6.056   3.682 -0.2412  0.0602  1.6842
   48MOL   C83243226   5.458   5.955   3.668  0.2927  0.0898  0.7509
   48MOL   C83343227   5.403   5.927   3.536  0.1299 -0.1301 -0.0995
   48MOL   C83443228   5.638   6.068   3.806  0.3217 -0.1600 -0.8631
   48MOL   C83543229   5.775   6.091   3.805  0.3060 -0.0815 -0.1522
   48MOL   C83643230   5.849   6.098   3.923 -0.4392  0.5910  1.0516
   48MOL   C83743231   5.791   6.079   4.047  0.0181 -0.3078  0.0261
   48MOL   C83843232   5.648   6.054   4.055  0.0550 -0.3439  0.4434
   48MOL   C83943233   5.572   6.052   3.934  0.3814  1.0640 -0.0059
   48MOL   O84043234   5.866   6.065   4.157 -0.1166  0.6778  0.0099
   48MOL   H84143235   4.501   5.906   3.439  0.4836  0.9387  0.1969
   48MOL   H84243236   4.621   6.088   3.333  0.2820  0.1578 -0.0716
   48MOL   H84343237   4.800   5.804   3.056 -1.7157 -1.0581 -1.2690
   48MOL   H84443238   4.688   5.628   3.157 -0.4260 -0.2750  0.0855
   48MOL   H84543239   5.004   6.234   3.310 -2.0119 -0.6226 -0.5168
   48MOL   H84643240   5.245   6.187   3.396  0.9121 -1.3634  1.4130
   48MOL   H84743241   5.245   5.819   3.174  0.7049  1.4155  0.1423
   48MOL   H84843242   5.016   5.863   3.088 -0.1890 -1.2009  1.3118
   48MOL   H84943243   5.580   6.153   3.364  0.2074  1.7060  0.5417
   48MOL   H85043244   5.689   6.189   3.570 -0.0418  0.9098 -1.4786
   48MOL   H85143245   5.441   5.884   3.748  1.2782 -2.1031 -0.9334
   48MOL   H85243246   5.351   5.836   3.512 -3.1152  1.6624 -0.0909
   48MOL   H85343247   5.823   6.098   3.709 -0.5783  4.1745 -0.4057
   48MOL   H85443248   5.957   6.103   3.912 -0.3738 -2.4697 -0.0996
   48MOL   H85543249   5.594   6.041   4.148 -2.9324 -1.5643 -1.3899
   48MOL   H85643250   5.464   6.040   3.940  0.4233  0.4660 -0.3785
   48MOL   C85743251   5.948   5.954   4.173  0.1311  0.1545 -0.1122
   48MOL   C85843252   6.076   5.969   4.228  0.6281  0.1302  0.9309
   48MOL   C85943253   6.156   5.860   4.254  0.2674 -0.0832 -0.2031
   48MOL   C86043254   6.105   5.731   4.241  0.0755  0.4561  0.3603
   48MOL   C86143255   5.984   5.715   4.170  0.2638 -0.2265 -0.3866
   48MOL   C86243256   5.899   5.823   4.144 -0.2794  0.4875  0.8940
   48MOL   S86343257   6.214   5.592   4.276  0.2803  0.2779 -0.3438
   48MOL   O86443258   6.321   5.637   4.369 -0.1558 -0.1553  0.2453
   48MOL   O86543259   6.258   5.526   4.152 -0.3568  0.4140  0.2092
   48MOL   C86643260   6.108   5.470   4.353 -0.2831  0.6586 -0.0632
   48MOL   C86743261   6.077   5.490   4.491 -0.2471 -0.8289 -0.0344
   48MOL   C86843262   6.003   5.390   4.558 -0.2887 -0.1707  0.3361
   48MOL   C86943263   5.960   5.274   4.487 -0.8459 -0.0583 -0.3990
   48MOL   C87043264   6.001   5.253   4.351 -0.5091  0.4122 -0.2960
   48MOL   C87143265   6.076   5.350   4.284  0.3919  0.0189  0.3444
   48MOL   O87243266   5.870   5.185   4.549 -0.2241  0.0826  0.1101
   48MOL   C87343267   5.744   5.178   4.493 -0.4913 -0.6513 -0.2481
   48MOL   C87443268   5.651   5.286   4.492 -0.2661  0.3684  0.6772
   48MOL   C87543269   5.544   5.275   4.399 -0.4607 -0.5957 -1.1235
   48MOL   C87643270   5.521   5.168   4.313 -0.1163 -0.3305 -0.0649
   48MOL   C87743271   5.616   5.069   4.313  0.2275 -0.9935 -0.3125
   48MOL   C87843272   5.724   5.069   4.402 -0.4587 -0.1414  0.7978
   48MOL   C87943273   5.395   5.150   4.233  0.4613  0.3226  0.3560
   48MOL   C88043274   5.349   5.025   4.189  0.0103 -0.1708  0.5646
   48MOL   C88143275   5.244   5.016   4.096 -0.5660  0.1551 -0.4901
   48MOL   C88243276   5.176   5.133   4.049  0.0255  1.2511 -0.4362
   48MOL   C88343277   5.225   5.260   4.090 -0.0320  0.1043  0.4754
   48MOL   C88443278   5.326   5.266   4.186  0.1850 -0.0759 -0.2253
   48MOL   O88543279   5.089   5.124   3.945  0.3816  0.2099  0.5884
   48MOL   H88643280   6.112   6.065   4.262  1.7931  0.5290 -1.3470
   48MOL   H88743281   6.250   5.870   4.306 -1.4087 -0.9941  3.1882
   48MOL   H88843282   5.945   5.619   4.140 -0.1314 -0.2949  0.3308
   48MOL   H88943283   5.804   5.816   4.094  0.5338  0.6886 -0.7155
   48MOL   H89043284   6.119   5.571   4.548 -3.6808  0.5033  0.7337
   48MOL   H89143285   5.974   5.393   4.661  1.8056 -1.3687  1.0063
   48MOL   H89243286   5.971   5.166   4.295  0.2903 -0.0014 -0.0922
   48MOL   H89343287   6.118   5.324   4.188 -1.2009 -2.5414  0.3015
   48MOL   H89443288   5.668   5.384   4.534  2.5463  0.8467 -1.4427
   48MOL   H89543289   5.468   5.351   4.411  0.7783  0.6498 -1.0594
   48MOL   H89643290   5.611   4.983   4.249  1.2824 -1.5536  0.3503
   48MOL   H89743291   5.794   4.987   4.399 -0.8581 -0.4561 -0.3443
   48MOL   H89843292   5.392   4.935   4.230  0.3574 -0.1774  0.1789
   48MOL   H89943293   5.230   4.918   4.052 -0.3815  0.8072 -2.0173
   48MOL   H90043294   5.197   5.356   4.051 -1.5357 -0.2270  0.7141
   48MOL   H90143295   5.365   5.365   4.207  1.9847 -1.3051  2.5495
   48MOL   H90243296   5.076   5.033   3.922  1.5055 -0.2199  1.6030
   49MOL     C143297   1.996   2.774   1.586  0.6932 -0.0374  0.4653
   49MOL     C243298   2.121   2.788   1.649  0.1429 -0.2956 -0.8517
   49MOL     C343299   2.147   2.722   1.773  0.4436  0.4777  0.0245
   49MOL     C443300   2.044   2.651   1.833 -0.6019 -1.0296  0.4578
   49MOL     C543301   1.916   2.642   1.773  0.3263  0.6885  0.3072
   49MOL     C643302   1.891   2.697   1.645  0.0896  0.5684 -1.0220
   49MOL     S743303   2.056   2.577   1.997  0.0341 -0.0800  0.3488
   49MOL     O843304   2.173   2.632   2.062  0.0479 -0.1075  0.1420
   49MOL     O943305   2.056   2.432   1.976 -0.5892  0.0958 -0.1873
   49MOL    C1043306   1.917   2.623   2.091 -0.4989 -0.3666 -0.5316
   49MOL    C1143307   1.848   2.751   2.079  0.1805  0.4731 -0.6352
   49MOL    C1243308   1.735   2.777   2.155  0.1727  0.4237  0.0540
   49MOL    C1343309   1.691   2.682   2.250 -0.1670 -0.1059 -0.1216
   49MOL    C1443310   1.768   2.564   2.266 -0.2135  0.1235 -0.1358
   49MOL    C1543311   1.880   2.526   2.190 -0.3380 -0.9258  0.0593
   49MOL    O1643312   1.577   2.700   2.321 -0.5692 -0.2966 -0.1966
   49MOL    C1743313   1.607   2.743   2.453 -0.3234 -0.4673  0.3983
   49MOL    C1843314   1.620   2.876   2.477  0.4970  0.1377 -0.0407
   49MOL    C1943315   1.650   2.926   2.607  0.8209 -0.2638  0.1679
   49MOL    C2043316   1.671   2.836   2.715 -0.0987 -0.2659 -0.2645
   49MOL    C2143317   1.680   2.696   2.686  0.2849  0.5058 -0.0348
   49MOL    C2243318   1.636   2.646   2.556 -0.2733  0.2217  0.4511
   49MOL    C2343319   1.722   2.890   2.838  0.2290  0.9986 -0.3975
   49MOL    C2443320   1.633   2.916   2.946 -0.8564 -0.0568  0.5127
   49MOL    C2543321   1.680   2.965   3.064  0.1337 -0.4588 -0.1018
   49MOL    C2643322   1.816   2.986   3.086  0.7849 -0.7736  0.5000
   49MOL    C2743323   1.906   2.962   2.978 -0.7342 -0.0493  0.0974
   49MOL    C2843324   1.858   2.911   2.854 -1.0603  0.0203 -0.5185
   49MOL    O2943325   1.861   3.011   3.214  0.1712  0.1855  0.2230
   49MOL    H3043326   2.198   2.855   1.615 -0.6036  2.2015  2.2107
   49MOL    H3143327   2.250   2.715   1.807  1.2642  1.2698 -2.1993
   49MOL    H3243328   1.838   2.588   1.825  1.2240  0.6081  1.5836
   49MOL    H3343329   1.800   2.683   1.590 -0.5382  1.2903 -0.1768
   49MOL    H3443330   1.897   2.827   2.020  0.3408  0.6142 -0.3212
   49MOL    H3543331   1.686   2.873   2.142  0.4752  0.1270 -3.9406
   49MOL    H3643332   1.719   2.496   2.335 -1.0301  2.2807  1.4554
   49MOL    H3743333   1.927   2.429   2.198  1.6895  0.0457  0.2012
   49MOL    H3843334   1.625   2.943   2.393 -3.0634  0.9423  0.2815
   49MOL    H3943335   1.662   3.032   2.618  0.0417 -0.4312  2.8606
   49MOL    H4043336   1.722   2.626   2.756  1.0397 -2.6474 -3.4979
   49MOL    H4143337   1.636   2.543   2.524  1.2107 -0.3935  2.3873
   49MOL    H4243338   1.525   2.907   2.941 -1.0429  1.1609  2.0279
   49MOL    H4343339   1.607   2.994   3.138 -0.4731  0.7842 -1.1497
   49MOL    H4443340   2.013   2.971   2.989 -0.2100 -2.3933 -2.4515
   49MOL    H4543341   1.922   2.881   2.772  0.2169 -2.0704  1.1775
   49MOL    H4643342   1.976   2.832   1.497  0.2848  1.5423  1.5515
   49MOL    C4743343   1.948   3.115   3.226  0.5423 -0.1009 -1.1373
   49MOL    C4843344   1.906   3.247   3.222 -0.6119 -0.4399 -0.3920
   49MOL    C4943345   2.006   3.344   3.231 -0.1305  0.0994 -1.0138
   49MOL    C5043346   2.142   3.313   3.259 -0.6180  0.0947  0.0522
   49MOL    C5143347   2.185   3.179   3.257  0.0289 -0.1231 -0.2201
   49MOL    C5243348   2.084   3.077   3.243  0.0372  0.2924 -0.1292
   49MOL    S5343349   2.257   3.447   3.302  0.0193  0.4458  0.0985
   49MOL    O5443350   2.190   3.578   3.280  0.0189 -0.5612 -0.5971
   49MOL    O5543351   2.384   3.425   3.228  0.4641 -0.1740  0.5506
   49MOL    C5643352   2.289   3.415   3.480  0.1699  0.2595  0.2896
   49MOL    C5743353   2.180   3.384   3.562 -0.2326 -0.7111 -0.2642
   49MOL    C5843354   2.199   3.359   3.701 -0.6776 -0.1892  0.3551
   49MOL    C5943355   2.328   3.370   3.759  0.0889 -0.0157  0.2908
   49MOL    C6043356   2.436   3.393   3.677  0.1747 -0.5105  0.9101
   49MOL    C6143357   2.417   3.417   3.541 -0.0662  0.4942 -0.0013
   49MOL    O6243358   2.340   3.360   3.899 -0.3638 -0.5130  0.5931
   49MOL    C6343359   2.243   3.427   3.972 -0.7276 -0.0025  0.3280
   49MOL    C6443360   2.150   3.353   4.051 -0.2334 -0.1558 -0.2380
   49MOL    C6543361   2.043   3.422   4.111 -0.6671 -0.2606  0.6992
   49MOL    C6643362   2.025   3.562   4.100  1.1480  0.6793  0.7855
   49MOL    C6743363   2.114   3.630   4.010 -0.2967  0.0768  0.4868
   49MOL    C6843364   2.228   3.564   3.954  0.4153 -0.7279 -0.4356
   49MOL    C6943365   1.913   3.627   4.169 -0.1205 -0.2792 -0.2427
   49MOL    C7043366   1.785   3.565   4.171 -0.2268 -0.4558  0.1728
   49MOL    C7143367   1.671   3.626   4.230 -0.3090 -0.2109 -0.1881
   49MOL    C7243368   1.690   3.752   4.291  0.9363 -0.4561 -0.2783
   49MOL    C7343369   1.812   3.815   4.293  0.1509 -0.2198  1.2912
   49MOL    C7443370   1.928   3.753   4.234  0.4215 -0.1769  0.2589
   49MOL    O7543371   1.578   3.822   4.333  0.0417  0.5758 -0.2314
   49MOL    H7643372   1.803   3.280   3.219 -0.5270 -0.2346 -2.9404
   49MOL    H7743373   1.982   3.449   3.241  0.2329  0.0620  0.3687
   49MOL    H7843374   2.290   3.159   3.271 -0.3686 -3.0618 -1.0879
   49MOL    H7943375   2.119   2.975   3.249  1.1477  0.7513  1.8679
   49MOL    H8043376   2.082   3.381   3.517 -1.0851  1.4145  1.3472
   49MOL    H8143377   2.120   3.333   3.770  0.1737 -0.9751  1.0588
   49MOL    H8243378   2.533   3.396   3.725 -0.3171  4.2658  1.8997
   49MOL    H8343379   2.501   3.435   3.476  0.8401 -1.0881  0.6957
   49MOL    H8443380   2.169   3.248   4.067 -1.2579 -0.0716  1.6885
   49MOL    H8543381   1.980   3.369   4.181 -1.1419 -2.1246 -1.0948
   49MOL    H8643382   2.105   3.737   3.999 -1.9603 -0.0974  0.0254
   49MOL    H8743383   2.298   3.623   3.897  0.7198 -0.8146 -0.1483
   49MOL    H8843384   1.773   3.480   4.105 -2.1595 -0.5055  0.5511
   49MOL    H8943385   1.569   3.589   4.231  0.1099 -1.3883  0.7275
   49MOL    H9043386   1.829   3.916   4.326  0.7971  0.0100  0.2573
   49MOL    H9143387   2.023   3.805   4.240  0.1229  0.3084  0.7504
   49MOL    C9243388   1.571   3.860   4.464 -0.8788 -0.2414  0.0200
   49MOL    C9343389   1.562   3.770   4.567  0.6720  0.0995 -0.2275
   49MOL    C9443390   1.537   3.815   4.700  0.2231 -0.3688 -0.1325
   49MOL    C9543391   1.515   3.950   4.726 -0.7723 -0.4849  0.4930
   49MOL    C9643392   1.523   4.044   4.621 -0.2623 -0.1293  0.0839
   49MOL    C9743393   1.556   4.000   4.494 -0.0147 -0.3395 -0.3301
   49MOL    S9843394   1.474   4.000   4.898 -0.0940 -0.0855 -0.2335
   49MOL    O9943395   1.446   4.143   4.902 -1.0086  0.2286  0.3426
   49MOL   O10043396   1.578   3.937   4.983  0.2202  0.0210 -0.2654
   49MOL   C10143397   1.316   3.922   4.926  0.4711  0.2069 -0.1176
   49MOL   C10243398   1.308   3.835   5.033 -0.5684  0.0033 -0.0160
   49MOL   C10343399   1.191   3.758   5.053 -0.2518  0.5984  0.4527
   49MOL   C10443400   1.086   3.762   4.966  0.3408 -0.6288  0.0189
   49MOL   C10543401   1.088   3.858   4.864 -1.1288 -0.6278 -0.3315
   49MOL   C10643402   1.202   3.941   4.840 -0.5281 -0.3238  0.2493
   49MOL   O10743403   0.980   3.679   4.979 -0.7271  0.4396  0.2957
   49MOL   C10843404   0.872   3.717   5.052 -0.3818 -0.2027  0.1003
   49MOL   C10943405   0.751   3.663   5.012  0.4009 -0.1824  0.5159
   49MOL   C11043406   0.626   3.686   5.080  0.1419 -0.2616 -1.1214
   49MOL   C11143407   0.631   3.771   5.188  0.1369 -0.6229 -0.9182
   49MOL   C11243408   0.753   3.828   5.231 -0.7417  1.0091  0.3568
   49MOL   C11343409   0.879   3.807   5.161  0.6343  0.1274  0.5456
   49MOL   C11443410   0.510   3.797   5.269 -0.9727 -0.4720 -0.3314
   49MOL   C11543411   0.515   3.839   5.405 -0.2048  0.1799  0.8251
   49MOL   C11643412   0.403   3.880   5.474  0.3821  0.5874 -0.1892
   49MOL   C11743413   0.276   3.871   5.419  1.0457 -0.2893  0.7070
   49MOL   C11843414   0.260   3.815   5.294  0.6162 -0.7358  0.2057
   49MOL   C11943415   0.375   3.774   5.221 -0.6695 -0.4435  0.6625
   49MOL   O12043416   0.158   3.918   5.482  0.6223  0.3155 -0.4452
   49MOL   H12143417   1.563   3.663   4.555 -0.0681 -0.0466  0.8980
   49MOL   H12243418   1.530   3.749   4.785 -0.8807  0.6176  0.5652
   49MOL   H12343419   1.506   4.145   4.657 -0.3060  0.1333 -0.6689
   49MOL   H12443420   1.539   4.064   4.408 -2.6975 -0.7392 -0.1301
   49MOL   H12543421   1.385   3.830   5.110 -1.0438 -1.0302  0.4116
   49MOL   H12643422   1.197   3.693   5.139 -0.5279  0.0952  0.0949
   49MOL   H12743423   1.015   3.877   4.787  2.5679  2.0626 -3.4121
   49MOL   H12843424   1.195   4.003   4.751 -1.0451 -0.5853  0.1073
   49MOL   H12943425   0.753   3.605   4.921 -1.9380  0.3362  0.1025
   49MOL   H13043426   0.534   3.633   5.059  0.7383 -1.5347 -0.5876
   49MOL   H13143427   0.770   3.890   5.317 -1.9658  0.2428  1.1596
   49MOL   H13243428   0.967   3.859   5.197  2.1941 -0.6305 -2.0890
   49MOL   H13343429   0.608   3.836   5.460 -0.1493  0.1324  0.7285
   49MOL   H13443430   0.414   3.910   5.578 -1.4934 -0.9995  0.5045
   49MOL   H13543431   0.163   3.802   5.247  0.9311  2.5978 -1.4999
   49MOL   H13643432   0.375   3.723   5.126  2.1094  0.5837  0.0287
   49MOL   C13743433   0.094   3.823   5.555 -0.1417 -0.5665  0.1624
   49MOL   C13843434   8.336   3.781   5.501  0.2452 -0.2647  0.4141
   49MOL   C13943435   8.265   3.672   5.561  0.8044  0.5069  0.4337
   49MOL   C14043436   8.309   3.620   5.681  0.0437  0.2087  0.4886
   49MOL   C14143437   0.057   3.676   5.741  0.1694  0.4930 -0.4492
   49MOL   C14243438   0.140   3.772   5.675  0.1650  0.1449 -0.0476
   49MOL   S14343439   8.206   3.494   5.759  0.4667  0.7145 -0.2021
   49MOL   O14443440   8.219   3.502   5.903 -0.0109 -0.5809 -0.3818
   49MOL   O14543441   8.246   3.371   5.683  0.0527  0.2768 -0.2991
   49MOL   C14643442   8.036   3.543   5.730 -0.2402  0.2530 -0.9398
   49MOL   C14743443   8.000   3.673   5.759  0.6261 -0.4220 -0.0824
   49MOL   C14843444   7.871   3.717   5.734  0.5715  0.4273  0.2624
   49MOL   C14943445   7.774   3.633   5.682  0.2155 -0.0707  0.2470
   49MOL   C15043446   7.815   3.498   5.646  0.2933 -0.6427  0.5462
   49MOL   C15143447   7.948   3.453   5.666  0.2839  0.1254 -0.1638
   49MOL   O15243448   7.642   3.661   5.682 -0.5066 -0.3659  0.0800
   49MOL   C15343449   7.599   3.762   5.603  0.5957 -0.3734 -0.0407
   49MOL   C15443450   7.560   3.741   5.469 -0.6319 -0.2488  0.4275
   49MOL   C15543451   7.516   3.852   5.387  0.1230 -0.1449 -0.1262
   49MOL   C15643452   7.511   3.981   5.447  0.6937  0.5324 -0.5576
   49MOL   C15743453   7.557   4.001   5.581  0.0299 -0.5593  0.1082
   49MOL   C15843454   7.597   3.890   5.657 -0.0486  0.5147 -0.7989
   49MOL   C15943455   7.464   4.095   5.370 -0.1926 -0.3043 -0.2210
   49MOL   C16043456   7.386   4.186   5.443 -0.4238 -0.7332  0.6606
   49MOL   C16143457   7.349   4.306   5.383 -1.4274  0.0194  0.9777
   49MOL   C16243458   7.380   4.332   5.244  0.2320 -0.1437  0.0362
   49MOL   C16343459   7.446   4.230   5.166  0.4719  0.5905 -0.1668
   49MOL   C16443460   7.496   4.119   5.234 -0.5927  0.6641  0.4225
   49MOL   O16543461   7.341   4.445   5.177 -0.2785  0.6666  0.6888
   49MOL   H16643462   8.300   3.809   5.403 -2.0525  0.9988  1.5808
   49MOL   H16743463   8.176   3.635   5.512  2.5292 -2.4262 -0.5933
   49MOL   H16843464   0.084   3.620   5.830 -1.6288  0.3471  0.0268
   49MOL   H16943465   0.238   3.798   5.712 -1.3719  3.3706  2.0053
   49MOL   H17043466   8.075   3.739   5.798 -0.6228  0.5208  0.7649
   49MOL   H17143467   7.851   3.819   5.764 -1.7648 -0.2465  1.1375
   49MOL   H17243468   7.736   3.432   5.611  0.3612 -0.6736  0.4515
   49MOL   H17343469   7.966   3.347   5.660 -1.0750 -0.1664  0.6924
   49MOL   H17443470   7.557   3.641   5.429  4.6170 -0.6025  0.6788
   49MOL   H17543471   7.491   3.854   5.282  0.2540  0.9185 -0.1507
   49MOL   H17643472   7.546   4.094   5.634 -2.0623 -0.7939  0.1538
   49MOL   H17743473   7.621   3.911   5.761 -1.4901 -0.1463 -0.3271
   49MOL   H17843474   7.361   4.184   5.548 -0.8421 -0.1841  0.5737
   49MOL   H17943475   7.298   4.383   5.439 -2.4363 -0.0656  0.1935
   49MOL   H18043476   7.457   4.249   5.060 -2.2059 -0.6894 -0.7154
   49MOL   H18143477   7.558   4.049   5.181 -2.1834  0.6483 -1.4629
   49MOL   C18243478   7.387   4.564   5.229 -1.0247  0.4851 -0.1299
   49MOL   C18343479   7.526   4.600   5.225  0.2965 -0.4096  0.4244
   49MOL   C18443480   7.567   4.714   5.296 -0.0187 -0.1783 -0.0532
   49MOL   C18543481   7.476   4.789   5.370  0.0178  0.2962  0.1332
   49MOL   C18643482   7.343   4.759   5.370 -0.0172 -0.0304  0.1898
   49MOL   C18743483   7.302   4.640   5.307  0.1746  0.2665  0.0963
   49MOL   S18843484   7.543   4.924   5.473 -0.0612 -0.0541  0.2387
   49MOL   O18943485   7.430   4.988   5.538 -0.6143 -0.0872  0.3963
   49MOL   O19043486   7.635   5.001   5.386 -0.1743  0.5020 -0.1582
   49MOL   C19143487   7.639   4.853   5.606 -0.0855 -0.2962 -0.1212
   49MOL   C19243488   7.605   4.731   5.671 -0.2583  0.1787  0.0415
   49MOL   C19343489   7.657   4.699   5.798  0.7952  0.6971 -0.7655
   49MOL   C19443490   7.748   4.785   5.855 -0.7431  0.7180  0.5104
   49MOL   C19543491   7.793   4.901   5.790 -0.1905  0.3329  0.8988
   49MOL   C19643492   7.741   4.931   5.665  0.9516  0.1412  0.0746
   49MOL   O19743493   7.806   4.745   5.975 -0.1370 -0.2241 -0.6142
   49MOL   C19843494   7.766   4.820   6.082  0.3996  0.0852  0.0984
   49MOL   C19943495   7.809   4.949   6.105 -0.6608 -0.2312  0.0565
   49MOL   C20043496   7.767   5.029   6.212  0.2327 -0.0413 -0.2835
   49MOL   C20143497   7.683   4.967   6.310  0.1026 -0.0927 -0.3374
   49MOL   C20243498   7.634   4.837   6.285 -0.0544 -0.9565  0.1971
   49MOL   C20343499   7.678   4.762   6.174  0.6303 -0.9034  0.3472
   49MOL   C20443500   7.646   5.050   6.428  0.4007 -0.7960  0.8525
   49MOL   C20543501   7.517   5.044   6.489 -0.1240  0.4059  0.6421
   49MOL   C20643502   7.481   5.141   6.586  0.0763 -0.6460 -0.5874
   49MOL   C20743503   7.580   5.220   6.648 -0.3289 -0.3248  0.4547
   49MOL   C20843504   7.713   5.221   6.595 -0.0517  0.3447  0.9086
   49MOL   C20943505   7.740   5.139   6.484 -0.4676  0.4642  0.2576
   49MOL   O21043506   7.545   5.298   6.763 -0.0335  0.3702 -0.5112
   49MOL   H21143507   7.605   4.544   5.178  0.1377 -0.3580  0.0964
   49MOL   H21243508   7.672   4.737   5.301 -0.3379  0.8967  2.6793
   49MOL   H21343509   7.274   4.815   5.431  0.3042  1.0673 -0.4486
   49MOL   H21443510   7.196   4.622   5.319 -0.1742  2.3186  0.1422
   49MOL   H21543511   7.538   4.668   5.614  0.1601  0.4976 -0.8094
   49MOL   H21643512   7.635   4.607   5.850  0.9347  0.8800 -0.3809
   49MOL   H21743513   7.875   4.957   5.832  0.2540 -0.3490  0.9575
   49MOL   H21843514   7.778   5.023   5.622 -2.3029 -0.0526 -3.3563
   49MOL   H21943515   7.879   4.997   6.038 -1.6060  0.5498 -0.3879
   49MOL   H22043516   7.801   5.131   6.224 -0.8018  0.1185  1.3073
   49MOL   H22143517   7.566   4.793   6.355  0.1298 -1.1270  0.2686
   49MOL   H22243518   7.637   4.663   6.157 -0.3124 -0.5341  0.4248
   49MOL   H22343519   7.453   4.962   6.461  0.1022 -0.2363  2.0048
   49MOL   H22443520   7.382   5.126   6.628  1.4333 -0.2123  2.9751
   49MOL   H22543521   7.789   5.283   6.640 -1.5279  2.3625  0.6719
   49MOL   H22643522   7.843   5.133   6.452  0.0845  0.5512  1.9335
   49MOL   C22743523   7.487   5.240   6.871  0.2005 -0.5985 -0.3225
   49MOL   C22843524   7.345   5.232   6.890 -0.3743 -0.0257  0.5412
   49MOL   C22943525   7.288   5.156   6.994  0.5300  0.6302  0.8107
   49MOL   C23043526   7.373   5.097   7.091 -0.0454 -0.4405  0.2708
   49MOL   C23143527   7.517   5.114   7.081 -0.4527 -0.2068  0.0066
   49MOL   C23243528   7.573   5.184   6.971 -0.7250  0.7257 -0.1279
   49MOL   S23343529   7.296   5.012   7.230  0.1378 -0.0348 -0.0634
   49MOL   O23443530   7.213   4.896   7.188  0.5096 -0.4454 -0.1417
   49MOL   O23543531   7.234   5.117   7.317 -0.3562  0.5369 -0.2071
   49MOL   C23643532   7.441   4.954   7.319 -0.3339 -0.0256  0.3095
   49MOL   C23743533   7.497   4.840   7.259  0.1873 -0.1227 -0.0377
   49MOL   C23843534   7.601   4.775   7.327 -0.3386 -0.1186 -0.3068
   49MOL   C23943535   7.666   4.835   7.443  0.6686  0.3547 -0.3897
   49MOL   C24043536   7.602   4.949   7.497  1.3123  0.0759  0.2436
   49MOL   C24143537   7.491   5.008   7.435  0.3364 -0.6952  0.6405
   49MOL   O24243538   7.776   4.774   7.498 -0.3642  0.3286 -0.0873
   49MOL   C24343539   7.899   4.844   7.528 -0.0189  0.1668  0.4946
   49MOL   C24443540   7.993   4.783   7.608 -0.0954 -0.3473 -0.9788
   49MOL   C24543541   8.117   4.844   7.639  0.2331  0.2593 -0.1597
   49MOL   C24643542   8.149   4.972   7.590 -0.2514 -0.1288  0.6034
   49MOL   C24743543   8.067   5.019   7.491 -0.2044 -0.8407 -0.0982
   49MOL   C24843544   7.942   4.963   7.461  0.4031  0.2182  0.1028
   49MOL   C24943545   8.282   5.033   7.609  0.0609 -1.1331  0.2343
   49MOL   C25043546   0.026   4.947   7.621 -0.1432  0.6656 -0.2533
   49MOL   C25143547   0.154   4.992   7.643  0.1507  0.0129 -0.0650
   49MOL   C25243548   0.180   5.129   7.646  0.6455 -0.5212  0.0646
   49MOL   C25343549   0.076   5.220   7.636 -0.6380 -0.1607 -0.0123
   49MOL   C25443550   8.308   5.172   7.613  1.0334  0.4632 -0.5271
   49MOL   O25543551   0.312   5.169   7.656  0.2107 -0.1762 -0.1738
   49MOL   H25643552   7.292   5.272   6.805  0.0572  1.0517  0.7668
   49MOL   H25743553   7.182   5.143   7.013  0.0469  1.3929 -1.3213
   49MOL   H25843554   7.583   5.086   7.162 -2.3873  0.8162  1.9929
   49MOL   H25943555   7.679   5.173   6.959 -1.0120 -3.1108  0.3691
   49MOL   H26043556   7.451   4.793   7.173 -1.9568  0.3871  0.7773
   49MOL   H26143557   7.629   4.685   7.276 -1.7104 -1.1501  0.7350
   49MOL   H26243558   7.645   4.984   7.590 -1.0452 -0.0574  1.4199
   49MOL   H26343559   7.451   5.097   7.481 -1.6768 -0.5918 -1.1964
   49MOL   H26443560   7.967   4.688   7.652  0.4559 -0.1559 -0.2244
   49MOL   H26543561   8.179   4.797   7.714  2.8550  0.9318 -1.8254
   49MOL   H26643562   8.091   5.115   7.446 -1.1059 -0.5444  0.0250
   49MOL   H26743563   7.871   4.999   7.387 -2.3003 -1.5409  1.7452
   49MOL   H26843564   0.009   4.841   7.606  0.9519  0.3082  0.9763
   49MOL   H26943565   0.234   4.920   7.644  1.0989  0.9942 -2.1665
   49MOL   H27043566   0.080   5.326   7.653 -0.5654  0.4152 -3.4017
   49MOL   H27143567   8.230   5.247   7.606 -0.4380 -0.9878  0.0695
   49MOL   C27243568   0.394   5.143   7.555 -0.4758 -0.3223  0.3052
   49MOL   C27343569   0.489   5.044   7.573 -0.0960 -0.1539 -0.3067
   49MOL   C27443570   0.599   5.033   7.481 -0.1186 -0.0087 -0.5300
   49MOL   C27543571   0.590   5.106   7.361  0.0915  0.3719  0.7113
   49MOL   C27643572   0.484   5.196   7.340 -0.2462  0.5451 -0.4756
   49MOL   C27743573   0.384   5.217   7.438  0.7224  0.0185  0.6111
   49MOL   S27843574   0.713   5.093   7.231  0.2027  0.1967 -0.0639
   49MOL   O27943575   0.741   4.950   7.218 -0.4725 -0.1948 -0.3538
   49MOL   O28043576   0.827   5.183   7.264  0.1512  0.0803  0.1205
   49MOL   C28143577   0.633   5.140   7.082  0.0871  0.0978 -0.1317
   49MOL   C28243578   0.527   5.059   7.032 -0.1883  0.1335  0.9585
   49MOL   C28343579   0.459   5.090   6.913  0.2866 -0.2731  0.3906
   49MOL   C28443580   0.500   5.205   6.844  0.2772 -0.4465 -0.0525
   49MOL   C28543581   0.614   5.278   6.886  0.4902  0.7552  0.6233
   49MOL   C28643582   0.675   5.249   7.011  0.7744 -0.1453  0.5841
   49MOL   O28743583   0.446   5.241   6.726  0.2105  0.4192  0.6659
   49MOL   C28843584   0.347   5.340   6.731 -0.4259 -0.4812 -0.4245
   49MOL   C28943585   0.379   5.468   6.689 -0.6801 -0.1628  0.2126
   49MOL   C29043586   0.289   5.574   6.695  0.2179 -0.0683  0.4554
   49MOL   C29143587   0.156   5.552   6.743  0.3352 -0.5225 -0.7090
   49MOL   C29243588   0.118   5.420   6.782  0.0283 -0.9037 -0.1211
   49MOL   C29343589   0.214   5.314   6.767 -0.6705 -0.4522 -0.5453
   49MOL   C29443590   0.060   5.664   6.764 -0.3326  0.7209  0.1747
   49MOL   C29543591   0.049   5.772   6.676  0.1414 -0.2521  0.0208
   49MOL   C29643592   8.326   5.878   6.703 -0.0097  0.1426  0.0546
   49MOL   C29743593   8.268   5.890   6.828  1.0976 -0.9498  0.0812
   49MOL   C29843594   8.296   5.789   6.929 -0.7304 -0.0712 -0.0927
   49MOL   C29943595   0.000   5.673   6.891 -0.1976  0.3140  0.2218
   49MOL   O30043596   8.191   6.002   6.864 -0.2163 -0.2791 -0.3081
   49MOL   H30143597   0.490   4.992   7.667  1.6788 -3.0337 -1.8634
   49MOL   H30243598   0.687   4.972   7.493  0.8359  1.3613 -0.5086
   49MOL   H30343599   0.475   5.251   7.247 -0.5778  0.9452 -0.2066
   49MOL   H30443600   0.303   5.287   7.423  0.6845 -0.6136 -2.4900
   49MOL   H30543601   0.507   4.965   7.081 -0.9236 -1.2294 -1.8286
   49MOL   H30643602   0.378   5.029   6.877  2.0846 -1.3095 -2.0538
   49MOL   H30743603   0.647   5.366   6.833  2.2486 -0.9183 -1.1775
   49MOL   H30843604   0.758   5.306   7.050  0.7204  0.6219 -0.3808
   49MOL   H30943605   0.475   5.498   6.649 -2.0264  0.6082 -2.6073
   49MOL   H31043606   0.325   5.670   6.662  2.8283 -1.0042  0.4762
   49MOL   H31143607   0.019   5.408   6.825 -0.1169 -0.7001 -0.3941
   49MOL   H31243608   0.191   5.210   6.783  0.7774 -0.5312  1.2102
   49MOL   H31343609   0.095   5.768   6.579  1.9377 -0.5134  0.8642
   49MOL   H31443610   8.308   5.941   6.616 -1.3155  1.0648  0.9804
   49MOL   H31543611   8.265   5.811   7.029  0.0282 -0.2751  0.1919
   49MOL   H31643612   0.037   5.604   6.966  1.6063  0.2964 -0.6352
   49MOL   C31743613   8.063   5.985   6.920  0.3214  0.0170 -0.2256
   49MOL   C31843614   7.962   5.929   6.839 -0.1893  1.2527 -0.1721
   49MOL   C31943615   7.832   5.909   6.893  0.5877 -0.3186 -0.2680
   49MOL   C32043616   7.812   5.953   7.023 -0.2866  0.3310 -0.0220
   49MOL   C32143617   7.913   6.007   7.105 -0.0074  0.5187  0.0334
   49MOL   C32243618   8.039   6.028   7.048 -0.0824 -0.5190 -0.5363
   49MOL   S32343619   7.655   5.933   7.092  0.0579  0.2551 -0.2019
   49MOL   O32443620   7.661   5.963   7.235  0.1328  0.2763  0.2402
   49MOL   O32543621   7.598   5.805   7.053 -0.2707  0.4302  0.8439
   49MOL   C32643622   7.548   6.059   7.028 -0.3757 -0.3808 -0.0680
   49MOL   C32743623   7.415   6.063   7.078 -0.4078 -0.1341 -0.1300
   49MOL   C32843624   7.321   6.146   7.021 -0.1577  0.4879  0.2623
   49MOL   C32943625   7.356   6.225   6.910 -0.5478 -0.3691  0.1247
   49MOL   C33043626   7.492   6.232   6.866 -0.2349  0.2250 -0.2173
   49MOL   C33143627   7.588   6.148   6.924 -0.1093  0.3712  0.4020
   49MOL   O33243628   7.264   6.302   6.845 -0.1503  0.4534  0.1423
   49MOL   C33343629   7.248   6.433   6.872  0.6065 -0.5469  0.0728
   49MOL   C33443630   7.128   6.493   6.840  0.4205  0.3575  0.3757
   49MOL   C33543631   7.095   6.630   6.857 -0.8126 -0.6032 -0.3642
   49MOL   C33643632   7.204   6.713   6.895  0.7212 -0.0677  0.6568
   49MOL   C33743633   7.328   6.653   6.932  0.6492 -0.4607 -0.4585
   49MOL   C33843634   7.349   6.514   6.923  0.5655  0.5047  0.2735
   49MOL   C33943635   7.185   6.863   6.902  0.4349 -0.2412 -0.4187
   49MOL   C34043636   7.253   6.943   6.805 -0.2581 -0.1424 -0.1794
   49MOL   C34143637   7.230   7.077   6.791 -0.5774  0.4895  0.3566
   49MOL   C34243638   7.138   7.135   6.883 -0.0708  0.8689  0.0496
   49MOL   C34343639   7.060   7.062   6.979  0.1454 -0.1306 -0.3214
   49MOL   C34443640   7.086   6.921   6.979 -0.3729  0.6001 -0.6372
   49MOL   O34543641   7.108   7.273   6.869 -0.5520  0.3365 -0.2885
   49MOL   H34643642   7.991   5.881   6.747  2.4593 -1.4768  1.9929
   49MOL   H34743643   7.752   5.861   6.839 -0.1057  0.3354  0.1845
   49MOL   H34843644   7.888   6.044   7.203 -1.3021  2.7203 -1.0792
   49MOL   H34943645   8.110   6.079   7.111 -0.5245  1.0973 -1.3142
   49MOL   H35043646   7.379   5.999   7.157 -0.2120  0.2105  0.2472
   49MOL   H35143647   7.217   6.134   7.047 -0.7333  1.6567 -1.3567
   49MOL   H35243648   7.516   6.302   6.787 -0.1868  0.4914  0.0358
   49MOL   H35343649   7.685   6.147   6.877  0.4805  0.7059  1.5820
   49MOL   H35443650   7.052   6.422   6.812 -1.0627  2.0067  0.1567
   49MOL   H35543651   7.000   6.669   6.825 -0.6657 -0.2917 -0.4244
   49MOL   H35643652   7.406   6.713   6.976 -0.2240  1.0538 -0.9271
   49MOL   H35743653   7.441   6.475   6.964 -0.4090 -1.9079  0.2176
   49MOL   H35843654   7.324   6.894   6.740  0.2375  0.3446 -0.0078
   49MOL   H35943655   7.277   7.137   6.715  2.1630 -1.6890  0.2521
   49MOL   H36043656   6.974   7.106   7.027  0.3834  0.1649 -0.1617
   49MOL   H36143657   7.019   6.869   7.045 -0.8155 -0.1177 -1.6619
   49MOL   C36243658   7.080   7.338   6.984 -0.2044  0.1363  0.2746
   49MOL   C36343659   6.967   7.424   6.994 -0.4674  0.3587 -0.4852
   49MOL   C36443660   6.938   7.495   7.109  0.4521  0.1594  0.1362
   49MOL   C36543661   7.025   7.482   7.216  0.0474  0.4625  0.1848
   49MOL   C36643662   7.146   7.406   7.205  0.1082  0.5350 -0.1731
   49MOL   C36743663   7.172   7.335   7.090 -0.2676  0.2566 -0.7624
   49MOL   S36843664   6.981   7.564   7.364  0.1548  0.4755 -0.0051
   49MOL   O36943665   6.947   7.700   7.341 -0.1627  0.2724 -0.7132
   49MOL   O37043666   7.094   7.536   7.457  0.0400 -0.0106  0.7620
   49MOL   C37143667   6.843   7.478   7.429  0.4775 -0.7312 -0.4584
   49MOL   C37243668   6.811   7.348   7.390  0.3134  0.0989 -0.0483
   49MOL   C37343669   6.700   7.290   7.448 -0.4701  0.2105  0.6793
   49MOL   C37443670   6.620   7.347   7.545 -0.8712  0.3302  0.5310
   49MOL   C37543671   6.648   7.479   7.583  0.2422  0.3934  0.1437
   49MOL   C37643672   6.756   7.546   7.524  0.6834 -0.3973  1.0947
   49MOL   O37743673   6.520   7.273   7.605  0.1083  0.1590 -0.7670
   49MOL   C37843674   6.437   7.199   7.522  0.1560 -0.2896  0.7396
   49MOL   C37943675   6.338   7.267   7.446  0.1044  0.5470 -0.0012
   49MOL   C38043676   6.250   7.197   7.361 -0.3239 -0.1416  0.0174
   49MOL   C38143677   6.253   7.056   7.350 -0.0207 -0.3390  0.1957
   49MOL   C38243678   6.355   6.993   7.414 -0.8111  0.4199 -0.6495
   49MOL   C38343679   6.440   7.057   7.505 -0.0667 -0.1569  0.5038
   49MOL   C38443680   6.148   6.989   7.269 -0.5622 -0.4649  0.4223
   49MOL   C38543681   6.134   7.004   7.132  0.0964  0.2111  0.7343
   49MOL   C38643682   6.042   6.934   7.050 -0.3935  0.1977  0.0371
   49MOL   C38743683   5.960   6.833   7.114 -0.2096 -0.4657  1.0402
   49MOL   C38843684   5.970   6.814   7.255 -0.0161 -0.0853 -0.2210
   49MOL   C38943685   6.065   6.895   7.331 -0.5589  0.0149 -0.8897
   49MOL   O39043686   5.879   6.751   7.033 -0.0706  0.0818  0.0691
   49MOL   H39143687   6.893   7.427   6.915 -0.7374 -0.6513 -0.2819
   49MOL   H39243688   6.854   7.559   7.130  0.8337  0.8621 -0.4467
   49MOL   H39343689   7.218   7.409   7.286  1.1591 -1.6653 -0.9844
   49MOL   H39443690   7.256   7.268   7.091 -0.6788 -0.2740  1.6497
   49MOL   H39543691   6.882   7.298   7.327  1.4276  1.9538 -0.3104
   49MOL   H39643692   6.683   7.187   7.419 -1.2517  0.4236  0.3576
   49MOL   H39743693   6.584   7.537   7.648 -0.3696  0.4181 -0.4688
   49MOL   H39843694   6.784   7.649   7.542  1.1925 -0.1406 -1.0342
   49MOL   H39943695   6.344   7.374   7.463  0.6627  0.2856  1.5656
   49MOL   H40043696   6.174   7.254   7.310 -1.6246 -0.1506  1.8644
   49MOL   H40143697   6.364   6.885   7.408  0.0187  0.2963  2.2561
   49MOL   H40243698   6.511   6.997   7.560 -0.3988  2.3701  3.8209
   49MOL   H40343699   6.204   7.073   7.086 -1.3723  1.2405 -0.0028
   49MOL   H40443700   6.040   6.930   6.943 -1.9992  0.1388  0.0556
   49MOL   H40543701   5.925   6.725   7.296  1.2003 -0.2968  0.6804
   49MOL   H40643702   6.070   6.885   7.438  1.4824 -2.2065 -1.1493
   49MOL   C40743703   5.925   6.641   6.974  0.1610  0.3134  0.9220
   49MOL   C40843704   6.054   6.628   6.915  0.1513  0.1002 -0.9123
   49MOL   C40943705   6.095   6.509   6.852 -0.8891  0.2092 -0.6593
   49MOL   C41043706   6.013   6.394   6.860 -0.1370  0.6044  0.2470
   49MOL   C41143707   5.884   6.410   6.905  0.4241 -0.1068  0.0332
   49MOL   C41243708   5.836   6.532   6.958  0.0088 -0.1324 -0.8357
   49MOL   S41343709   6.070   6.232   6.811  0.3273  0.2447  0.0603
   49MOL   O41443710   6.074   6.224   6.661 -0.0934 -0.2613 -0.0226
   49MOL   O41543711   5.987   6.129   6.882 -0.5054  0.0397 -0.3790
   49MOL   C41643712   6.234   6.230   6.876 -0.0310 -1.1985  0.4565
   49MOL   C41743713   6.330   6.156   6.800  0.2462 -1.0429  0.2748
   49MOL   C41843714   6.466   6.165   6.838  0.3288  0.3008 -0.2332
   49MOL   C41943715   6.505   6.233   6.962 -0.6591 -0.6778  0.1301
   49MOL   C42043716   6.409   6.294   7.042  0.0711 -0.1001  0.6915
   49MOL   C42143717   6.276   6.287   7.003  0.0450 -0.4829  0.7464
   49MOL   O42243718   6.640   6.233   6.984 -0.0290 -0.1600 -0.3614
   49MOL   C42343719   6.709   6.118   6.989 -0.0811  0.0718  0.5203
   49MOL   C42443720   6.847   6.130   6.949  0.1290  0.4866 -0.5842
   49MOL   C42543721   6.931   6.017   6.962  0.0602  0.0616 -0.6485
   49MOL   C42643722   6.886   5.897   7.014 -0.0081 -0.1424  0.2268
   49MOL   C42743723   6.751   5.890   7.052  0.6895  0.2310 -0.2522
   49MOL   C42843724   6.663   5.995   7.045 -0.0867 -0.0160  0.2631
   49MOL   C42943725   6.975   5.779   7.034  0.2707 -0.8084 -0.3929
   49MOL   C43043726   6.930   5.653   6.991 -0.0858 -0.0762  0.0856
   49MOL   C43143727   7.000   5.539   7.027  0.3359 -0.3152 -0.7054
   49MOL   C43243728   7.125   5.549   7.085 -0.1802 -0.9885 -0.0640
   49MOL   C43343729   7.173   5.673   7.130  0.0519 -0.5548  0.5990
   49MOL   C43443730   7.095   5.790   7.105  0.0186  0.2185 -0.1402
   49MOL   O43543731   7.192   5.428   7.112  0.1079 -0.0361 -0.0612
   49MOL   H43643732   6.123   6.708   6.937 -0.7786  1.1572 -1.7962
   49MOL   H43743733   6.194   6.498   6.810 -1.0306  0.1912 -0.9922
   49MOL   H43843734   5.810   6.331   6.901  1.0726 -0.7901  1.2472
   49MOL   H43943735   5.733   6.542   6.989 -0.1311 -0.2957 -1.2463
   49MOL   H44043736   6.299   6.109   6.708  3.2143 -2.3227 -0.1250
   49MOL   H44143737   6.547   6.119   6.784  1.6434  0.5518  1.4975
   49MOL   H44243738   6.449   6.345   7.129 -0.4421 -3.3284  2.9177
   49MOL   H44343739   6.202   6.331   7.069 -1.2324  1.0765 -1.6619
   49MOL   H44443740   6.892   6.219   6.909 -0.3444  1.3246  0.7057
   49MOL   H44543741   7.036   6.021   6.934 -0.0036  1.3433 -0.7205
   49MOL   H44643742   6.715   5.798   7.097  1.1107 -0.1285 -0.6468
   49MOL   H44743743   6.560   5.980   7.072  0.3088 -2.1446  0.6281
   49MOL   H44843744   6.837   5.640   6.937  1.0872 -0.4360 -1.9184
   49MOL   H44943745   6.956   5.442   7.012  2.3340 -1.0996 -1.7210
   49MOL   H45043746   7.260   5.682   7.194 -1.5652  1.7346  2.5642
   49MOL   H45143747   7.131   5.882   7.150  2.8489 -1.1393  0.4941
   49MOL   C45243748   7.281   5.424   7.210 -0.2732 -0.4909 -1.0318
   49MOL   C45343749   7.418   5.451   7.184 -0.4448  0.2325  0.7714
   49MOL   C45443750   7.517   5.446   7.283 -0.0780 -1.6290 -0.1468
   49MOL   C45543751   7.481   5.427   7.415 -0.2266  1.4864  0.3705
   49MOL   C45643752   7.349   5.400   7.452  1.0752  0.0442 -0.3062
   49MOL   C45743753   7.251   5.399   7.351  0.2898 -0.6038  0.7857
   49MOL   S45843754   7.614   5.405   7.529 -0.4904 -0.0143 -0.2657
   49MOL   O45943755   7.730   5.344   7.461  0.2953  0.2159 -0.3929
   49MOL   O46043756   7.555   5.335   7.644 -0.1277  0.4177  0.1194
   49MOL   C46143757   7.660   5.563   7.589  0.1701 -0.4173  0.0263
   49MOL   C46243758   7.688   5.579   7.732 -0.3518 -0.0301  0.2692
   49MOL   C46343759   7.725   5.713   7.772 -0.0863  0.3737  0.1351
   49MOL   C46443760   7.746   5.816   7.682  0.3775  0.8861 -0.1917
   49MOL   C46543761   7.728   5.795   7.541 -0.3122 -0.6656 -0.1877
   49MOL   C46643762   7.694   5.666   7.497  0.6723 -0.1454 -0.0367
   49MOL   O46743763   7.812   5.930   7.725  0.5273  0.7416  0.3410
   49MOL   C46843764   7.732   6.018   7.787  0.0579  0.1298  0.0006
   49MOL   C46943765   7.741   6.040   7.924  0.0170 -0.1815  0.0644
   49MOL   C47043766   7.681   6.156   7.981 -0.5252  0.3029  0.5946
   49MOL   C47143767   7.603   6.242   7.909  0.1003  0.3813  0.2271
   49MOL   C47243768   7.586   6.213   7.770 -0.0321 -0.4027  0.3058
   49MOL   C47343769   7.650   6.102   7.710 -0.6195  0.5053 -0.6296
   49MOL   C47443770   7.541   6.359   7.973 -1.1641 -0.1424 -0.2411
   49MOL   C47543771   7.603   6.416   8.084  0.1071  0.0405  0.3535
   49MOL   C47643772   7.546   6.517   8.157  0.3973  0.3783  0.1136
   49MOL   C47743773   7.423   6.571   8.114  0.2648 -0.7981  0.3062
   49MOL   C47843774   7.359   6.523   7.987 -0.1272  0.5898 -0.0321
   49MOL   C47943775   7.422   6.415   7.922  0.0619  0.2811 -0.4848
   49MOL   O48043776   7.367   6.677   8.179  0.1506  0.4991 -0.0583
   49MOL   H48143777   7.451   5.473   7.083  0.0273 -0.4578  0.7771
   49MOL   H48243778   7.619   5.450   7.248 -0.8356  0.4070 -2.2489
   49MOL   H48343779   7.323   5.374   7.554  0.0313 -0.8347 -0.7835
   49MOL   H48443780   7.152   5.365   7.379 -0.9877  1.4050 -1.0837
   49MOL   H48543781   7.661   5.502   7.803 -0.4970  0.0328  0.2826
   49MOL   H48643782   7.743   5.745   7.873 -0.1251 -2.7244  1.1744
   49MOL   H48743783   7.749   5.875   7.471  1.7426 -1.3501 -0.3679
   49MOL   H48843784   7.696   5.649   7.390 -1.1492 -1.1263  0.0588
   49MOL   H48943785   7.801   5.973   7.984 -2.7201 -2.7515  0.0041
   49MOL   H49043786   7.684   6.173   8.088 -3.4457 -0.8135  0.9265
   49MOL   H49143787   7.525   6.278   7.709  0.1746  0.4163  0.9669
   49MOL   H49243788   7.630   6.086   7.605  0.5738  1.0883 -0.9498
   49MOL   H49343789   7.703   6.389   8.117  0.3201 -0.8405 -0.9604
   49MOL   H49443790   7.607   6.561   8.235  0.7049  0.9694 -0.4546
   49MOL   H49543791   7.260   6.554   7.957 -0.1708  0.6127  0.1334
   49MOL   H49643792   7.371   6.368   7.839 -0.7206 -2.7630  1.6124
   49MOL   C49743793   7.390   6.801   8.121  0.4447 -0.6489  0.2538
   49MOL   C49843794   7.428   6.905   8.209 -0.3588 -0.3410 -0.7020
   49MOL   C49943795   7.448   7.041   8.170 -0.4578 -0.1543  0.3998
   49MOL   C50043796   7.434   7.070   8.032 -0.8449 -0.7374  0.0702
   49MOL   C50143797   7.390   6.969   7.943  0.6762 -0.6345 -0.2244
   49MOL   C50243798   7.365   6.832   7.986  0.4385 -0.9367 -0.3825
   49MOL   S50343799   7.490   7.228   7.974 -0.3854  0.0613  0.2592
   49MOL   O50443800   7.627   7.242   8.028  0.5180  0.4001 -0.7715
   49MOL   O50543801   7.394   7.332   8.017 -0.1492 -0.0049 -0.1463
   49MOL   C50643802   7.494   7.216   7.798 -0.1969  0.3157  0.1713
   49MOL   C50743803   7.424   7.312   7.728 -0.1116 -0.7586  0.4862
   49MOL   C50843804   7.438   7.309   7.586  0.1813 -0.9504  0.5937
   49MOL   C50943805   7.519   7.215   7.515  0.7732 -0.4367 -0.7926
   49MOL   C51043806   7.588   7.121   7.591  0.0307 -0.3890 -0.0444
   49MOL   C51143807   7.575   7.124   7.732 -0.8375  0.9317  0.7386
   49MOL   O51243808   7.547   7.230   7.383 -0.1663  0.1972  0.4109
   49MOL   C51343809   7.566   7.352   7.321  0.5720 -0.0959  1.2234
   49MOL   C51443810   7.648   7.451   7.377  0.0002  0.3556 -0.0999
   49MOL   C51543811   7.683   7.566   7.303 -0.3572 -0.6345 -0.3910
   49MOL   C51643812   7.620   7.599   7.179 -0.0864 -0.0466  0.1928
   49MOL   C51743813   7.538   7.504   7.121  1.3021  0.0806 -0.2116
   49MOL   C51843814   7.515   7.380   7.191  0.2487 -0.1733 -0.3799
   49MOL   C51943815   7.631   7.728   7.106 -0.8376  0.4457 -0.1772
   49MOL   C52043816   7.754   7.764   7.063 -0.0901 -0.7020  0.6966
   49MOL   C52143817   7.775   7.877   6.987  0.4278  0.0076  0.2191
   49MOL   C52243818   7.666   7.957   6.955 -0.0009 -0.0014 -0.7175
   49MOL   C52343819   7.536   7.919   6.995  0.1971  0.7191 -0.0554
   49MOL   C52443820   7.517   7.804   7.070  0.3258  0.3807  0.0889
   49MOL   O52543821   7.683   8.076   6.885  0.0722  0.8576  0.8409
   49MOL   H52643822   7.443   6.883   8.314 -2.9213 -0.7573 -0.4152
   49MOL   H52743823   7.491   7.112   8.238 -3.0966  2.5648 -0.6559
   49MOL   H52843824   7.385   6.986   7.837  0.5832 -2.5793 -0.5616
   49MOL   H52943825   7.344   6.759   7.910 -0.1838  0.9273 -2.0550
   49MOL   H53043826   7.377   7.390   7.786 -1.1225 -0.6745 -0.4301
   49MOL   H53143827   7.391   7.385   7.526  1.3013  0.4505  1.4681
   49MOL   H53243828   7.663   7.056   7.547  0.1659 -1.2009  1.3736
   49MOL   H53343829   7.632   7.052   7.788 -2.8677 -1.3356 -0.0046
   49MOL   H53443830   7.680   7.448   7.480 -0.8671  0.0411  0.1652
   49MOL   H53543831   7.732   7.653   7.342  1.8802 -0.8693 -2.5589
   49MOL   H53643832   7.484   7.525   7.030 -0.3683  0.2179  0.7844
   49MOL   H53743833   7.462   7.297   7.146  1.2294 -1.5314  0.9352
   49MOL   H53843834   7.836   7.695   7.076 -2.2324 -3.4101  0.4819
   49MOL   H53943835   7.878   7.898   6.962  0.9399 -2.0373  0.5342
   49MOL   H54043836   7.456   7.988   6.972  1.8319  2.3795 -0.9492
   49MOL   H54143837   7.421   7.774   7.108 -0.9424  1.7010 -1.9655
   49MOL   C54243838   7.666   8.073   6.749  0.7407 -0.8279  0.3088
   49MOL   C54343839   7.679   7.952   6.666  0.0694 -0.6624 -0.3746
   49MOL   C54443840   7.665   7.967   6.528 -0.1762 -0.0807  0.0139
   49MOL   C54543841   7.618   8.088   6.471 -0.0656  0.2093 -0.7136
   49MOL   C54643842   7.612   8.204   6.547  1.0587  0.3450 -0.5883
   49MOL   C54743843   7.637   8.196   6.685  0.5248  0.3819  0.1331
   49MOL   S54843844   7.614   8.101   6.293 -0.6249 -0.4757 -0.0537
   49MOL   O54943845   7.695   8.002   6.227 -0.3919 -0.8295  0.5270
   49MOL   O55043846   7.635   8.242   6.260  0.1030 -0.3304 -0.1755
   49MOL   C55143847   7.443   8.068   6.255  0.0081 -0.6060 -0.4505
   49MOL   C55243848   7.340   8.157   6.280  0.4213  0.6691 -0.2429
   49MOL   C55343849   7.205   8.120   6.254  0.2837 -0.0501  0.5509
   49MOL   C55443850   7.177   7.996   6.207 -0.7392  0.1716 -0.0743
   49MOL   C55543851   7.286   7.905   6.184  0.2288  0.3021  0.5286
   49MOL   C55643852   7.416   7.944   6.201 -0.1949 -0.5629  0.3176
   49MOL   O55743853   7.046   7.977   6.182  0.3366 -0.2174  0.1736
   49MOL   C55843854   6.987   7.878   6.253  0.6579  0.2643 -0.1277
   49MOL   C55943855   6.930   7.904   6.374 -0.0262 -0.2348  0.4152
   49MOL   C56043856   6.876   7.796   6.452 -0.0183  0.0659  0.0319
   49MOL   C56143857   6.855   7.670   6.401 -0.7779  0.6703  0.2201
   49MOL   C56243858   6.917   7.647   6.274 -0.3419  0.1568 -0.0349
   49MOL   C56343859   6.987   7.746   6.206  0.8821  0.3874  0.0321
   49MOL   C56443860   6.781   7.552   6.457  0.0672 -0.3309 -0.0040
   49MOL   C56543861   6.843   7.427   6.463 -0.7517 -0.1309  0.1034
   49MOL   C56643862   6.788   7.309   6.516  0.6935  0.3728  0.2087
   49MOL   C56743863   6.648   7.314   6.546 -1.0567  0.0971 -0.2440
   49MOL   C56843864   6.577   7.437   6.542 -0.3658 -0.2043 -0.5941
   49MOL   C56943865   6.645   7.554   6.499 -0.8900 -0.5759 -0.3845
   49MOL   O57043866   6.585   7.203   6.585 -0.0666  0.3660 -0.2132
   49MOL   H57143867   7.711   7.860   6.712  0.0968 -0.9021 -0.8708
   49MOL   H57243868   7.690   7.880   6.468  0.0786 -0.3284  0.4734
   49MOL   H57343869   7.595   8.301   6.502 -2.5687 -0.2321 -0.5938
   49MOL   H57443870   7.633   8.285   6.745  0.5585  1.4218 -1.3753
   49MOL   H57543871   7.365   8.260   6.302 -1.5349  1.0046  0.4811
   49MOL   H57643872   7.119   8.182   6.274 -1.1617 -2.1137  0.8276
   49MOL   H57743873   7.264   7.806   6.147 -1.6045  0.5190  0.9626
   49MOL   H57843874   7.499   7.877   6.185 -1.5500 -2.4534  0.9674
   49MOL   H57943875   6.941   8.001   6.422  1.8141  0.2117 -0.8851
   49MOL   H58043876   6.832   7.817   6.549  2.9023  2.0933  0.9866
   49MOL   H58143877   6.921   7.546   6.236 -0.1789  0.2513 -0.2751
   49MOL   H58243878   7.030   7.736   6.107  1.5714  2.8563  0.0525
   49MOL   H58343879   6.950   7.419   6.457 -0.7702  0.2907 -0.9548
   49MOL   H58443880   6.841   7.215   6.511  3.2762  1.8434 -1.1189
   49MOL   H58543881   6.473   7.446   6.569  0.1192 -1.0542  1.6601
   49MOL   H58643882   6.585   7.643   6.488  0.1652  0.5337  2.2170
   49MOL   C58743883   6.587   7.103   6.495 -0.3186  0.1923 -0.2068
   49MOL   C58843884   6.523   7.111   6.370 -0.2067 -0.8211  0.3172
   49MOL   C58943885   6.543   7.003   6.276 -0.4416 -0.2642  0.0216
   49MOL   C59043886   6.632   6.897   6.308  0.4828 -0.4558  0.0621
   49MOL   C59143887   6.699   6.897   6.428  0.7360 -0.3906  0.1611
   49MOL   C59243888   6.671   6.998   6.527  0.2213 -0.2290 -0.3812
   49MOL   S59343889   6.667   6.759   6.195  0.0236  0.4978 -0.3703
   49MOL   O59443890   6.542   6.727   6.122  0.6405  0.2674 -0.1523
   49MOL   O59543891   6.721   6.649   6.278 -0.3201  0.2679  0.0270
   49MOL   C59643892   6.794   6.813   6.083  0.6770  0.2868 -0.2653
   49MOL   C59743893   6.873   6.718   6.010  0.1387 -0.0395  0.0506
   49MOL   C59843894   6.975   6.766   5.925 -0.2793  0.8183 -0.3263
   49MOL   C59943895   6.997   6.902   5.907 -1.0143 -0.0679 -0.1018
   49MOL   C60043896   6.919   6.989   5.985  0.2033  0.3397  0.0859
   49MOL   C60143897   6.807   6.949   6.061 -0.0742 -0.0015  0.0540
   49MOL   O60243898   7.099   6.952   5.827 -0.2986  0.0489  0.5635
   49MOL   C60343899   7.225   6.963   5.867 -0.8205  0.1616  0.0192
   49MOL   C60443900   7.271   7.090   5.904 -0.5883  0.0580  0.3596
   49MOL   C60543901   7.402   7.109   5.949  0.3644  0.1906 -0.1736
   49MOL   C60643902   7.482   6.994   5.967 -0.7568 -0.4400 -0.3530
   49MOL   C60743903   7.429   6.868   5.934 -0.4576  0.1522 -0.2813
   49MOL   C60843904   7.307   6.853   5.884  0.2856 -0.1653  0.0764
   49MOL   C60943905   7.616   7.013   6.000 -0.1821 -0.4756 -0.2601
   49MOL   C61043906   7.714   6.961   5.914  0.4222  0.0989  0.2247
   49MOL   C61143907   7.851   6.975   5.932  0.5963  0.2175  0.0354
   49MOL   C61243908   7.891   7.054   6.042 -0.0187  0.2974  0.8984
   49MOL   C61343909   7.798   7.117   6.124  0.5053  0.1142 -0.2846
   49MOL   C61443910   7.662   7.100   6.108  0.4447 -0.0434 -0.9268
   49MOL   O61543911   8.027   7.070   6.062 -0.8220 -0.9782 -0.6931
   49MOL   H61643912   6.451   7.188   6.348 -0.0067 -0.3117  1.4452
   49MOL   H61743913   6.485   7.015   6.186  0.2762  0.8534 -0.3093
   49MOL   H61843914   6.768   6.816   6.444 -1.2883 -1.6783  2.8030
   49MOL   H61943915   6.710   7.004   6.627  0.0034 -0.7739 -0.2616
   49MOL   H62043916   6.851   6.614   6.030  0.0317 -0.7877 -3.5625
   49MOL   H62143917   7.038   6.692   5.876  0.7704  0.7561  1.0816
   49MOL   H62243918   6.932   7.092   5.955  0.5305  0.2676 -0.0228
   49MOL   H62343919   6.748   7.024   6.112  2.1620  0.9564  1.2559
   49MOL   H62443920   7.210   7.175   5.880 -1.5729 -0.6000  0.4784
   49MOL   H62543921   7.441   7.208   5.964 -0.3908  0.3200  0.9818
   49MOL   H62643922   7.497   6.784   5.936 -1.1317 -0.4669 -2.4257
   49MOL   H62743923   7.274   6.755   5.855 -0.3156  0.0422  0.0538
   49MOL   H62843924   7.683   6.908   5.825 -0.5764  0.4639  0.3497
   49MOL   H62943925   7.923   6.934   5.864  0.4226  0.3604 -0.2358
   49MOL   H63043926   7.826   7.175   6.211  3.3018 -0.9234 -0.4595
   49MOL   H63143927   7.578   7.139   6.164 -0.3012  0.4331 -2.3396
   49MOL   C63243928   8.079   7.161   6.157  0.1198 -0.2579  0.1709
   49MOL   C63343929   8.096   7.294   6.121 -0.3897 -0.1945 -0.0412
   49MOL   C63443930   8.153   7.376   6.218  0.0008  0.6429  0.3470
   49MOL   C63543931   8.203   7.329   6.341  0.1823 -0.1736 -0.5798
   49MOL   C63643932   8.166   7.198   6.384  0.5133  0.4843 -0.2751
   49MOL   C63743933   8.103   7.113   6.289  0.3376 -0.0765  0.3425
   49MOL   S63843934   8.290   7.436   6.463  0.0278  0.4100 -0.0281
   49MOL   O63943935   0.060   7.457   6.417  0.1594 -0.9700  0.2157
   49MOL   O64043936   8.262   7.385   6.595 -0.0503 -0.0542 -0.0432
   49MOL   C64143937   8.209   7.590   6.448  0.1328  0.0856 -0.2360
   49MOL   C64243938   8.256   7.688   6.359  0.3701 -0.0056 -0.6583
   49MOL   C64343939   8.196   7.817   6.354  0.2108 -0.9022 -0.1875
   49MOL   C64443940   8.102   7.850   6.450 -0.6970  0.4544  0.1665
   49MOL   C64543941   8.061   7.750   6.544  0.4739  0.9646 -0.5796
   49MOL   C64643942   8.112   7.624   6.541 -0.1049 -0.0141 -0.3590
   49MOL   O64743943   8.043   7.971   6.462  0.0068  0.6008  0.7264
   49MOL   C64843944   8.118   8.073   6.532  0.0499  0.1068 -0.1498
   49MOL   C64943945   8.240   8.128   6.482  0.8133 -0.8933 -0.0150
   49MOL   C65043946   8.303   8.237   6.547 -0.9537 -0.3860 -1.0128
   49MOL   C65143947   8.252   8.289   6.669 -1.0340 -0.0791 -0.0379
   49MOL   C65243948   8.125   8.234   6.715 -0.0146 -0.4895  0.0101
   49MOL   C65343949   8.067   8.127   6.651  0.0966 -0.5222 -0.0919
   49MOL   C65443950   8.314   0.037   6.734 -0.5915  0.2421  0.0626
   49MOL   C65543951   0.006   0.145   6.672 -0.1055  0.3200  0.3886
   49MOL   C65643952   0.076   0.242   6.740 -0.0060  0.7904 -1.0361
   49MOL   C65743953   0.089   0.232   6.879 -0.0842  0.1441 -0.6773
   49MOL   C65843954   0.027   0.129   6.952  1.2467 -0.0141  0.1168
   49MOL   C65943955   8.318   0.033   6.874  0.6372  0.7850  0.0496
   49MOL   O66043956   0.154   0.331   6.951  0.2208 -0.3918 -0.5613
   49MOL   H66143957   8.075   7.328   6.021  3.1101 -0.5249 -0.9282
   49MOL   H66243958   8.176   7.478   6.194  0.1303  0.2594 -1.1986
   49MOL   H66343959   8.194   7.162   6.482  1.9421  0.4875 -0.6851
   49MOL   H66443960   8.090   7.008   6.311  2.8607 -0.3740  0.5516
   49MOL   H66543961   8.336   7.661   6.291  0.8676  0.3103 -0.2045
   49MOL   H66643962   8.223   7.893   6.283 -2.3793 -1.1285 -1.4878
   49MOL   H66743963   7.984   7.777   6.615  0.1854  0.6157 -0.7564
   49MOL   H66843964   8.091   7.547   6.613  0.5846  0.5737  0.4815
   49MOL   H66943965   8.295   8.084   6.400  2.0058  1.2060 -0.3754
   49MOL   H67043966   0.032   8.272   6.509 -0.7783 -1.0678 -1.2010
   49MOL   H67143967   8.068   8.257   6.803 -1.4671 -0.0173 -1.0484
   49MOL   H67243968   7.972   8.095   6.691  0.8441 -0.0457  2.1463
   49MOL   H67343969   0.015   0.160   6.566 -0.0135  0.8926  0.4772
   49MOL   H67443970   0.127   0.316   6.680 -0.8349  0.7075 -1.8535
   49MOL   H67543971   0.036   0.115   7.059  3.5966 -0.1641 -0.0728
   49MOL   H67643972   8.281   8.313   6.927  0.8430  2.0333  2.2916
   49MOL   C67743973   0.212   0.304   7.074 -0.7770 -0.2224  0.0252
   49MOL   C67843974   0.165   0.374   7.190 -0.1945  0.0364 -0.3195
   49MOL   C67943975   0.215   0.345   7.320 -1.8848 -0.3936 -0.1041
   49MOL   C68043976   0.320   0.249   7.335  0.4763  0.7194 -0.5311
   49MOL   C68143977   0.373   0.179   7.220 -0.4203 -0.2391 -0.2131
   49MOL   C68243978   0.314   0.203   7.091 -0.1569  0.5205  0.6337
   49MOL   S68343979   0.378   0.209   7.502 -0.2858  0.3665  0.3345
   49MOL   O68443980   0.319   0.309   7.591  0.5044 -0.0560 -0.6659
   49MOL   O68543981   0.527   0.200   7.499 -0.0938 -0.0339  0.1334
   49MOL   C68643982   0.311   0.052   7.549  0.4453 -0.2189 -0.5347
   49MOL   C68743983   0.385   8.340   7.641 -0.4977  1.1900  0.2329
   49MOL   C68843984   0.336   8.214   7.677  0.2287 -0.2740  0.3274
   49MOL   C68943985   0.215   8.166   7.624  0.7593 -0.0362  0.4070
   49MOL   C69043986   0.139   8.251   7.529 -0.4331 -0.0387 -0.5601
   49MOL   C69143987   0.190   0.009   7.496 -0.2513 -1.1121  0.1424
   49MOL   O69243988   0.163   8.045   7.655 -0.7928  0.0024  0.2411
   49MOL   C69343989   0.234   7.923   7.636 -0.3216  0.4299 -0.0344
   49MOL   C69443990   0.363   7.918   7.582  0.0796 -0.1719  0.1033
   49MOL   C69543991   0.430   7.795   7.569 -0.3341  0.4422  0.2821
   49MOL   C69643992   0.364   7.672   7.602 -0.4308 -1.1402  0.1870
   49MOL   C69743993   0.234   7.686   7.653  0.3293 -0.1783  0.0762
   49MOL   C69843994   0.170   7.805   7.673  0.5737 -0.8606  0.3615
   49MOL   C69943995   0.432   7.538   7.597  0.4269  0.3958 -0.5033
   49MOL   C70043996   0.361   7.423   7.540 -0.7419 -0.5164 -0.5473
   49MOL   C70143997   0.414   7.296   7.547  0.1466  0.6613  0.2597
   49MOL   C70243998   0.536   7.282   7.610  0.1037 -0.0240  0.4590
   49MOL   C70343999   0.608   7.392   7.659  0.7709  0.1108 -0.4634
   49MOL   C70444000   0.557   7.523   7.654 -0.1736  0.5573  0.3061
   49MOL   O70544001   0.598   7.158   7.622 -0.6153  0.3178 -0.0623
   49MOL   H70644002   0.088   0.449   7.183 -0.6119 -0.3864 -0.2016
   49MOL   H70744003   0.166   0.402   7.399 -2.9789 -0.3964 -0.7652
   49MOL   H70844004   0.452   0.107   7.232  0.6470  0.9508  0.0010
   49MOL   H70944005   0.350   0.138   7.013 -0.9397  0.4577  0.3188
   49MOL   H71044006   0.475   0.018   7.681 -0.0582  2.5270 -2.1583
   49MOL   H71144007   0.398   8.145   7.733  2.7126  0.5906 -1.2679
   49MOL   H71244008   0.046   8.212   7.491 -2.0358  1.5213  1.6623
   49MOL   H71344009   0.131   0.070   7.428  0.9796 -0.4318 -0.3236
   49MOL   H71444010   0.424   8.003   7.553  0.7604 -0.6061  0.2431
   49MOL   H71544011   0.529   7.797   7.526  0.2765  2.2827  1.7034
   49MOL   H71644012   0.178   7.597   7.677  2.3902 -1.4459  0.2801
   49MOL   H71744013   0.076   7.812   7.725  0.2406 -1.9334 -0.0839
   49MOL   H71844014   0.266   7.448   7.494 -1.1282  1.8042  1.3910
   49MOL   H71944015   0.359   7.210   7.511  0.2686  0.3902  0.7072
   49MOL   H72044016   0.704   7.360   7.695  0.4886 -1.3171 -0.9323
   49MOL   H72144017   0.608   7.600   7.709 -0.2210  1.5553 -1.0276
   49MOL   C72244018   0.570   7.055   7.532  0.2654 -0.1381 -0.3918
   49MOL   C72344019   0.516   6.931   7.569  0.1518  0.1150 -0.0499
   49MOL   C72444020   0.477   6.838   7.477 -0.8945 -0.5350 -0.2776
   49MOL   C72544021   0.482   6.866   7.340  0.6096  1.0185  0.2660
   49MOL   C72644022   0.545   6.987   7.302  0.0129 -0.1896  0.1867
   49MOL   C72744023   0.589   7.080   7.393  0.3592 -0.2666 -0.9292
   49MOL   S72844024   0.398   6.761   7.217 -0.1986 -0.5100  0.2089
   49MOL   O72944025   0.403   6.624   7.274 -0.6298  0.5379 -0.1422
   49MOL   O73044026   0.448   6.792   7.078  0.2619  0.4189  0.0406
   49MOL   C73144027   0.230   6.818   7.209 -0.5446 -0.2055 -0.7272
   49MOL   C73244028   0.185   6.902   7.313  1.6594  0.0859  0.3860
   49MOL   C73344029   0.048   6.942   7.310 -0.6361 -0.0188  0.2001
   49MOL   C73444030   8.328   6.905   7.205  0.6735  0.2894  0.1647
   49MOL   C73544031   0.012   6.815   7.109 -0.2736 -0.1328  0.6513
   49MOL   C73644032   0.147   6.772   7.110  0.0363  0.3520  0.7483
   49MOL   O73744033   8.199   6.949   7.196  0.6572 -0.2133 -0.8517
   49MOL   C73844034   8.152   7.049   7.112 -0.2931 -0.0241 -0.4899
   49MOL   C73944035   8.011   7.083   7.127 -0.2730  0.6143  0.3879
   49MOL   C74044036   7.958   7.175   7.036  0.1838 -0.0663  0.8518
   49MOL   C74144037   8.034   7.225   6.930 -0.5905 -0.7222 -0.4196
   49MOL   C74244038   8.169   7.194   6.918  0.2820  0.0456  0.1004
   49MOL   C74344039   8.235   7.107   7.008 -0.8985  0.5839  0.3021
   49MOL   C74444040   7.963   7.319   6.831 -0.7219 -0.2999  0.2232
   49MOL   C74544041   7.980   7.291   6.692 -0.3686 -1.0001  0.6092
   49MOL   C74644042   7.906   7.362   6.594  0.3622  0.3733 -0.0434
   49MOL   C74744043   7.819   7.465   6.639 -0.2315 -0.4820 -0.1514
   49MOL   C74844044   7.810   7.498   6.777  0.2431 -0.3480  0.5070
   49MOL   C74944045   7.875   7.422   6.875 -0.5437  0.2498  0.3489
   49MOL   O75044046   7.747   7.541   6.551  0.1559 -0.0684  0.3447
   49MOL   H75144047   0.490   6.916   7.673 -0.7184  1.3075 -0.0874
   49MOL   H75244048   0.421   6.749   7.499 -2.7200  0.4948 -0.6831
   49MOL   H75344049   0.547   7.014   7.197  1.3136 -1.7913 -0.2228
   49MOL   H75444050   0.625   7.177   7.364  3.8756 -0.8976  1.0163
   49MOL   H75544051   0.244   6.932   7.399  3.3663 -1.0854 -0.3717
   49MOL   H75644052   0.004   7.008   7.383 -1.1117 -0.6627  0.4997
   49MOL   H75744053   8.316   6.782   7.026  2.5215 -0.9983 -1.1483
   49MOL   H75844054   0.196   6.723   7.027  0.1521 -0.4003  1.2478
   49MOL   H75944055   7.950   7.045   7.207 -1.1413  0.6231 -0.2685
   49MOL   H76044056   7.855   7.205   7.053 -0.1911 -1.8047  1.7285
   49MOL   H76144057   8.222   7.243   6.838  0.0181 -2.7614 -1.8472
   49MOL   H76244058   8.341   7.090   6.996 -0.9679 -0.9935  1.6222
   49MOL   H76344059   8.039   7.202   6.671  2.6835  0.9958  0.3985
   49MOL   H76444060   7.908   7.334   6.490 -0.6650  0.5241 -0.1111
   49MOL   H76544061   7.749   7.579   6.815 -0.2060 -1.4092  2.0858
   49MOL   H76644062   7.863   7.455   6.977 -1.4454  1.8164 -0.2438
   49MOL   C76744063   7.766   7.543   6.414 -0.4873  0.3231 -0.0312
   49MOL   C76844064   7.820   7.658   6.354  0.0719 -0.1591 -0.5043
   49MOL   C76944065   7.856   7.661   6.217 -0.0872 -0.4773 -0.5608
   49MOL   C77044066   7.827   7.545   6.141  0.3749  0.0538 -0.9133
   49MOL   C77144067   7.750   7.437   6.191  0.1349 -0.7126 -0.2492
   49MOL   C77244068   7.731   7.435   6.333  0.0370  0.6117 -0.3222
   49MOL   S77344069   7.864   7.552   5.965 -0.3489  0.2157 -0.0301
   49MOL   O77444070   7.810   7.432   5.899 -0.8716  0.2467  0.6203
   49MOL   O77544071   8.008   7.582   5.957  0.3954 -0.0522  0.3420
   49MOL   C77644072   7.758   7.685   5.909 -0.5194 -0.0137  0.0154
   49MOL   C77744073   7.821   7.792   5.843  0.3720  0.1727 -0.6354
   49MOL   C77844074   7.742   7.901   5.792 -0.3472  1.0736 -0.5570
   49MOL   C77944075   7.604   7.893   5.803 -0.4372 -0.2060 -0.0089
   49MOL   C78044076   7.537   7.793   5.874  0.0590  0.6441  0.0157
   49MOL   C78144077   7.614   7.686   5.927 -0.6013 -0.4130  0.2172
   49MOL   O78244078   7.537   7.994   5.742  0.4777  0.4012 -0.0728
   49MOL   C78344079   7.512   8.102   5.819 -0.2568 -0.0343 -0.0255
   49MOL   C78444080   7.380   8.125   5.871  0.4256 -0.9222 -0.1853
   49MOL   C78544081   7.344   8.251   5.929 -0.8604  0.2291  0.8155
   49MOL   C78644082   7.436   8.360   5.943 -0.1667  0.2310 -0.2236
   49MOL   C78744083   7.572   8.331   5.894 -0.5902 -0.3705 -0.5805
   49MOL   C78844084   7.602   8.208   5.835 -0.1860 -0.3934  0.4454
   49MOL   C78944085   7.420   0.131   5.997 -0.9370  0.7634 -0.2943
   49MOL   C79044086   7.339   0.157   6.110  0.1946  0.1616  0.8079
   49MOL   C79144087   7.315   0.291   6.148 -0.6269 -0.0693  0.3596
   49MOL   C79244088   7.366   0.398   6.076  0.2348  1.0178  0.2047
   49MOL   C79344089   7.435   0.371   5.955  0.3684  0.1748 -1.0927
   49MOL   C79444090   7.468   0.239   5.920 -0.4459  0.4056 -0.5378
   49MOL   O79544091   7.340   0.530   6.119  0.0907 -0.2311  0.5690
   49MOL   H79644092   7.837   7.740   6.421  0.0381  0.6998 -1.5417
   49MOL   H79744093   7.912   7.742   6.171  0.5219 -0.2867  0.5044
   49MOL   H79844094   7.718   7.358   6.125 -0.0035 -1.6806  0.9634
   49MOL   H79944095   7.676   7.354   6.378  1.2818 -0.0333  0.0678
   49MOL   H80044096   7.929   7.792   5.834  0.4504  0.3215  0.2679
   49MOL   H80144097   7.797   7.981   5.744  1.9691  1.5324  2.6729
   49MOL   H80244098   7.430   7.794   5.886  0.3342  0.2705  2.5900
   49MOL   H80344099   7.561   7.615   5.989 -0.7294 -0.1039  0.4637
   49MOL   H80444100   7.322   8.035   5.856 -0.3401 -0.3618 -0.5963
   49MOL   H80544101   7.247   8.284   5.963 -2.2780  0.2144 -3.0400
   49MOL   H80644102   7.644   0.046   5.903 -1.8980  0.6648  0.7298
   49MOL   H80744103   7.701   8.186   5.799 -0.4185 -0.8081  0.0630
   49MOL   H80844104   7.288   0.089   6.176  0.7390 -0.6113  0.4486
   49MOL   H80944105   7.262   0.306   6.241  0.9813  1.0447  1.1144
   49MOL   H81044106   7.459   0.450   5.886 -0.7506 -0.3112 -2.0479
   49MOL   H81144107   7.520   0.228   5.826 -0.2127  0.0103 -0.3595
   49MOL   C81244108   7.215   0.584   6.129 -0.4373  0.7510  0.5283
   49MOL   C81344109   7.107   0.522   6.068 -0.0585 -0.1348  0.3478
   49MOL   C81444110   6.973   0.572   6.090  0.3380 -0.6896 -1.3538
   49MOL   C81544111   6.956   0.686   6.175  0.2431 -0.3819  0.5261
   49MOL   C81644112   7.071   0.745   6.235 -0.8030  0.7153  0.5817
   49MOL   C81744113   7.201   0.695   6.213 -0.1404 -0.0001 -0.1902
   49MOL   S81844114   6.791   0.747   6.206  0.0364 -0.2753 -0.1188
   49MOL   O81944115   6.694   0.634   6.206 -0.0303  0.4316  0.2301
   49MOL   O82044116   6.769   0.871   6.127 -0.4688  0.3532  0.5297
   49MOL   C82144117   6.804   0.790   6.378  0.2233 -0.1630 -0.0411
   49MOL   C82244118   6.777   0.926   6.409  0.1483  0.2299  0.2435
   49MOL   C82344119   6.802   0.971   6.539 -0.1681  0.6360  0.0006
   49MOL   C82444120   6.864   0.890   6.637 -0.4272 -0.2763 -0.4054
   49MOL   C82544121   6.889   0.760   6.602 -0.2134 -0.6087 -0.1464
   49MOL   C82644122   6.859   0.702   6.478 -0.5139  0.9200  0.6759
   49MOL   O82744123   6.902   0.933   6.758 -0.4411  0.1551 -0.1743
   49MOL   C82844124   7.017   0.880   6.823  0.2983 -0.2525  0.0108
   49MOL   C82944125   7.133   0.853   6.744 -0.2298  0.2121  0.5606
   49MOL   C83044126   7.245   0.802   6.809 -0.1072  0.1074 -0.7972
   49MOL   C83144127   7.239   0.752   6.944 -0.6793 -0.2230  0.1605
   49MOL   C83244128   7.121   0.779   7.017 -0.1566 -0.2610  0.6323
   49MOL   C83344129   7.015   0.848   6.959  0.2982  0.3425  0.6618
   49MOL   C83444130   7.344   0.677   7.001 -0.2767  0.3647 -0.0738
   49MOL   C83544131   7.477   0.719   6.987  0.4713 -0.5623  0.3701
   49MOL   C83644132   7.581   0.648   7.055  0.1305  0.8300 -0.1144
   49MOL   C83744133   7.552   0.528   7.123 -0.3718  0.7647 -0.3061
   49MOL   C83844134   7.420   0.477   7.124  0.0511  0.0755  0.1267
   49MOL   C83944135   7.316   0.560   7.072  0.2255  0.0159  0.0911
   49MOL   O84044136   7.657   0.448   7.158 -0.2485 -0.0561  0.2200
   49MOL   H84144137   7.123   0.443   5.996  0.2821 -1.5305  1.9390
   49MOL   H84244138   6.888   0.539   6.032 -3.0719  0.6819  2.6525
   49MOL   H84344139   7.063   0.828   6.303  2.8692  0.4015  1.4822
   49MOL   H84444140   7.290   0.741   6.253 -1.2275  0.2298  2.0164
   49MOL   H84544141   6.742   0.996   6.334 -2.0144 -1.8369 -0.7497
   49MOL   H84644142   6.776   1.075   6.554 -0.0994  0.3675  2.0075
   49MOL   H84744143   6.936   0.695   6.675  1.2822 -0.5355 -1.0195
   49MOL   H84844144   6.871   0.598   6.449 -0.2180  0.7698  1.3380
   49MOL   H84944145   7.140   0.879   6.640  0.6736  1.5889  0.9580
   49MOL   H85044146   7.336   0.781   6.756  0.7381  1.8478 -0.0665
   49MOL   H85144147   7.118   0.752   7.121  2.3871  0.4746  0.9290
   49MOL   H85244148   6.924   0.864   7.015 -1.1544 -0.3161 -1.4176
   49MOL   H85344149   7.493   0.812   6.935 -0.0827 -0.8593 -0.3458
   49MOL   H85444150   7.684   0.678   7.043 -0.7149  2.8051 -3.0506
   49MOL   H85544151   7.399   0.379   7.164 -0.0179  0.1495  0.2703
   49MOL   H85644152   7.215   0.523   7.069 -0.0960  0.8830 -0.0493
   49MOL   C85744153   7.723   0.457   7.281 -0.0850 -0.2120 -0.5929
   49MOL   C85844154   7.719   0.566   7.363 -0.1634 -0.1786 -0.6358
   49MOL   C85944155   7.783   0.568   7.485  0.3782 -0.0087  0.4028
   49MOL   C86044156   7.866   0.462   7.525  0.0062  0.2299  0.2144
   49MOL   C86144157   7.880   0.350   7.438 -0.2871 -0.1318  0.2468
   49MOL   C86244158   7.802   0.348   7.320 -1.0095  0.7941 -0.6711
   49MOL   S86344159   7.969   0.470   7.669  0.0238 -0.5398 -0.2891
   49MOL   O86444160   8.020   0.611   7.673 -0.1235  0.4487  0.4190
   49MOL   O86544161   8.064   0.361   7.677 -0.0614 -0.1164  0.4292
   49MOL   C86644162   7.847   0.459   7.808  0.5958  0.3615 -0.9557
   49MOL   C86744163   7.814   0.569   7.897 -0.4265  0.1200 -0.9881
   49MOL   C86844164   7.736   0.546   8.013 -0.8783 -0.1427  0.3520
   49MOL   C86944165   7.682   0.419   8.034 -0.5278 -0.3023 -0.7791
   49MOL   C87044166   7.707   0.307   7.951  0.5138  0.5542 -0.0751
   49MOL   C87144167   7.790   0.330   7.838 -0.2525  0.0155  0.6596
   49MOL   O87244168   7.590   0.397   8.133  0.3147 -0.0532  0.4153
   49MOL   C87344169   7.633   0.420   8.261 -0.1640  0.1311 -0.5700
   49MOL   C87444170   7.700   0.327   8.340  0.3459 -0.5344  0.2544
   49MOL   C87544171   7.735   0.351   0.107  0.3285 -0.3147  0.1960
   49MOL   C87644172   7.710   0.474   0.160 -0.5179  0.3497  0.2865
   49MOL   C87744173   7.657   0.576   0.078  0.5014  0.2287 -0.1986
   49MOL   C87844174   7.608   0.546   8.319  0.0861  0.2806 -0.3638
   49MOL   C87944175   7.744   0.503   0.304 -0.3081  0.9675  0.9951
   49MOL   C88044176   7.664   0.588   0.384 -0.0524  0.9809 -0.4137
   49MOL   C88144177   7.672   0.590   0.525  0.2757 -0.1269  0.0173
   49MOL   C88244178   7.769   0.512   0.587 -0.1068 -0.2946 -0.0535
   49MOL   C88344179   7.858   0.432   0.513  0.2914  0.5226  0.6191
   49MOL   C88444180   7.836   0.424   0.373  0.0779 -0.4524 -0.7348
   49MOL   O88544181   7.775   0.517   0.721 -0.3419  0.5611  0.2901
   49MOL   H88644182   7.678   0.658   7.326  1.5209  1.0834  0.5531
   49MOL   H88744183   7.787   0.653   7.551 -1.1166  0.2490  0.1623
   49MOL   H88844184   7.946   0.272   7.472  0.3472  0.4970  0.4691
   49MOL   H88944185   7.822   0.261   7.259  1.2597 -1.3095  2.8918
   49MOL   H89044186   7.848   0.670   7.880 -0.0841 -0.0869 -1.5772
   49MOL   H89144187   7.711   0.629   8.077 -0.3384 -0.0039  0.3897
   49MOL   H89244188   7.668   0.208   7.967  2.4874 -0.4238 -1.1310
   49MOL   H89344189   7.810   0.245   7.774 -1.2648  0.8889 -0.8566
   49MOL   H89444190   7.731   0.233   8.296  0.0404 -0.4030 -0.2386
   49MOL   H89544191   7.781   0.271   0.163  0.9825  0.3307  0.5871
   49MOL   H89644192   7.640   0.676   0.114  2.2964  0.4665  0.0347
   49MOL   H89744193   7.564   0.622   8.256  1.0431  1.3884  0.3143
   49MOL   H89844194   7.587   0.644   0.334 -0.7822  1.2799  1.0299
   49MOL   H89944195   7.617   0.658   0.589  1.0900 -1.2190  1.8899
   49MOL   H90044196   7.934   0.372   0.561 -0.7194 -0.3994  1.0803
   49MOL   H90144197   7.894   0.352   0.317 -0.7192 -2.2794  0.7263
   49MOL   H90244198   7.826   0.445   0.756  1.3299  1.0222 -1.1278
   50MOL     C144199   5.975   3.691   2.092  0.7365 -0.2272  0.4210
   50MOL     C244200   5.948   3.562   2.043 -0.1904 -0.3458 -0.3163
   50MOL     C344201   5.986   3.528   1.916  0.4564  0.0223 -0.1855
   50MOL     C444202   6.044   3.619   1.825  0.2870  0.6257  0.0535
   50MOL     C544203   6.076   3.743   1.878  0.4052  0.3131 -0.3387
   50MOL     C644204   6.041   3.776   2.009 -0.7514 -0.3689  0.3502
   50MOL     S744205   6.096   3.564   1.668  0.5356  0.2658  0.5375
   50MOL     O844206   5.974   3.578   1.585  0.1866 -0.1284  0.2501
   50MOL     O944207   6.163   3.434   1.690  0.0094  0.2333 -0.3345
   50MOL    C1044208   6.208   3.690   1.611  0.4387  0.6058  0.6567
   50MOL    C1144209   6.347   3.678   1.637  0.1135  0.2372  0.5900
   50MOL    C1244210   6.440   3.771   1.583  0.7196  0.1209 -0.5028
   50MOL    C1344211   6.388   3.883   1.507 -0.6930 -0.1943  0.8953
   50MOL    C1444212   6.252   3.891   1.487  0.5688 -0.2623  0.0214
   50MOL    C1544213   6.154   3.801   1.538 -0.0814 -0.0708  0.3422
   50MOL    O1644214   6.474   3.960   1.430 -0.0188 -0.7406  0.2981
   50MOL    C1744215   6.573   4.030   1.490  0.2388  0.1395 -0.4122
   50MOL    C1844216   6.544   4.144   1.559 -0.2271 -0.0777 -0.1247
   50MOL    C1944217   6.646   4.196   1.645  0.0006 -0.0471  0.1211
   50MOL    C2044218   6.779   4.150   1.649  0.0331 -0.3562  0.0567
   50MOL    C2144219   6.809   4.037   1.569 -0.1329 -0.0186 -0.1859
   50MOL    C2244220   6.706   3.977   1.499 -0.9874  0.2436 -0.3311
   50MOL    C2344221   6.870   4.222   1.741  0.6178  0.1596  0.1896
   50MOL    C2444222   6.872   4.367   1.751 -0.0114 -0.4023 -0.2832
   50MOL    C2544223   6.949   4.429   1.843  0.0342  0.1004  1.0363
   50MOL    C2644224   7.035   4.353   1.922  0.2955 -0.3068 -0.3043
   50MOL    C2744225   7.044   4.213   1.915  0.2560  0.1029  0.2054
   50MOL    C2844226   6.963   4.151   1.816  0.3612  0.4843 -0.5917
   50MOL    O2944227   7.120   4.417   2.016 -0.0044 -0.4907 -0.0828
   50MOL    H3044228   5.886   3.494   2.098 -1.0344  0.4417 -0.2886
   50MOL    H3144229   5.957   3.431   1.878  0.0357  0.6655 -1.5612
   50MOL    H3244230   6.114   3.816   1.807  0.5005 -2.5196 -3.3271
   50MOL    H3344231   6.067   3.874   2.046  2.0156 -0.4248 -1.3088
   50MOL    H3444232   6.382   3.593   1.695  1.7724  0.1236 -0.5552
   50MOL    H3544233   6.545   3.751   1.566  0.8050 -0.6729  0.9318
   50MOL    H3644234   6.217   3.976   1.430  0.2460  0.6528  1.5538
   50MOL    H3744235   6.049   3.812   1.519  0.1084  0.4873 -0.4312
   50MOL    H3844236   6.449   4.193   1.548  0.2253  1.1568  1.3529
   50MOL    H3944237   6.622   4.282   1.705  0.1238 -0.2939  0.5251
   50MOL    H4044238   6.909   3.999   1.560  0.3332  0.7644  1.5016
   50MOL    H4144239   6.732   3.886   1.448 -0.7146 -0.0165  0.2700
   50MOL    H4244240   6.814   4.428   1.684  0.6180 -0.9702 -1.3478
   50MOL    H4344241   6.948   4.537   1.853 -0.2901  0.0326  1.8481
   50MOL    H4444242   7.109   4.151   1.976 -2.1600 -1.2504  1.4698
   50MOL    H4544243   6.975   4.044   1.805 -1.6506  0.1272  0.4179
   50MOL    H4644244   5.947   3.710   2.194  1.2785 -2.7481  1.0625
   50MOL    C4744245   7.238   4.459   1.963 -0.0401  0.2169 -0.5395
   50MOL    C4844246   7.249   4.581   1.894  0.4759  0.3088 -0.0979
   50MOL    C4944247   7.369   4.617   1.834  0.4764  0.7168  0.3475
   50MOL    C5044248   7.482   4.533   1.837  0.1503 -0.1473 -0.2269
   50MOL    C5144249   7.470   4.404   1.905 -0.0323 -0.4134  0.0910
   50MOL    C5244250   7.347   4.368   1.955 -0.3561 -0.1516 -0.3587
   50MOL    S5344251   7.639   4.575   1.762  0.2056  0.0718 -0.1519
   50MOL    O5444252   7.676   4.470   1.666 -0.4054  0.0929 -0.2944
   50MOL    O5544253   7.737   4.611   1.866  0.0470 -0.3648 -0.2312
   50MOL    C5644254   7.615   4.727   1.668  0.1464  0.2504 -0.1158
   50MOL    C5744255   7.671   4.846   1.715 -0.2822  0.3625  0.4425
   50MOL    C5844256   7.645   4.968   1.645 -1.1033  0.4967 -0.6107
   50MOL    C5944257   7.579   4.966   1.519  0.8688 -0.1249  0.1207
   50MOL    C6044258   7.535   4.842   1.472  0.2969  0.1299 -0.5697
   50MOL    C6144259   7.554   4.719   1.543  0.2012 -0.5898 -0.4142
   50MOL    O6244260   7.570   5.081   1.444 -0.0146  0.4013  0.2762
   50MOL    C6344261   7.477   5.094   1.342  0.0904 -0.2664 -0.1884
   50MOL    C6444262   7.366   5.173   1.365 -0.2330 -0.1175  0.3200
   50MOL    C6544263   7.280   5.207   1.258 -1.1319  0.2075  0.4622
   50MOL    C6644264   7.305   5.168   1.127  0.4110 -0.1770  0.2618
   50MOL    C6744265   7.417   5.083   1.107  0.0610 -0.2928 -0.1143
   50MOL    C6844266   7.502   5.053   1.211 -0.1063  0.9946  0.0084
   50MOL    C6944267   7.229   5.235   1.022  0.1353 -0.4473  0.9124
   50MOL    C7044268   7.161   5.158   0.921  0.4996 -0.0045 -0.4628
   50MOL    C7144269   7.076   5.217   0.829  0.1216 -1.0511  0.4751
   50MOL    C7244270   7.069   5.355   0.820 -0.3681 -0.7215 -0.7292
   50MOL    C7344271   7.151   5.434   0.899 -0.7180 -0.1217  1.1344
   50MOL    C7444272   7.233   5.376   0.997 -0.5947  0.2814  0.9467
   50MOL    O7544273   6.985   5.404   0.721 -0.2571  0.1459  0.3347
   50MOL    H7644274   7.156   4.634   1.878  1.0149  1.4595  0.5138
   50MOL    H7744275   7.370   4.705   1.771  1.6170 -0.1029 -0.8000
   50MOL    H7844276   7.552   4.334   1.913 -0.4546 -0.6125  3.3463
   50MOL    H7944277   7.333   4.268   1.993 -1.3460  0.4464  0.9205
   50MOL    H8044278   7.722   4.846   1.810 -2.1972  0.9748  1.4924
   50MOL    H8144279   7.675   5.066   1.679 -1.5715  0.0018  1.2898
   50MOL    H8244280   7.482   4.830   1.379  0.1566 -0.7866 -0.3746
   50MOL    H8344281   7.529   4.621   1.506 -1.5873 -0.8594  1.4231
   50MOL    H8444282   7.342   5.204   1.465 -2.2402 -1.8986  0.4085
   50MOL    H8544283   7.199   5.276   1.272  1.3638  3.4106 -0.3016
   50MOL    H8644284   7.454   5.076   1.006  1.1693 -1.9304  0.3867
   50MOL    H8744285   7.601   5.019   1.182 -0.1096 -0.3701  1.5005
   50MOL    H8844286   7.161   5.050   0.919 -1.2524 -0.0326  0.2378
   50MOL    H8944287   7.035   5.155   0.751  1.3421  0.8211 -1.7301
   50MOL    H9044288   7.153   5.540   0.880  2.9566  0.2027  2.8698
   50MOL    H9144289   7.286   5.442   1.063  0.9580  1.5224 -1.4626
   50MOL    C9244290   6.962   5.539   0.714 -0.2361 -0.5243  0.0949
   50MOL    C9344291   6.858   5.589   0.794 -0.1717 -0.5330  0.1959
   50MOL    C9444292   6.826   5.727   0.778 -0.0393 -0.9006  0.4958
   50MOL    C9544293   6.904   5.810   0.697 -0.9981  0.3424  0.3687
   50MOL    C9644294   7.008   5.757   0.613  0.2001  1.1458  0.4354
   50MOL    C9744295   7.033   5.619   0.620  1.0967 -0.1822 -0.1768
   50MOL    S9844296   6.870   5.988   0.689 -0.3260 -0.0129 -0.0509
   50MOL    O9944297   6.936   6.037   0.570 -0.1568 -0.4927  0.4769
   50MOL   O10044298   6.899   6.043   0.816 -0.0514  0.1547 -0.1736
   50MOL   C10144299   6.692   6.011   0.668  0.5753  0.6605  0.3538
   50MOL   C10244300   6.635   6.008   0.537 -0.2745  0.2113 -0.2090
   50MOL   C10344301   6.499   6.039   0.518  0.0591  0.6608 -0.6647
   50MOL   C10444302   6.425   6.073   0.635  0.0731 -0.1402  0.6482
   50MOL   C10544303   6.475   6.070   0.768 -0.0903  0.2634  0.3271
   50MOL   C10644304   6.607   6.028   0.784 -0.1865 -0.5057 -0.5483
   50MOL   O10744305   6.297   6.118   0.614  0.6230 -0.4542 -0.1126
   50MOL   C10844306   6.204   6.028   0.576  0.6119 -0.5573  1.2172
   50MOL   C10944307   6.151   5.921   0.657  0.2788 -0.8263 -0.4547
   50MOL   C11044308   6.037   5.847   0.626 -0.1661  0.7563 -0.3624
   50MOL   C11144309   5.975   5.870   0.502  0.2777  0.0467 -0.4437
   50MOL   C11244310   6.022   5.976   0.419  0.1253  0.2302  0.0446
   50MOL   C11344311   6.135   6.054   0.455  0.1357  0.6286  0.1320
   50MOL   C11444312   5.863   5.784   0.458  0.8327  0.3206  0.4689
   50MOL   C11544313   5.768   5.739   0.547  0.5723  0.0484  0.1427
   50MOL   C11644314   5.664   5.656   0.513 -0.3296 -0.4985 -0.4119
   50MOL   C11744315   5.646   5.618   0.376 -0.2184 -0.3192 -0.0049
   50MOL   C11844316   5.748   5.663   0.279 -0.2648  0.4269 -0.5185
   50MOL   C11944317   5.850   5.740   0.325 -0.4375  0.4424 -0.1502
   50MOL   O12044318   5.533   5.554   0.330 -0.5161  0.5351  0.2428
   50MOL   H12144319   6.786   5.534   0.852 -0.9939  0.9679  0.6168
   50MOL   H12244320   6.745   5.771   0.836 -0.2882  0.0482 -0.5581
   50MOL   H12344321   7.062   5.827   0.551  0.0071  2.0043  1.2198
   50MOL   H12444322   7.117   5.573   0.569  1.4410  0.0875  0.1390
   50MOL   H12544323   6.699   5.994   0.452  0.1333  0.1434  0.1058
   50MOL   H12644324   6.461   6.048   0.417 -0.6060 -0.9398 -0.5801
   50MOL   H12744325   6.415   6.088   0.856 -0.1076  0.7620  0.2104
   50MOL   H12844326   6.638   6.003   0.884 -0.1848  1.7970  0.0681
   50MOL   H12944327   6.200   5.896   0.750  0.2835 -1.1067 -0.5311
   50MOL   H13044328   6.007   5.764   0.688  0.6217 -1.2655 -2.5900
   50MOL   H13144329   5.969   6.003   0.329  0.5517 -0.7646 -0.5101
   50MOL   H13244330   6.163   6.129   0.383  0.6016  0.4311  0.1074
   50MOL   H13344331   5.774   5.767   0.651  0.6319  0.2195  0.0925
   50MOL   H13444332   5.594   5.615   0.585 -0.2790 -1.7082 -1.0422
   50MOL   H13544333   5.721   5.629   0.180 -0.9875 -0.9482  0.1319
   50MOL   H13644334   5.915   5.791   0.254 -0.7238 -0.0895 -0.7883
   50MOL   C13744335   5.558   5.438   0.258  0.0727 -0.8365 -0.1487
   50MOL   C13844336   5.589   5.322   0.331 -0.6616 -0.5071 -0.2262
   50MOL   C13944337   5.633   5.208   0.261 -0.1723 -0.1811  0.2580
   50MOL   C14044338   5.621   5.204   0.118 -0.5976 -0.6796 -0.4631
   50MOL   C14144339   5.572   5.315   0.049 -0.2669 -0.1713 -0.2235
   50MOL   C14244340   5.537   5.433   0.122 -0.5513  0.3315  0.4223
   50MOL   S14344341   5.665   5.051   0.034  0.4521 -0.2122 -0.0978
   50MOL   O14444342   5.714   4.956   0.134 -0.2220  0.3673  0.0158
   50MOL   O14544343   5.761   5.087   8.298  0.2702 -0.0850 -0.2675
   50MOL   C14644344   5.520   4.984   8.321 -0.4132  0.3250  0.0527
   50MOL   C14744345   5.468   4.856   0.006 -0.1054  0.3502 -0.3838
   50MOL   C14844346   5.346   4.804   8.320 -0.0780  0.0352 -0.0071
   50MOL   C14944347   5.285   4.879   8.215  0.4535 -0.2539  0.4640
   50MOL   C15044348   5.330   4.998   8.167  1.0455 -0.1293  0.8965
   50MOL   C15144349   5.448   5.051   8.222 -0.0214 -0.0306  0.2011
   50MOL   O15244350   5.161   4.838   8.168 -0.0271 -0.5602 -0.0195
   50MOL   C15344351   5.164   4.737   8.070 -0.4841 -0.9532  0.3593
   50MOL   C15444352   5.231   4.612   8.088  0.2868  0.4684  0.3344
   50MOL   C15544353   5.194   4.503   8.006 -0.0594  0.0188 -0.1305
   50MOL   C15644354   5.112   4.520   7.889 -0.0149 -0.0540 -0.3986
   50MOL   C15744355   5.063   4.654   7.865  0.3337  0.7523  0.2462
   50MOL   C15844356   5.087   4.763   7.959 -0.1879  0.2313  0.3503
   50MOL   C15944357   5.069   4.409   7.803 -0.7813  0.6928 -0.0436
   50MOL   C16044358   4.933   4.387   7.767 -0.2460  0.0380  0.1297
   50MOL   C16144359   4.899   4.266   7.702 -0.0884 -0.2963 -0.2150
   50MOL   C16244360   5.000   4.182   7.657  0.3133 -0.0283 -0.6386
   50MOL   C16344361   5.133   4.203   7.693 -0.3016 -0.7322 -0.7480
   50MOL   C16444362   5.171   4.319   7.771  0.1741 -0.5864 -0.3618
   50MOL   O16544363   4.965   4.070   7.583 -0.5058  0.3795 -0.3194
   50MOL   H16644364   5.617   5.320   0.436  0.7344  1.2795 -0.5363
   50MOL   H16744365   5.668   5.119   0.310  1.3484 -0.6032 -1.5368
   50MOL   H16844366   5.581   5.315   8.307 -1.1653 -0.2376 -0.3046
   50MOL   H16944367   5.513   5.516   0.058  0.0208 -0.0085 -0.2301
   50MOL   H17044368   5.516   4.819   0.095  4.0638 -0.4147 -2.8318
   50MOL   H17144369   5.285   4.730   0.004  0.6142  0.6945  1.8177
   50MOL   H17244370   5.272   5.054   8.096 -1.1906 -3.2932  0.1341
   50MOL   H17344371   5.472   5.148   8.182  1.0423  0.3067  1.6200
   50MOL   H17444372   5.291   4.600   8.177 -0.1532 -0.2735  0.5331
   50MOL   H17544373   5.239   4.409   8.033 -2.9694 -0.8831  1.8941
   50MOL   H17644374   4.994   4.672   7.784  0.6945 -0.2527 -0.2929
   50MOL   H17744375   5.030   4.855   7.950  1.0642  1.0874  1.0931
   50MOL   H17844376   4.850   4.446   7.802 -1.2289 -1.4402  0.3492
   50MOL   H17944377   4.799   4.233   7.679 -0.6628 -0.4612  2.3114
   50MOL   H18044378   5.208   4.130   7.668 -1.8177 -2.6138  0.0257
   50MOL   H18144379   5.277   4.334   7.783 -0.3449  1.3808  2.3308
   50MOL   C18244380   4.978   4.079   7.445  0.3262 -0.1414 -0.4720
   50MOL   C18344381   4.870   4.127   7.364 -0.0371 -0.0170 -0.1491
   50MOL   C18444382   4.888   4.124   7.226 -0.1146 -0.5794  0.1710
   50MOL   C18544383   4.999   4.057   7.166 -0.3932  0.0955 -0.1623
   50MOL   C18644384   5.100   4.000   7.242  0.3179 -1.2511 -0.2673
   50MOL   C18744385   5.089   4.014   7.380 -0.6983 -0.1401 -0.0890
   50MOL   S18844386   5.007   4.040   6.993  0.1726  0.0845  0.3629
   50MOL   O18944387   5.105   3.934   6.961  0.6514 -0.5650  0.1389
   50MOL   O19044388   5.026   4.176   6.938 -0.5486  0.2322 -0.0772
   50MOL   C19144389   4.842   3.988   6.945  0.5154  0.0904  0.0360
   50MOL   C19244390   4.793   3.864   6.985  0.0474 -0.4800  0.1605
   50MOL   C19344391   4.660   3.825   6.955  0.0554 -0.0140 -0.2115
   50MOL   C19444392   4.589   3.904   6.861 -0.3073  0.4188  0.6728
   50MOL   C19544393   4.644   4.023   6.816 -0.2643 -0.2581  0.4442
   50MOL   C19644394   4.772   4.069   6.859  0.1391 -0.2397 -0.6870
   50MOL   O19744395   4.466   3.867   6.825 -0.2175  0.0370  0.3121
   50MOL   C19844396   4.368   3.955   6.852 -0.1398 -0.8506 -0.3438
   50MOL   C19944397   4.330   3.979   6.987  0.2232  0.3892  0.5858
   50MOL   C20044398   4.220   4.065   7.015  0.1397  0.0538  0.6503
   50MOL   C20144399   4.138   4.115   6.908  0.8780 -0.1204 -0.1668
   50MOL   C20244400   4.171   4.079   6.778  0.3820 -0.8142  0.1508
   50MOL   C20344401   4.286   4.005   6.747  0.1144  0.4989 -0.0356
   50MOL   C20444402   4.028   4.206   6.930 -0.3666 -0.0952  0.1950
   50MOL   C20544403   4.028   4.334   6.872  0.1262 -0.1921 -0.4811
   50MOL   C20644404   3.930   4.433   6.902 -0.0100  0.2418 -0.5981
   50MOL   C20744405   3.816   4.392   6.972  0.1408 -0.7621 -0.5602
   50MOL   C20844406   3.809   4.265   7.034  1.1156  0.0322  0.3140
   50MOL   C20944407   3.921   4.179   7.020 -0.1210 -0.3665  0.5822
   50MOL   O21044408   3.720   4.483   6.997  0.1558  0.0972  0.4523
   50MOL   H21144409   4.776   4.168   7.399 -0.3769 -2.3440  1.8133
   50MOL   H21244410   4.810   4.173   7.170 -0.4109 -1.8429 -0.5470
   50MOL   H21344411   5.180   3.941   7.201 -0.6295 -1.2973 -2.1409
   50MOL   H21444412   5.161   3.960   7.440  0.8786  0.0972 -1.6979
   50MOL   H21544413   4.867   3.813   7.044  1.1645  0.5794 -0.2995
   50MOL   H21644414   4.624   3.735   7.002 -1.9142  1.4489  1.2160
   50MOL   H21744415   4.583   4.088   6.755 -0.6687 -1.4423 -0.4335
   50MOL   H21844416   4.807   4.166   6.825  2.5867 -0.3332  1.4096
   50MOL   H21944417   4.386   3.937   7.069 -0.8304  1.1948  1.7481
   50MOL   H22044418   4.195   4.089   7.118 -1.2784 -1.8480  0.7799
   50MOL   H22144419   4.109   4.119   6.700  1.3563  0.3352 -0.0500
   50MOL   H22244420   4.292   3.979   6.642 -3.4951 -1.6177  0.2026
   50MOL   H22344421   4.111   4.354   6.807  0.9254 -0.8459  0.3342
   50MOL   H22444422   3.945   4.534   6.866 -1.9473  1.2469  1.3553
   50MOL   H22544423   3.728   4.240   7.100  0.6126  0.1987 -0.2344
   50MOL   H22644424   3.923   4.077   7.055 -1.1224 -0.3191  0.7935
   50MOL   C22744425   3.590   4.442   6.976  0.5273  0.3791  0.4503
   50MOL   C22844426   3.503   4.408   7.087 -0.7086 -0.1684  0.1030
   50MOL   C22944427   3.372   4.366   7.061  0.4044 -0.8204  0.6532
   50MOL   C23044428   3.330   4.355   6.925 -0.2804  0.2103 -0.3401
   50MOL   C23144429   3.411   4.384   6.818 -0.4428 -0.6657  0.4420
   50MOL   C23244430   3.540   4.436   6.843 -0.3997 -0.1444  0.6539
   50MOL   S23344431   3.158   4.327   6.890  0.1681  0.3308  0.1272
   50MOL   O23444432   3.089   4.290   7.015 -0.0669  0.3588  0.1894
   50MOL   O23544433   3.148   4.233   6.774 -0.2644 -0.1955  0.2469
   50MOL   C23644434   3.087   4.485   6.841 -0.2628  0.5004  0.1548
   50MOL   C23744435   2.969   4.472   6.762  0.4155  0.1767  1.0307
   50MOL   C23844436   2.902   4.590   6.724 -0.4666 -0.6796 -0.0000
   50MOL   C23944437   2.961   4.716   6.769 -0.0271  0.4174  0.6157
   50MOL   C24044438   3.078   4.726   6.847  0.4040  0.1402  0.5336
   50MOL   C24144439   3.137   4.607   6.894  0.3081  0.1928 -0.4039
   50MOL   O24244440   2.889   4.827   6.725  0.1607  0.5020  0.6352
   50MOL   C24344441   2.955   4.932   6.671  0.3068  0.0270  1.1030
   50MOL   C24444442   3.081   4.918   6.609  0.2481  0.2020  0.5210
   50MOL   C24544443   3.139   5.029   6.537  0.3409  0.9311  0.5207
   50MOL   C24644444   3.069   5.153   6.524 -0.0689  0.6704  0.1144
   50MOL   C24744445   2.941   5.162   6.584  0.7391  0.0240 -0.8376
   50MOL   C24844446   2.888   5.057   6.655 -0.2547 -0.2480 -0.2367
   50MOL   C24944447   3.127   5.269   6.458  0.0813 -0.4356 -0.2712
   50MOL   C25044448   3.195   5.265   6.339 -0.0907  0.3913 -0.3604
   50MOL   C25144449   3.234   5.377   6.266  0.7285 -0.0401 -0.2589
   50MOL   C25244450   3.211   5.504   6.319 -0.3480 -0.2186 -0.4228
   50MOL   C25344451   3.150   5.513   6.446  0.1160  0.0030  0.3076
   50MOL   C25444452   3.104   5.398   6.515 -0.0344  0.7216 -0.4673
   50MOL   O25544453   3.245   5.615   6.239 -0.3772  0.1515  0.0348
   50MOL   H25644454   3.533   4.429   7.188  0.8014  0.0543 -0.3747
   50MOL   H25744455   3.308   4.355   7.147 -0.3749 -0.6833  0.0957
   50MOL   H25844456   3.378   4.375   6.716  0.2349 -1.9403  0.3216
   50MOL   H25944457   3.590   4.478   6.756 -1.8187  0.0162 -0.0987
   50MOL   H26044458   2.926   4.379   6.731 -2.6143  1.8974 -0.1551
   50MOL   H26144459   2.808   4.594   6.672 -0.8139 -0.1778  0.6629
   50MOL   H26244460   3.123   4.820   6.876  1.0800  0.1521 -0.5557
   50MOL   H26344461   3.227   4.612   6.954  0.1308  2.0175 -0.2525
   50MOL   H26444462   3.135   4.825   6.609 -0.9816 -0.5438 -0.8679
   50MOL   H26544463   3.241   5.010   6.507 -0.0790  0.0619 -0.3943
   50MOL   H26644464   2.883   5.253   6.593 -1.3204 -1.3529  0.5591
   50MOL   H26744465   2.789   5.064   6.697 -1.7060 -2.8252 -2.9994
   50MOL   H26844466   3.213   5.166   6.301 -0.9809  0.5000 -1.0695
   50MOL   H26944467   3.272   5.364   6.166  1.0873  2.7761 -0.5318
   50MOL   H27044468   3.147   5.613   6.487  1.6655  0.1159  0.1702
   50MOL   H27144469   3.062   5.414   6.613  1.6459  0.2679  0.3457
   50MOL   C27244470   3.170   5.731   6.238 -0.1868 -0.2080 -0.4979
   50MOL   C27344471   3.055   5.736   6.155 -0.2809 -0.2361 -0.9148
   50MOL   C27444472   2.961   5.841   6.154  0.5355 -0.1453  0.4517
   50MOL   C27544473   2.980   5.942   6.248 -0.4898 -0.1035 -0.1018
   50MOL   C27644474   3.102   5.945   6.329 -0.3479 -0.3644  1.0105
   50MOL   C27744475   3.192   5.837   6.321  0.8851  0.3752  0.6220
   50MOL   S27844476   2.855   6.069   6.277 -0.3929  0.0749  0.2370
   50MOL   O27944477   2.780   6.099   6.150 -0.0211  0.4680  0.1882
   50MOL   O28044478   2.913   6.176   6.354 -0.4424 -0.0061 -0.0268
   50MOL   C28144479   2.744   5.989   6.389  0.1983 -0.2190 -0.3024
   50MOL   C28244480   2.783   5.942   6.521  0.2450 -0.3570  0.1109
   50MOL   C28344481   2.685   5.872   6.598  0.2660 -0.1332  0.5473
   50MOL   C28444482   2.551   5.855   6.549 -1.2856 -0.1527 -0.2728
   50MOL   C28544483   2.514   5.915   6.427  0.4970  0.1762 -0.9076
   50MOL   C28644484   2.607   5.983   6.349 -0.6180 -0.0025  0.4276
   50MOL   O28744485   2.459   5.782   6.621 -0.1496  0.1567  0.1445
   50MOL   C28844486   2.438   5.653   6.600 -0.8355 -0.0347  0.2718
   50MOL   C28944487   2.534   5.574   6.534  0.3782  0.0111 -0.2325
   50MOL   C29044488   2.519   5.432   6.512  0.0480  0.4160  0.4397
   50MOL   C29144489   2.398   5.369   6.558 -0.2411 -0.2011  1.1841
   50MOL   C29244490   2.299   5.449   6.622  0.4220  0.2330 -0.6838
   50MOL   C29344491   2.312   5.592   6.634 -0.1527 -0.1186  0.5406
   50MOL   C29444492   2.392   5.227   6.526 -0.3674  0.2691  0.0029
   50MOL   C29544493   2.491   5.148   6.589 -0.1686  0.7140 -0.7692
   50MOL   C29644494   2.519   5.014   6.564 -0.5644 -0.8847  0.1638
   50MOL   C29744495   2.443   4.951   6.470 -0.5046  0.1116  0.3594
   50MOL   C29844496   2.329   5.014   6.409  0.0025 -0.0498 -0.5536
   50MOL   C29944497   2.302   5.156   6.442  0.4848  0.5136 -0.5948
   50MOL   O30044498   2.466   4.820   6.435  0.7642 -0.0891 -0.0750
   50MOL   H30144499   3.030   5.650   6.093  1.4106 -1.9039  0.6540
   50MOL   H30244500   2.870   5.832   6.096  1.2934  1.1522 -0.9699
   50MOL   H30344501   3.120   6.016   6.408  1.6935  1.5305 -1.0788
   50MOL   H30444502   3.259   5.832   6.405 -0.2684 -0.3441  1.5235
   50MOL   H30544503   2.884   5.965   6.553  0.3847  0.4532 -0.8675
   50MOL   H30644504   2.706   5.834   6.696 -0.3578 -0.5952  0.5064
   50MOL   H30744505   2.415   5.898   6.388 -0.2842  0.7570  0.7879
   50MOL   H30844506   2.576   6.026   6.255  1.2428  1.6545  0.5351
   50MOL   H30944507   2.628   5.620   6.506  1.1554 -1.1523  0.4661
   50MOL   H31044508   2.598   5.380   6.460  0.0573 -0.0974  0.9570
   50MOL   H31144509   2.202   5.409   6.644  0.3759  1.4226  1.3537
   50MOL   H31244510   2.223   5.643   6.666 -0.5368  0.0256 -0.7294
   50MOL   H31344511   2.566   5.190   6.654 -1.1234 -0.3154  1.0188
   50MOL   H31444512   2.595   4.976   6.631 -1.2375 -3.1699 -0.3132
   50MOL   H31544513   2.259   4.973   6.339 -0.4364 -0.1807 -0.0421
   50MOL   H31644514   2.228   5.206   6.380  1.4758 -0.1367 -2.3214
   50MOL   C31744515   2.546   4.795   6.333 -0.3317  0.0874 -0.5328
   50MOL   C31844516   2.499   4.807   6.203 -0.4573  0.4084 -0.5084
   50MOL   C31944517   2.577   4.800   6.086  0.0169  0.7158 -0.6616
   50MOL   C32044518   2.712   4.755   6.107  0.1935  0.1909 -0.5035
   50MOL   C32144519   2.761   4.739   6.238  0.1791 -0.0040 -0.0157
   50MOL   C32244520   2.680   4.761   6.350 -0.7537  0.9232  0.3003
   50MOL   S32344521   2.821   4.746   5.964 -0.1287  0.0907 -0.1445
   50MOL   O32444522   2.953   4.764   6.020 -0.4328 -0.3581  0.1124
   50MOL   O32544523   2.764   4.833   5.861 -0.5725  0.1941 -0.1791
   50MOL   C32644524   2.795   4.586   5.897 -0.1526  1.0643  0.3474
   50MOL   C32744525   2.678   4.534   5.846  0.2154 -0.1095 -0.4727
   50MOL   C32844526   2.670   4.411   5.790 -0.0722 -0.5145 -0.1129
   50MOL   C32944527   2.789   4.335   5.774 -0.2227 -0.0012  0.3333
   50MOL   C33044528   2.916   4.389   5.807  0.4473  0.1844  0.2123
   50MOL   C33144529   2.919   4.512   5.870  0.7489  0.0757 -0.2643
   50MOL   O33244530   2.796   4.205   5.730  0.6193 -0.1571 -0.6372
   50MOL   C33344531   2.771   4.103   5.814  0.2914  0.7381 -0.5251
   50MOL   C33444532   2.791   4.103   5.956 -0.1049 -0.9028 -0.1861
   50MOL   C33544533   2.771   3.981   6.024 -0.6483  0.5183 -0.2861
   50MOL   C33644534   2.739   3.862   5.965  0.7638 -0.4099 -1.1729
   50MOL   C33744535   2.719   3.862   5.827  0.3637 -0.6218 -0.2121
   50MOL   C33844536   2.732   3.978   5.755  0.3582 -0.1399 -0.2532
   50MOL   C33944537   2.711   3.734   6.035 -0.2081  0.2886 -0.1953
   50MOL   C34044538   2.615   3.646   5.999  0.9958 -0.0496 -0.0166
   50MOL   C34144539   2.580   3.530   6.061 -0.0814  0.0735 -0.2306
   50MOL   C34244540   2.644   3.505   6.184 -0.8548  0.1607  0.2351
   50MOL   C34344541   2.739   3.591   6.233  0.3505  0.2200  0.3329
   50MOL   C34444542   2.778   3.708   6.158  0.4065  0.4548 -0.3323
   50MOL   O34544543   2.611   3.388   6.247 -0.3384 -0.4148  0.2271
   50MOL   H34644544   2.395   4.833   6.195 -1.2023 -2.5132 -0.7724
   50MOL   H34744545   2.539   4.820   5.987 -1.1941 -0.9600 -0.5585
   50MOL   H34844546   2.867   4.719   6.250  0.2620  0.1141 -0.5424
   50MOL   H34944547   2.702   4.740   6.454  0.4289 -3.7362 -0.8038
   50MOL   H35044548   2.584   4.583   5.867  0.0665 -0.7465  0.3364
   50MOL   H35144549   2.579   4.369   5.751  0.9609 -2.4273 -0.5370
   50MOL   H35244550   3.005   4.331   5.787 -0.7139 -1.2801 -0.7578
   50MOL   H35344551   3.012   4.559   5.900 -0.0181  0.6153  1.3279
   50MOL   H35444552   2.809   4.197   6.006 -0.0919  0.4032 -2.5815
   50MOL   H35544553   2.785   3.978   6.131  3.9461  0.2620 -0.7977
   50MOL   H35644554   2.695   3.767   5.780 -2.2816  0.1751 -0.5629
   50MOL   H35744555   2.724   3.970   5.648 -0.6975 -0.3672 -0.1707
   50MOL   H35844556   2.555   3.677   5.915 -0.5365 -0.7851  0.8005
   50MOL   H35944557   2.495   3.471   6.028  0.6509 -0.1992 -1.6548
   50MOL   H36044558   2.789   3.565   6.325 -0.0582 -0.0699  0.4724
   50MOL   H36144559   2.861   3.758   6.206  0.7242  1.1427 -1.5917
   50MOL   C36244560   2.481   3.364   6.266  0.2628  0.9421 -0.2825
   50MOL   C36344561   2.399   3.284   6.183 -0.7908  0.2165  0.8765
   50MOL   C36444562   2.267   3.249   6.216  0.1602 -0.5485 -0.2238
   50MOL   C36544563   2.214   3.292   6.338  0.2210 -0.4041 -0.4464
   50MOL   C36644564   2.292   3.385   6.422 -0.5328  0.0954  1.2180
   50MOL   C36744565   2.423   3.421   6.382  0.1339 -0.1432 -0.0108
   50MOL   S36844566   2.064   3.234   6.400 -0.5194 -0.0749 -0.2622
   50MOL   O36944567   1.953   3.282   6.314  0.0913  0.4111  0.4546
   50MOL   O37044568   2.071   3.266   6.543 -0.1642 -0.1077 -0.0141
   50MOL   C37144569   2.065   3.051   6.394  1.1463  0.0910  0.3101
   50MOL   C37244570   2.160   2.985   6.476 -0.0016  0.3836  0.0036
   50MOL   C37344571   2.165   2.846   6.462 -0.6148 -0.0720 -0.1804
   50MOL   C37444572   2.089   2.772   6.365  0.3141  0.3513 -0.0493
   50MOL   C37544573   1.987   2.840   6.295 -0.0687  1.0251  0.1020
   50MOL   C37644574   1.977   2.976   6.306  0.1027  0.1089  0.6844
   50MOL   O37744575   2.088   2.635   6.355 -0.3439 -0.0219  0.1838
   50MOL   C37844576   2.133   2.573   6.242 -0.3032 -0.2235 -0.7977
   50MOL   C37944577   2.270   2.583   6.199 -0.1361 -1.1399  0.4462
   50MOL   C38044578   2.316   2.514   6.093 -0.4535 -0.4811  0.4169
   50MOL   C38144579   2.227   2.433   6.016  0.7300  0.1788 -0.2164
   50MOL   C38244580   2.094   2.422   6.049  0.3636 -1.3138 -0.1272
   50MOL   C38344581   2.048   2.492   6.163 -0.3715  0.4192  0.7204
   50MOL   C38444582   2.260   2.355   5.895 -0.1751 -0.4015 -0.4234
   50MOL   C38544583   2.338   2.399   5.793 -0.1182 -0.5270  0.8045
   50MOL   C38644584   2.352   2.324   5.669  0.4311 -0.2260  0.1368
   50MOL   C38744585   2.313   2.190   5.659 -0.1643 -0.8933  0.4832
   50MOL   C38844586   2.234   2.144   5.764  0.3735 -0.4022  0.1381
   50MOL   C38944587   2.207   2.224   5.881 -0.6977  0.0653  0.9245
   50MOL   O39044588   2.344   2.120   5.543 -0.7934  0.3703  0.6202
   50MOL   H39144589   2.452   3.262   6.092  0.3122  0.1201  1.5322
   50MOL   H39244590   2.205   3.183   6.158 -1.8497  0.0019  1.2418
   50MOL   H39344591   2.253   3.425   6.514  1.6200  1.1435  1.6911
   50MOL   H39444592   2.481   3.492   6.440 -0.4582  1.3590 -1.2281
   50MOL   H39544593   2.218   3.047   6.543  0.7674 -1.1715  0.8162
   50MOL   H39644594   2.235   2.789   6.522  2.6534  2.4450 -1.4351
   50MOL   H39744595   1.918   2.789   6.229  2.3854  0.6654 -2.2911
   50MOL   H39844596   1.901   3.024   6.246  0.0173  0.0823  0.7712
   50MOL   H39944597   2.332   2.652   6.254 -0.6303  1.1303 -1.7718
   50MOL   H40044598   2.420   2.517   6.063 -0.5244  0.2847  0.2256
   50MOL   H40144599   2.024   2.363   5.992 -1.2467  1.3945 -1.0249
   50MOL   H40244600   1.947   2.469   6.194 -0.4190 -1.3421 -0.6450
   50MOL   H40344601   2.375   2.500   5.797 -1.0227 -0.0425 -1.9175
   50MOL   H40444602   2.397   2.367   5.581 -0.2937  1.0424  0.3773
   50MOL   H40544603   2.195   2.044   5.752 -1.9814  0.2079  2.3151
   50MOL   H40644604   2.127   2.178   5.938 -1.0463 -0.3403  0.1164
   50MOL   C40744605   2.456   2.036   5.539  0.3051  0.0024 -0.0051
   50MOL   C40844606   2.571   2.067   5.615 -0.9033 -0.2329  0.2303
   50MOL   C40944607   2.681   1.983   5.616 -0.0212 -0.1038  0.1833
   50MOL   C41044608   2.678   1.863   5.548  0.3288 -0.3049  0.4424
   50MOL   C41144609   2.561   1.827   5.477 -0.2414 -0.1608 -0.0872
   50MOL   C41244610   2.448   1.910   5.476  0.3022 -0.3673 -0.1053
   50MOL   S41344611   2.814   1.749   5.547  0.3592 -0.0685 -0.2817
   50MOL   O41444612   2.768   1.621   5.486 -0.6839 -0.1637 -0.7135
   50MOL   O41544613   2.872   1.740   5.683 -0.0524 -0.5757 -0.4739
   50MOL   C41644614   2.935   1.821   5.437  0.6545  0.0063 -0.9879
   50MOL   C41744615   3.071   1.811   5.471 -0.3950 -0.5950  0.0700
   50MOL   C41844616   3.167   1.821   5.366  0.1346  0.4446  0.5016
   50MOL   C41944617   3.128   1.870   5.236 -0.4953  0.1430 -0.7404
   50MOL   C42044618   2.989   1.895   5.208  0.7002 -0.0668  0.1185
   50MOL   C42144619   2.889   1.865   5.309  0.7866 -0.5256 -0.4455
   50MOL   O42244620   3.227   1.889   5.144 -1.1101  0.1864 -0.0326
   50MOL   C42344621   3.237   2.014   5.088 -0.2643 -0.4773  0.4671
   50MOL   C42444622   3.220   2.023   4.953 -0.3601 -0.9269  0.2977
   50MOL   C42544623   3.222   2.148   4.891  0.2640 -0.2900  0.4678
   50MOL   C42644624   3.251   2.263   4.966 -0.0001 -0.2630 -0.3077
   50MOL   C42744625   3.263   2.254   5.104 -0.1886  0.5271 -0.2324
   50MOL   C42844626   3.257   2.129   5.163 -0.4373  1.1666  0.6371
   50MOL   C42944627   3.267   2.399   4.913 -0.3634 -0.2864 -0.3941
   50MOL   C43044628   3.364   2.432   4.814 -0.2857 -0.2073 -0.9713
   50MOL   C43144629   3.379   2.563   4.769  0.8508  0.6608  0.5169
   50MOL   C43244630   3.296   2.665   4.821  0.2615 -0.2102 -0.2094
   50MOL   C43344631   3.200   2.632   4.917  0.7308 -0.1325  0.7858
   50MOL   C43444632   3.191   2.500   4.961  0.2621  0.4525  0.2316
   50MOL   O43544633   3.285   2.793   4.787 -0.1406 -0.2536  0.0842
   50MOL   H43644634   2.569   2.162   5.667  0.3365 -0.1737  0.1870
   50MOL   H43744635   2.770   1.999   5.675 -2.0122  0.5696  3.1425
   50MOL   H43844636   2.555   1.737   5.418  0.1360 -0.0759 -0.2590
   50MOL   H43944637   2.359   1.868   5.433 -0.5440  1.5355 -0.2559
   50MOL   H44044638   3.103   1.778   5.568 -0.7386 -1.7710 -0.2126
   50MOL   H44144639   3.272   1.798   5.379 -0.1551 -0.7336  0.8028
   50MOL   H44244640   2.951   1.933   5.114  1.5621  1.6745  0.4502
   50MOL   H44344641   2.782   1.878   5.303  0.9298  1.8707  1.2511
   50MOL   H44444642   3.197   1.929   4.904  1.5704 -1.1765 -0.1554
   50MOL   H44544643   3.191   2.152   4.787 -0.8676  0.5169  0.8258
   50MOL   H44644644   3.288   2.342   5.162 -2.5891  0.8978  0.3188
   50MOL   H44744645   3.274   2.117   5.269 -3.3005  1.8384  1.1930
   50MOL   H44844646   3.420   2.351   4.770 -0.6545 -0.5308 -0.8439
   50MOL   H44944647   3.456   2.589   4.698 -0.0720  0.6801 -0.5019
   50MOL   H45044648   3.128   2.703   4.955 -0.2783 -0.1641 -1.0243
   50MOL   H45144649   3.112   2.476   5.030  1.8510 -1.9694  1.2500
   50MOL   C45244650   3.321   2.887   4.881  0.4244  0.1393 -0.1689
   50MOL   C45344651   3.235   2.986   4.927 -0.5382 -0.1965  0.4426
   50MOL   C45444652   3.276   3.085   5.020  0.4190  0.3078  0.8891
   50MOL   C45544653   3.401   3.079   5.077  0.3291 -0.4641 -0.5979
   50MOL   C45644654   3.479   2.969   5.043 -0.0065  0.7081  0.2745
   50MOL   C45744655   3.444   2.878   4.938 -0.6402 -0.3547 -0.2566
   50MOL   S45844656   3.421   3.186   5.221 -0.2258 -0.4095 -0.2204
   50MOL   O45944657   3.359   3.116   5.339 -0.3098  0.2796  0.5477
   50MOL   O46044658   3.359   3.318   5.200 -0.5049  0.5155  0.0554
   50MOL   C46144659   3.597   3.219   5.266  0.2822  0.2212 -0.5657
   50MOL   C46244660   3.696   3.212   5.170  0.2657  1.1910  0.5031
   50MOL   C46344661   3.832   3.216   5.216 -0.1343  0.8217  0.2262
   50MOL   C46444662   3.865   3.224   5.354 -0.6058  0.3730  0.1291
   50MOL   C46544663   3.757   3.239   5.445  0.5826  0.3833 -0.0760
   50MOL   C46644664   3.624   3.238   5.405 -0.3089 -1.1553 -0.0730
   50MOL   O46744665   3.991   3.201   5.400 -0.6811 -0.1942  0.4420
   50MOL   C46844666   4.039   3.074   5.389  0.3178 -0.6959 -0.8832
   50MOL   C46944667   3.973   2.967   5.443 -0.6645 -0.3387  0.7676
   50MOL   C47044668   4.013   2.841   5.404 -0.1613  1.1097  0.6551
   50MOL   C47144669   4.121   2.817   5.314 -0.5759 -0.2398 -0.2059
   50MOL   C47244670   4.191   2.931   5.266 -0.0019 -0.5974 -0.3377
   50MOL   C47344671   4.139   3.060   5.291  0.1395  0.2146  0.0149
   50MOL   C47444672   4.163   2.684   5.272 -0.1188  0.1939  0.2806
   50MOL   C47544673   4.061   2.587   5.247 -0.1345 -1.0347 -0.1505
   50MOL   C47644674   4.099   2.453   5.207 -0.9696  0.2241 -0.0122
   50MOL   C47744675   4.231   2.409   5.213  0.2101 -0.7219  0.2941
   50MOL   C47844676   4.331   2.507   5.234  0.0411  0.5244  0.3470
   50MOL   C47944677   4.298   2.643   5.260  0.5218  0.3939 -0.1798
   50MOL   O48044678   4.284   2.291   5.162  0.1785 -0.1478  0.2985
   50MOL   H48144679   3.137   3.001   4.884 -0.3177  1.3320  0.4554
   50MOL   H48244680   3.200   3.157   5.047 -1.5672 -1.3220 -0.2158
   50MOL   H48344681   3.578   2.959   5.086 -0.0364  1.2214  0.4643
   50MOL   H48444682   3.510   2.797   4.910  0.8714  1.6034 -2.5865
   50MOL   H48544683   3.666   3.205   5.067 -0.2517  0.3736  0.7021
   50MOL   H48644684   3.904   3.200   5.137 -0.5405  0.0985 -0.0108
   50MOL   H48744685   3.777   3.243   5.551  0.3213 -1.6003  0.0608
   50MOL   H48844686   3.543   3.235   5.476 -0.0071 -1.2036  0.2667
   50MOL   H48944687   3.879   2.981   5.494 -0.1223 -1.1615  2.0189
   50MOL   H49044688   3.971   2.755   5.454  1.6628 -0.6177 -0.6826
   50MOL   H49144689   4.276   2.912   5.201 -0.3620 -0.0179 -0.9798
   50MOL   H49244690   4.186   3.145   5.244 -0.9931  0.6629 -0.3066
   50MOL   H49344691   3.958   2.616   5.244  0.2975  0.4149 -3.6014
   50MOL   H49444692   4.021   2.382   5.185 -0.2586 -0.3084 -0.8662
   50MOL   H49544693   4.438   2.489   5.234  0.0917  0.8275  0.7611
   50MOL   H49644694   4.371   2.721   5.277  0.4963 -0.0097  1.8953
   50MOL   C49744695   4.255   2.170   5.226 -0.0158 -0.8017 -0.9033
   50MOL   C49844696   4.297   2.050   5.174 -0.7549  0.0565 -0.0409
   50MOL   C49944697   4.275   1.928   5.247 -0.6023 -0.3462 -0.3809
   50MOL   C50044698   4.202   1.921   5.363 -0.4957  0.0515 -0.2251
   50MOL   C50144699   4.151   2.042   5.416 -0.1401 -0.0750 -0.3696
   50MOL   C50244700   4.180   2.166   5.351  0.7747 -0.2100  0.8682
   50MOL   S50344701   4.199   1.759   5.437  0.4650  0.0876  0.2417
   50MOL   O50444702   4.331   1.696   5.427 -0.1829  0.3169 -0.0684
   50MOL   O50544703   4.086   1.699   5.366 -0.5717 -0.0115  0.1741
   50MOL   C50644704   4.154   1.784   5.614  0.3576  0.3174 -0.9688
   50MOL   C50744705   4.016   1.789   5.641 -0.1158  0.3254 -0.0742
   50MOL   C50844706   3.972   1.808   5.772  0.9849 -0.6006 -0.3417
   50MOL   C50944707   4.060   1.834   5.879 -0.4272  0.1270 -1.2351
   50MOL   C51044708   4.199   1.832   5.849  0.2702  0.6812  0.0230
   50MOL   C51144709   4.243   1.802   5.723 -0.2212 -0.4034  0.0993
   50MOL   O51244710   4.012   1.864   6.002 -0.4905  0.4385 -0.2970
   50MOL   C51344711   3.911   1.954   6.012 -0.7017 -0.4358  0.2445
   50MOL   C51444712   3.921   2.077   5.947  0.2533  0.5027  0.2034
   50MOL   C51544713   3.812   2.165   5.955  0.0464 -0.3745 -0.4287
   50MOL   C51644714   3.699   2.131   6.029  0.2926  0.3216  0.3289
   50MOL   C51744715   3.694   2.009   6.098  0.3696 -0.1796  0.5305
   50MOL   C51844716   3.802   1.921   6.096 -0.7417 -0.4466 -0.1465
   50MOL   C51944717   3.578   2.221   6.029  0.1243 -0.4845 -0.2453
   50MOL   C52044718   3.529   2.272   5.910 -0.4592  0.7691  0.0582
   50MOL   C52144719   3.424   2.363   5.903  0.5189 -0.3802  0.0390
   50MOL   C52244720   3.354   2.391   6.017  1.0064 -0.1138 -0.6157
   50MOL   C52344721   3.399   2.345   6.141 -0.1934 -0.1332  0.0814
   50MOL   C52444722   3.507   2.249   6.148 -0.0427  0.1040  0.1960
   50MOL   O52544723   3.252   2.480   6.004 -0.2101  0.1196  0.2100
   50MOL   H52644724   4.348   2.052   5.078 -1.2706 -0.6331 -0.3325
   50MOL   H52744725   4.318   1.838   5.206  0.8629 -0.0576  0.4923
   50MOL   H52844726   4.088   2.044   5.504 -0.4250 -2.4158 -0.5010
   50MOL   H52944727   4.140   2.251   5.404 -0.9069  0.1598 -0.9310
   50MOL   H53044728   3.945   1.776   5.560  0.6768  1.1362 -0.9100
   50MOL   H53144729   3.867   1.804   5.797  0.1147  0.7991 -3.5713
   50MOL   H53244730   4.272   1.866   5.921  2.9974 -1.1034 -1.8047
   50MOL   H53344731   4.349   1.794   5.704 -0.4823 -1.9919 -0.8310
   50MOL   H53444732   4.001   2.107   5.881  0.4087  4.3800  2.0286
   50MOL   H53544733   3.821   2.253   5.893 -0.3581 -0.2700 -0.3388
   50MOL   H53644734   3.606   1.972   6.149 -2.1686  1.1507 -2.7604
   50MOL   H53744735   3.803   1.826   6.149  0.8874 -1.4481 -1.8840
   50MOL   H53844736   3.580   2.256   5.816 -2.0898  1.2616 -0.9499
   50MOL   H53944737   3.385   2.406   5.813  0.3623 -0.6856 -0.0414
   50MOL   H54044738   3.338   2.372   6.226 -3.1925  0.2755 -2.1241
   50MOL   H54144739   3.531   2.209   6.245 -1.1256 -0.1358  0.3775
   50MOL   C54244740   3.210   2.556   6.110  0.2302  0.1810  0.0580
   50MOL   C54344741   3.087   2.528   6.171  0.6999  0.0222 -0.1711
   50MOL   C54444742   3.036   2.603   6.280 -0.3672 -0.1118  0.2769
   50MOL   C54544743   3.104   2.718   6.326 -0.3765  0.2850 -0.0231
   50MOL   C54644744   3.230   2.748   6.267  0.3714  0.1157 -0.1973
   50MOL   C54744745   3.283   2.662   6.163  0.9950  0.0480  0.2998
   50MOL   S54844746   3.033   2.834   6.442  0.1390  0.1923 -0.0633
   50MOL   O54944747   3.126   2.870   6.548  0.1116  0.0816 -0.1983
   50MOL   O55044748   2.896   2.788   6.476  0.4121 -0.0710 -0.0883
   50MOL   C55144749   3.012   2.976   6.338  0.5444 -0.1266  0.9362
   50MOL   C55244750   2.896   2.982   6.258  0.9717 -0.1887 -0.6172
   50MOL   C55344751   2.878   3.099   6.171 -0.1893  0.2539  0.6542
   50MOL   C55444752   2.987   3.197   6.171 -0.1313  0.1736  0.4459
   50MOL   C55544753   3.097   3.188   6.258  0.8393  0.4345 -0.8718
   50MOL   C55644754   3.110   3.078   6.337  0.7329 -0.1487  0.5612
   50MOL   O55744755   2.979   3.301   6.085 -0.4509 -0.0015 -0.3075
   50MOL   C55844756   3.079   3.316   5.994 -0.1470 -0.7860  0.1624
   50MOL   C55944757   3.130   3.214   5.906 -0.6059  0.1359 -0.2862
   50MOL   C56044758   3.231   3.239   5.816  0.1080  0.5638  0.2184
   50MOL   C56144759   3.291   3.367   5.806 -0.8063 -0.2352 -0.1260
   50MOL   C56244760   3.243   3.466   5.903  0.2256  0.2901 -0.8881
   50MOL   C56344761   3.144   3.441   5.998  0.6363  0.9248  0.0006
   50MOL   C56444762   3.399   3.413   5.718  0.2592  0.0701  0.7771
   50MOL   C56544763   3.363   3.465   5.593 -0.2985  0.1269  0.1534
   50MOL   C56644764   3.457   3.541   5.512  0.3363 -0.3176  0.2451
   50MOL   C56744765   3.587   3.554   5.557 -0.1251  0.7192 -0.4887
   50MOL   C56844766   3.624   3.499   5.678 -0.1176  0.1747 -0.0056
   50MOL   C56944767   3.534   3.430   5.757  0.3162  0.2618 -0.5445
   50MOL   O57044768   3.678   3.621   5.484  0.1904  0.1475  1.1870
   50MOL   H57144769   3.029   2.442   6.140 -0.6941  0.2568  1.6483
   50MOL   H57244770   2.950   2.575   6.339 -0.2202  1.2083  1.1439
   50MOL   H57344771   3.287   2.837   6.288  0.8318  0.0112 -0.9498
   50MOL   H57444772   3.380   2.685   6.122  0.5057 -0.8002 -1.4163
   50MOL   H57544773   2.820   2.907   6.272  0.6602 -0.1026 -1.7800
   50MOL   H57644774   2.788   3.118   6.116 -1.0826 -0.1928  1.9229
   50MOL   H57744775   3.166   3.271   6.264 -0.3451  1.2737  1.9168
   50MOL   H57844776   3.198   3.062   6.398  2.3037  0.2033 -1.5722
   50MOL   H57944777   3.094   3.112   5.906  0.6401 -0.3158 -0.6763
   50MOL   H58044778   3.253   3.162   5.744  2.3811  0.4402  0.9981
   50MOL   H58144779   3.285   3.566   5.901  2.3377 -0.5700 -0.9510
   50MOL   H58244780   3.108   3.504   6.079 -0.0008  2.5973 -1.5568
   50MOL   H58344781   3.259   3.446   5.570  0.0540 -0.3543 -1.0985
   50MOL   H58444782   3.426   3.578   5.415  2.2311 -0.2538 -0.3667
   50MOL   H58544783   3.719   3.526   5.722  1.4411 -1.8873 -2.0117
   50MOL   H58644784   3.560   3.400   5.858 -0.3433  1.3204 -0.0501
   50MOL   C58744785   3.690   3.751   5.521  0.0188 -0.0105  0.1938
   50MOL   C58844786   3.606   3.843   5.443 -0.9506  0.8062 -0.3118
   50MOL   C58944787   3.621   3.978   5.462 -0.2152 -0.0688  0.3980
   50MOL   C59044788   3.708   4.025   5.560  0.6117  0.6422  0.3811
   50MOL   C59144789   3.786   3.935   5.640 -0.1377 -0.0929  0.5591
   50MOL   C59244790   3.789   3.797   5.616 -0.0883 -0.9807 -0.4662
   50MOL   S59344791   3.717   4.206   5.580  0.1775 -0.1010 -0.1039
   50MOL   O59444792   3.776   4.226   5.716 -0.1505  0.2731  0.1592
   50MOL   O59544793   3.580   4.259   5.545 -0.1450 -0.2032 -0.9201
   50MOL   C59644794   3.833   4.260   5.451 -0.0855  0.6732  0.5584
   50MOL   C59744795   3.953   4.327   5.479  0.6882  0.4690  0.2398
   50MOL   C59844796   4.026   4.375   5.369  0.4305  0.1445 -0.6319
   50MOL   C59944797   3.983   4.349   5.239  0.0196 -0.6644 -0.7984
   50MOL   C60044798   3.881   4.257   5.212 -0.1869  0.1506 -0.3165
   50MOL   C60144799   3.803   4.216   5.322  0.1476 -0.3802  0.7098
   50MOL   O60244800   4.064   4.397   5.138  0.5199  0.0775 -0.1080
   50MOL   C60344801   4.176   4.322   5.104  0.1716  0.1068 -0.9144
   50MOL   C60444802   4.278   4.396   5.036  0.0903  0.4884  0.4149
   50MOL   C60544803   4.392   4.321   4.987  0.5208 -0.2627 -0.2314
   50MOL   C60644804   4.423   4.192   5.038  0.2935  0.5541  0.5258
   50MOL   C60744805   4.321   4.126   5.118  0.0374  0.4639 -0.3808
   50MOL   C60844806   4.201   4.192   5.149  0.5373  0.9696 -0.6630
   50MOL   C60944807   4.548   4.131   4.992 -0.2221  0.1740  0.1901
   50MOL   C61044808   4.549   4.011   4.918 -0.2366 -0.5107  0.1776
   50MOL   C61144809   4.666   3.961   4.863 -0.2294 -0.8863 -0.3517
   50MOL   C61244810   4.782   4.032   4.881 -0.1367 -0.4031  1.0127
   50MOL   C61344811   4.786   4.144   4.969  0.3347  0.4726  0.7544
   50MOL   C61444812   4.670   4.199   5.020 -0.6562 -0.0830 -0.3056
   50MOL   O61544813   4.892   3.995   4.809  0.0189 -0.2701 -0.4089
   50MOL   H61644814   3.539   3.808   5.365 -0.9054  0.3322 -0.1405
   50MOL   H61744815   3.558   4.047   5.407  0.6835  0.4973  0.0694
   50MOL   H61844816   3.849   3.957   5.725  0.0399  0.5276  0.2650
   50MOL   H61944817   3.847   3.739   5.686 -0.9300  1.0709  2.0153
   50MOL   H62044818   3.978   4.350   5.581 -1.2518  3.8098  0.0361
   50MOL   H62144819   4.114   4.433   5.393  1.3871 -1.1854 -0.8482
   50MOL   H62244820   3.854   4.240   5.109  0.0968 -1.0533 -0.1950
   50MOL   H62344821   3.706   4.169   5.313 -0.7238  1.1410  1.9579
   50MOL   H62444822   4.259   4.498   5.006 -1.1914 -0.3263 -1.6854
   50MOL   H62544823   4.464   4.373   4.925  1.5033  0.7138  1.6779
   50MOL   H62644824   4.338   4.029   5.163 -0.2948 -0.5380 -2.3659
   50MOL   H62744825   4.131   4.129   5.202  0.1863 -0.5922 -2.8976
   50MOL   H62844826   4.458   3.959   4.892  1.0826 -1.9445 -1.6452
   50MOL   H62944827   4.666   3.872   4.802  0.9412 -1.8302  0.9996
   50MOL   H63044828   4.884   4.189   4.978 -0.8280  3.7077 -1.6407
   50MOL   H63144829   4.673   4.285   5.086 -4.2782  1.3974 -1.9631
   50MOL   C63244830   4.928   4.041   4.686  0.1204 -0.4826 -1.3572
   50MOL   C63344831   5.060   4.022   4.635 -0.4318 -0.1261 -0.3389
   50MOL   C63444832   5.096   4.081   4.513  0.1444  0.6302  0.0239
   50MOL   C63544833   5.000   4.147   4.432 -0.7128  0.5517  0.2948
   50MOL   C63644834   4.865   4.159   4.477 -0.3949 -1.0725  0.6627
   50MOL   C63744835   4.828   4.115   4.607 -0.7024  0.3937 -0.9024
   50MOL   S63844836   5.031   4.234   4.275  0.0990 -0.4123  0.0034
   50MOL   O63944837   4.931   4.201   4.172  0.1913  0.2729  0.4159
   50MOL   O64044838   5.179   4.220   4.256  0.1821 -0.0009 -0.0129
   50MOL   C64144839   4.996   4.396   4.321  0.3191 -0.0883 -0.1777
   50MOL   C64244840   5.094   4.456   4.399  0.0182 -0.0533 -0.5581
   50MOL   C64344841   5.074   4.590   4.447  0.2961  0.1974 -0.1914
   50MOL   C64444842   4.961   4.664   4.415 -0.3081 -1.2174 -0.3145
   50MOL   C64544843   4.867   4.602   4.329 -0.7914  0.1467  0.5060
   50MOL   C64644844   4.881   4.469   4.285 -0.1916  0.3653 -0.3249
   50MOL   O64744845   4.931   4.790   4.464 -0.4830  0.0368  0.6773
   50MOL   C64844846   5.031   4.861   4.526 -0.0056  0.7786 -0.0650
   50MOL   C64944847   5.068   4.833   4.660 -1.1105 -0.0832  0.3701
   50MOL   C65044848   5.166   4.909   4.723 -0.3482 -0.5194  0.2585
   50MOL   C65144849   5.229   5.013   4.661 -0.3543  0.1499 -0.5149
   50MOL   C65244850   5.198   5.046   4.530  0.3945  0.2471 -0.1182
   50MOL   C65344851   5.100   4.969   4.463 -1.1198 -0.5950  0.2991
   50MOL   C65444852   5.315   5.098   4.740  0.3749  0.0894  0.2699
   50MOL   C65544853   5.455   5.091   4.727 -0.3691  0.4188  0.2082
   50MOL   C65644854   5.525   5.194   4.786 -0.1539  0.3717 -0.9234
   50MOL   C65744855   5.475   5.301   4.867 -0.4308 -0.6496 -0.9132
   50MOL   C65844856   5.338   5.296   4.892  0.6511  0.1069  0.4358
   50MOL   C65944857   5.256   5.195   4.830  0.0235  0.6563  0.4547
   50MOL   O66044858   5.547   5.411   4.912  0.2890  0.8422  0.1952
   50MOL   H66144859   5.120   3.951   4.689  0.2631 -0.0226 -0.9717
   50MOL   H66244860   5.194   4.050   4.481 -1.0048 -2.5673 -0.5880
   50MOL   H66344861   4.794   4.202   4.408 -0.4505 -1.4179  0.5033
   50MOL   H66444862   4.726   4.121   4.640  0.0517  0.3726  1.5205
   50MOL   H66544863   5.176   4.394   4.433  0.8079  1.6256  0.6798
   50MOL   H66644864   5.147   4.627   4.517  0.0018  2.7030 -1.1746
   50MOL   H66744865   4.780   4.660   4.301 -0.7947 -1.5551 -3.3639
   50MOL   H66844866   4.815   4.436   4.207 -2.5928  0.3990  1.6121
   50MOL   H66944867   5.017   4.752   4.710  0.0163 -0.2151  1.3426
   50MOL   H67044868   5.185   4.894   4.828 -2.3765  0.0996  0.7288
   50MOL   H67144869   5.256   5.117   4.474  0.5842 -0.7980 -1.2634
   50MOL   H67244870   5.067   5.006   4.367  0.3750  1.0584  0.3930
   50MOL   H67344871   5.508   5.021   4.664 -1.1588  1.1478 -1.2764
   50MOL   H67444872   5.630   5.199   4.761 -0.1986 -0.3707 -1.2823
   50MOL   H67544873   5.297   5.381   4.945  1.9816  2.4878 -2.2070
   50MOL   H67644874   5.152   5.208   4.853 -0.0492  0.7191  0.0906
   50MOL   C67744875   5.590   5.493   4.817  0.4195 -0.6130  0.0054
   50MOL   C67844876   5.494   5.557   4.729 -1.0125  0.1227 -0.1049
   50MOL   C67944877   5.536   5.640   4.626  0.5633 -0.4714 -0.0951
   50MOL   C68044878   5.672   5.676   4.617  0.6571 -0.0761  0.0657
   50MOL   C68144879   5.770   5.619   4.700 -0.0256 -0.0505 -0.5216
   50MOL   C68244880   5.727   5.523   4.793 -0.0521  0.4303  0.2158
   50MOL   S68344881   5.721   5.782   4.473 -0.3255  0.1972 -0.3762
   50MOL   O68444882   5.868   5.778   4.454  0.0489  0.1171 -0.2146
   50MOL   O68544883   5.655   5.913   4.480  0.1194 -0.1742 -0.2622
   50MOL   C68644884   5.645   5.703   4.334  0.4366  0.5866 -0.2017
   50MOL   C68744885   5.689   5.577   4.300 -0.2213  0.0351  0.0385
   50MOL   C68844886   5.631   5.513   4.186  0.1271 -0.4649 -0.3138
   50MOL   C68944887   5.532   5.579   4.110 -0.8912  0.3143 -0.5953
   50MOL   C69044888   5.497   5.712   4.145  0.5380 -0.4188 -0.3855
   50MOL   C69144889   5.548   5.773   4.260 -0.0512 -0.1282  0.3083
   50MOL   O69244890   5.470   5.515   4.006  0.7360 -0.1481 -0.1113
   50MOL   C69344891   5.529   5.486   3.892 -0.2561  0.0151  0.0470
   50MOL   C69444892   5.567   5.356   3.862  0.3072  0.4442 -0.3633
   50MOL   C69544893   5.624   5.328   3.743  0.2362 -0.2872 -0.1073
   50MOL   C69644894   5.634   5.417   3.634 -0.5594 -0.2074  0.7308
   50MOL   C69744895   5.615   5.551   3.665 -0.3828  0.0212 -0.3251
   50MOL   C69844896   5.562   5.583   3.794 -0.0953 -0.6700 -0.2354
   50MOL   C69944897   5.684   5.382   3.505  0.4251  0.2890 -0.1071
   50MOL   C70044898   5.621   5.270   3.442 -0.2128 -0.0323  0.1884
   50MOL   C70144899   5.669   5.215   3.323 -0.4259 -0.0253 -0.6702
   50MOL   C70244900   5.786   5.264   3.261  0.0003  0.1075 -0.1613
   50MOL   C70344901   5.856   5.375   3.323 -0.8197 -0.1416  0.5291
   50MOL   C70444902   5.801   5.431   3.442  0.1657 -0.2416 -0.3979
   50MOL   O70544903   5.827   5.214   3.136  0.4333 -0.5606  0.1370
   50MOL   H70644904   5.389   5.539   4.742 -1.1348 -0.2237 -1.5107
   50MOL   H70744905   5.470   5.694   4.560 -0.0227  0.3114  1.1100
   50MOL   H70844906   5.876   5.631   4.683 -0.3201  0.4536 -2.0435
   50MOL   H70944907   5.797   5.473   4.858  1.4403  1.3899 -0.6180
   50MOL   H71044908   5.773   5.531   4.350 -0.7334 -0.2053  0.6796
   50MOL   H71144909   5.660   5.411   4.163 -0.9810 -0.4242 -1.9674
   50MOL   H71244910   5.432   5.772   4.083  0.3437  0.4240  0.6088
   50MOL   H71344911   5.519   5.874   4.285  0.2991 -0.5177  2.4177
   50MOL   H71444912   5.563   5.274   3.932 -0.6996 -1.4384 -2.5617
   50MOL   H71544913   5.636   5.223   3.720  1.0249  0.0434 -1.2948
   50MOL   H71644914   5.637   5.624   3.588  1.0694 -0.8773 -0.7812
   50MOL   H71744915   5.531   5.685   3.815 -3.7634 -0.9138 -3.7861
   50MOL   H71844916   5.535   5.224   3.487  0.8716 -2.9926 -0.6379
   50MOL   H71944917   5.599   5.150   3.273  0.8628 -1.6158 -0.4674
   50MOL   H72044918   5.948   5.406   3.276 -1.4762  0.3164 -0.4853
   50MOL   H72144919   5.858   5.506   3.495 -0.9135  0.8296 -0.7414
   50MOL   C72244920   5.781   5.091   3.094  0.6359 -0.0729 -0.0277
   50MOL   C72344921   5.648   5.085   3.043 -0.2783 -0.1952  0.2273
   50MOL   C72444922   5.588   4.961   3.017 -0.6698 -0.5516  0.1070
   50MOL   C72544923   5.660   4.844   3.040 -0.2029 -0.1847 -0.7857
   50MOL   C72644924   5.793   4.840   3.084 -0.3384  0.0064  0.3640
   50MOL   C72744925   5.851   4.969   3.110 -0.5482 -1.0528 -0.0522
   50MOL   S72844926   5.583   4.680   3.012  0.2430 -0.0560  0.0674
   50MOL   O72944927   5.686   4.573   3.011 -0.0377 -0.3859 -0.2718
   50MOL   O73044928   5.509   4.695   2.885 -0.3041 -0.4248 -0.0625
   50MOL   C73144929   5.464   4.662   3.148 -0.0953 -0.1995  0.0766
   50MOL   C73244930   5.490   4.571   3.256 -0.3440 -0.2966 -0.1021
   50MOL   C73344931   5.401   4.569   3.360 -0.0986  0.2244 -0.1348
   50MOL   C73444932   5.291   4.653   3.365  0.0709  0.6285 -0.0731
   50MOL   C73544933   5.262   4.742   3.261 -0.2805 -0.6589 -0.3901
   50MOL   C73644934   5.348   4.746   3.149 -0.3913 -0.0478  0.1442
   50MOL   O73744935   5.204   4.643   3.466  0.6631 -0.1429  0.1488
   50MOL   C73844936   5.068   4.654   3.444 -1.0124 -0.7637 -0.4622
   50MOL   C73944937   5.012   4.779   3.480 -0.5223  0.2618 -0.6790
   50MOL   C74044938   4.871   4.794   3.469 -0.0375 -0.0999  0.1253
   50MOL   C74144939   4.790   4.696   3.407  0.5805 -0.3484 -0.3554
   50MOL   C74244940   4.860   4.576   3.363  0.4353 -0.3500 -0.6781
   50MOL   C74344941   5.001   4.556   3.374 -0.1077  0.4719  0.3015
   50MOL   C74444942   4.647   4.717   3.400  0.0959  0.5215  0.3387
   50MOL   C74544943   4.545   4.619   3.432 -0.5082  0.1776  0.2547
   50MOL   C74644944   4.409   4.650   3.415  0.4162 -0.0159 -0.1176
   50MOL   C74744945   4.368   4.772   3.356  0.5730 -0.3673 -0.3005
   50MOL   C74844946   4.469   4.863   3.326 -0.4480 -0.5007  0.5303
   50MOL   C74944947   4.603   4.839   3.350  0.0423 -0.1948  0.8706
   50MOL   O75044948   4.235   4.797   3.345  0.2400  0.1410 -0.5821
   50MOL   H75144949   5.591   5.173   3.017  0.9640 -0.0630 -2.2294
   50MOL   H75244950   5.484   4.959   2.991 -0.5832  1.0406 -0.4503
   50MOL   H75344951   5.845   4.748   3.104  1.6132  0.6495 -1.5384
   50MOL   H75444952   5.949   4.975   3.155  0.3881  1.0476 -2.2625
   50MOL   H75544953   5.582   4.515   3.249 -0.1944 -0.0590 -0.0183
   50MOL   H75644954   5.424   4.502   3.442  0.2283  0.6278  0.1035
   50MOL   H75744955   5.172   4.802   3.265  0.2850  0.1522  0.5905
   50MOL   H75844956   5.335   4.816   3.068 -0.6331 -0.6131 -0.3037
   50MOL   H75944957   5.074   4.855   3.527  1.2974 -0.2199 -2.2652
   50MOL   H76044958   4.826   4.889   3.496 -0.3015 -0.0851 -0.3610
   50MOL   H76144959   4.801   4.495   3.321  1.6971 -2.2514  1.1271
   50MOL   H76244960   5.056   4.472   3.334  0.4634  0.4499  1.1267
   50MOL   H76344961   4.581   4.524   3.467 -0.2607  0.3389  0.4377
   50MOL   H76444962   4.331   4.591   3.460 -0.1179  0.3739 -0.5229
   50MOL   H76544963   4.435   4.962   3.296 -0.0424 -1.0964 -1.9969
   50MOL   H76644964   4.677   4.913   3.322 -0.2648  0.1632  0.9933
   50MOL   C76744965   4.167   4.792   3.461 -0.4334  0.5651 -0.5193
   50MOL   C76844966   4.056   4.702   3.470 -0.5203  0.4561 -0.1083
   50MOL   C76944967   3.975   4.695   3.584  0.1652 -0.1772 -0.0568
   50MOL   C77044968   4.004   4.774   3.699 -0.3627  0.0768 -0.4859
   50MOL   C77144969   4.125   4.845   3.698 -0.3716  0.5140 -0.1489
   50MOL   C77244970   4.196   4.861   3.580 -0.8049 -0.2548 -0.3652
   50MOL   S77344971   3.908   4.766   3.847 -0.5099 -0.2252 -0.0094
   50MOL   O77444972   3.771   4.789   3.799  0.3480 -0.3189  0.8758
   50MOL   O77544973   3.967   4.861   3.943 -0.0120  0.0533 -0.2034
   50MOL   C77644974   3.909   4.595   3.916  0.1353 -0.3741  0.3413
   50MOL   C77744975   3.808   4.550   4.001  0.4202 -0.4154  0.1909
   50MOL   C77844976   3.802   4.417   4.052  0.1064  0.1332 -0.3901
   50MOL   C77944977   3.896   4.325   4.013 -0.7020 -0.3070  0.8622
   50MOL   C78044978   3.994   4.371   3.915  0.0107  0.0558 -0.2481
   50MOL   C78144979   4.005   4.502   3.872  0.3625 -0.1834 -0.4162
   50MOL   O78244980   3.896   4.193   4.062  0.3774 -1.0396  0.3175
   50MOL   C78344981   3.931   4.085   3.982  0.6017 -0.5033 -0.1023
   50MOL   C78444982   4.059   4.031   4.002 -0.5889  0.1607  0.2566
   50MOL   C78544983   4.108   3.936   3.914 -0.4652 -0.2456 -0.1301
   50MOL   C78644984   4.023   3.883   3.818  0.4206  0.1550  0.6150
   50MOL   C78744985   3.893   3.930   3.798  0.4113 -0.4865  0.2661
   50MOL   C78844986   3.848   4.039   3.878  0.0769 -0.2411 -0.4919
   50MOL   C78944987   4.080   3.786   3.719 -0.0059 -0.3628 -0.7249
   50MOL   C79044988   4.062   3.813   3.579  0.0420  0.1530 -0.0712
   50MOL   C79144989   4.123   3.734   3.483  0.6408  0.0427 -0.0897
   50MOL   C79244990   4.200   3.617   3.526 -0.1953 -0.5754  0.2812
   50MOL   C79344991   4.227   3.597   3.663  0.0039 -0.1772  0.2996
   50MOL   C79444992   4.168   3.678   3.756  0.0996  0.3952 -0.1812
   50MOL   O79544993   4.240   3.517   3.432  0.0647 -0.0878 -0.3572
   50MOL   H79644994   4.032   4.647   3.380  1.9008 -0.5686 -0.1598
   50MOL   H79744995   3.879   4.645   3.582 -0.5614  1.0423  2.8394
   50MOL   H79844996   4.160   4.908   3.779  0.2026 -0.8312  0.6677
   50MOL   H79944997   4.285   4.922   3.572 -0.2085 -0.9051  1.1682
   50MOL   H80044998   3.740   4.625   4.037  2.2047  1.1292  0.4294
   50MOL   H80144999   3.738   4.397   4.137 -0.8497  0.1344 -1.1076
   50MOL   H80245000   4.066   4.301   3.876  0.5380  0.7494 -0.5143
   50MOL   H80345001   4.082   4.529   3.801 -0.4480 -0.4579 -1.4173
   50MOL   H80445002   4.120   4.074   4.080 -1.5202  0.0872  1.0297
   50MOL   H80545003   4.211   3.907   3.926 -1.1710 -2.3332  1.1016
   50MOL   H80645004   3.839   3.885   3.716  0.4687  2.4020 -1.4068
   50MOL   H80745005   3.744   4.068   3.866 -0.2768 -0.9347  0.7582
   50MOL   H80845006   3.998   3.888   3.535 -0.0989  1.0780  1.6776
   50MOL   H80945007   4.094   3.755   3.381  0.1319 -1.2688 -0.2183
   50MOL   H81045008   4.290   3.512   3.687 -0.6417 -1.6568 -2.9436
   50MOL   H81145009   4.192   3.651   3.858 -0.0122 -3.1606 -1.0344
   50MOL   C81245010   4.320   3.552   3.335 -0.7270 -0.5141 -0.2433
   50MOL   C81345011   4.266   3.562   3.209 -0.0076  0.8977  0.1706
   50MOL   C81445012   4.349   3.603   3.101  0.0379 -0.1105  0.4951
   50MOL   C81545013   4.481   3.636   3.124  0.3992  0.4221  0.2807
   50MOL   C81645014   4.540   3.620   3.249  0.4144  0.0333  0.5084
   50MOL   C81745015   4.457   3.587   3.361  0.7486  0.1390  0.9915
   50MOL   S81845016   4.586   3.689   2.990 -0.1616 -0.1455  0.3528
   50MOL   O81945017   4.517   3.645   2.864 -0.0827 -0.3182 -0.0962
   50MOL   O82045018   4.722   3.643   3.018  0.1699  0.2289 -0.7535
   50MOL   C82145019   4.571   3.870   3.009 -0.2787 -0.1619  0.6986
   50MOL   C82245020   4.685   3.953   3.047  0.0495  0.9956 -0.1018
   50MOL   C82345021   4.666   4.092   3.072  0.0773  0.3471 -0.3559
   50MOL   C82445022   4.533   4.148   3.067  0.0611  0.5355 -0.4647
   50MOL   C82545023   4.430   4.068   3.023 -0.4563  0.2853 -0.6194
   50MOL   C82645024   4.445   3.933   2.991 -0.3245  0.0519 -0.0639
   50MOL   O82745025   4.510   4.279   3.084 -0.4553  0.1108 -0.0953
   50MOL   C82845026   4.571   4.371   3.008  0.2898 -0.1497 -0.1586
   50MOL   C82945027   4.629   4.341   2.883 -0.0092  1.4700  0.0946
   50MOL   C83045028   4.704   4.439   2.813  0.4091 -0.2348  0.5844
   50MOL   C83145029   4.721   4.573   2.863 -0.5667 -0.0635 -0.2844
   50MOL   C83245030   4.665   4.606   2.985 -0.3315 -0.2563 -0.3705
   50MOL   C83345031   4.598   4.504   3.056 -0.1902  0.0321  0.5220
   50MOL   C83445032   4.784   4.671   2.770  0.3480 -0.0389 -0.9502
   50MOL   C83545033   4.746   4.805   2.776 -0.2741  0.5643  0.5942
   50MOL   C83645034   4.799   4.896   2.682 -0.8596 -0.7904 -0.0953
   50MOL   C83745035   4.895   4.861   2.588  0.9708  0.6507 -0.4488
   50MOL   C83845036   4.936   4.724   2.579 -0.3439 -0.3895 -0.7921
   50MOL   C83945037   4.888   4.634   2.676  0.4755 -0.1996 -0.0240
   50MOL   O84045038   4.950   4.945   2.501 -0.2091 -0.0213  0.4676
   50MOL   H84145039   4.162   3.542   3.187 -0.2374  0.3306  1.7376
   50MOL   H84245040   4.308   3.619   3.003  1.3631  0.9250  0.1006
   50MOL   H84345041   4.640   3.653   3.271  0.8583 -0.3107 -0.9264
   50MOL   H84445042   4.490   3.588   3.464 -0.3245 -0.6704  1.3470
   50MOL   H84545043   4.784   3.910   3.043 -0.5762 -0.3702 -1.6200
   50MOL   H84645044   4.751   4.156   3.088 -0.7831  1.3198  0.4147
   50MOL   H84745045   4.332   4.109   3.008 -0.5359 -0.5774 -2.5882
   50MOL   H84845046   4.363   3.870   2.959 -0.4379 -1.2302  2.6287
   50MOL   H84945047   4.618   4.245   2.835 -1.7928  2.9960 -2.6646
   50MOL   H85045048   4.750   4.413   2.718  0.2413 -0.0986  0.4635
   50MOL   H85145049   4.681   4.704   3.027  0.0449  0.5194 -2.2926
   50MOL   H85245050   4.554   4.535   3.149  2.5666  0.1516  1.8439
   50MOL   H85345051   4.687   4.844   2.858 -0.6257  2.1566 -0.3888
   50MOL   H85445052   4.774   5.001   2.693 -1.1401 -1.1041  2.7203
   50MOL   H85545053   4.997   4.688   2.497  0.1397 -1.5338  0.0493
   50MOL   H85645054   4.927   4.534   2.667 -0.4318 -0.5709  0.1402
   50MOL   C85745055   5.059   5.015   2.544 -0.4949 -0.2242  0.1467
   50MOL   C85845056   5.038   5.136   2.615  0.1180  0.0142  0.3486
   50MOL   C85945057   5.144   5.195   2.684  0.5982  0.1305  0.6315
   50MOL   C86045058   5.273   5.140   2.667  0.1875  0.3555  0.3443
   50MOL   C86145059   5.298   5.019   2.588  0.3975  0.0771 -0.2311
   50MOL   C86245060   5.187   4.953   2.525 -0.0555  1.2143 -0.1215
   50MOL   S86345061   5.399   5.213   2.759 -0.0519  0.2665  0.2736
   50MOL   O86445062   5.494   5.105   2.790 -0.1092  0.0035 -0.3054
   50MOL   O86545063   5.332   5.282   2.870 -0.5385  0.1044  0.6759
   50MOL   C86645064   5.486   5.322   2.652 -0.9883  0.3587 -0.1199
   50MOL   C86745065   5.594   5.382   2.712 -0.7654 -0.0758 -0.1847
   50MOL   C86845066   5.682   5.464   2.635  0.6722  0.6362 -0.0757
   50MOL   C86945067   5.644   5.499   2.504 -0.1751 -0.4050  0.5295
   50MOL   C87045068   5.523   5.450   2.453 -0.1058  0.3904  0.0677
   50MOL   C87145069   5.451   5.356   2.521 -0.2078  0.6104  0.0589
   50MOL   O87245070   5.735   5.574   2.431 -0.1023  0.1352  0.2725
   50MOL   C87345071   5.783   5.534   2.309 -0.0893  0.8158 -0.7697
   50MOL   C87445072   5.731   5.592   2.191  0.0470  0.5799  0.7311
   50MOL   C87545073   5.761   5.532   2.070  0.6629 -0.3221 -0.0645
   50MOL   C87645074   5.853   5.427   2.056  0.5126 -0.0921 -0.2057
   50MOL   C87745075   5.915   5.377   2.174 -0.0941  0.3695  0.7954
   50MOL   C87845076   5.879   5.426   2.302  1.3467  0.1722  0.0510
   50MOL   C87945077   5.881   5.372   1.916 -0.1025  0.5796  0.1183
   50MOL   C88045078   5.866   5.445   1.794  0.8709  0.2783  0.0058
   50MOL   C88145079   5.886   5.389   1.668 -0.0099 -0.1602  0.3272
   50MOL   C88245080   5.935   5.261   1.655  0.2615  0.3859 -0.4393
   50MOL   C88345081   5.948   5.182   1.776  0.6833 -0.2940  0.0808
   50MOL   C88445082   5.920   5.239   1.898 -0.2482 -0.3403 -0.4973
   50MOL   O88545083   5.967   5.198   1.533  0.0514 -0.0966 -0.2727
   50MOL   H88645084   4.941   5.183   2.627 -0.3229 -0.5300 -1.0907
   50MOL   H88745085   5.133   5.285   2.742 -0.1441 -0.1394  0.9197
   50MOL   H88845086   5.401   4.986   2.580 -0.0516 -2.1502  2.3685
   50MOL   H88945087   5.189   4.857   2.476  1.0006  0.8190  0.6924
   50MOL   H89045088   5.628   5.363   2.813  0.3896  0.1768 -0.5101
   50MOL   H89145089   5.774   5.504   2.675  1.4337 -0.2139 -0.9480
   50MOL   H89245090   5.486   5.475   2.355  0.1925 -0.6008 -0.2961
   50MOL   H89345091   5.363   5.316   2.473  0.6892 -1.8156  0.3943
   50MOL   H89445092   5.650   5.663   2.195  0.1660  0.7990 -0.6858
   50MOL   H89545093   5.717   5.582   1.985  0.7253 -0.4155 -0.1514
   50MOL   H89645094   5.980   5.291   2.170  0.6305  0.9863 -0.9285
   50MOL   H89745095   5.930   5.395   2.393  1.2962  0.1344  0.0658
   50MOL   H89845096   5.825   5.544   1.804 -0.2444 -0.1505 -0.2391
   50MOL   H89945097   5.877   5.454   1.582 -0.5703 -0.0389  0.4770
   50MOL   H90045098   5.990   5.083   1.772 -0.2445 -0.9152  3.8957
   50MOL   H90145099   5.941   5.176   1.983 -1.6309  0.8855  0.7723
   50MOL   H90245100   5.922   5.250   1.468  0.4909 -0.0930 -0.5788
   51MOL     C145101   7.959   5.264   5.375  0.4464 -0.7149 -0.5412
   51MOL     C245102   7.832   5.283   5.311 -0.1265 -0.1902  0.4935
   51MOL     C345103   7.791   5.192   5.209 -0.1980 -0.2126  0.1969
   51MOL     C445104   7.872   5.087   5.175 -0.3195  0.8651  0.2959
   51MOL     C545105   7.999   5.071   5.238  0.3507  0.2920 -0.4342
   51MOL     C645106   8.044   5.153   5.346 -0.5856  0.7337  0.3833
   51MOL     S745107   7.812   4.981   5.041  0.2578 -0.2259 -0.2927
   51MOL     O845108   7.751   5.074   4.939  0.4826  0.6347 -0.2298
   51MOL     O945109   7.730   4.875   5.099  0.3046 -0.6072  0.3967
   51MOL    C1045110   7.960   4.901   4.976  0.2182 -0.5433 -0.4550
   51MOL    C1145111   7.972   4.760   4.983 -0.4181 -0.4141 -0.3582
   51MOL    C1245112   8.092   4.706   4.946  0.2477  0.5486 -0.3725
   51MOL    C1345113   8.200   4.784   4.905 -0.0450  0.2528  0.7390
   51MOL    C1445114   8.189   4.924   4.890  0.3658 -0.4428  0.7044
   51MOL    C1545115   8.061   4.982   4.925 -0.8854  0.2715 -0.1449
   51MOL    O1645116   8.325   4.727   4.893  0.1978  1.1289 -0.4597
   51MOL    C1745117   8.342   4.626   4.799 -0.4173 -0.0731  0.7730
   51MOL    C1845118   0.008   4.494   4.828 -0.3500  0.4879 -0.5716
   51MOL    C1945119   0.045   4.408   4.724 -0.4954  0.1055  0.4473
   51MOL    C2045120   0.058   4.451   4.587 -0.1892 -0.5700  0.8594
   51MOL    C2145121   0.015   4.578   4.559 -0.0810  0.2306  0.2044
   51MOL    C2245122   8.351   4.666   4.663 -0.2417  0.1730  0.5491
   51MOL    C2345123   0.115   4.364   4.483 -0.1124  0.2032  0.5367
   51MOL    C2445124   0.055   4.353   4.352 -0.1370  0.2642 -0.3375
   51MOL    C2545125   0.111   4.287   4.245  0.2819 -0.6267  0.3599
   51MOL    C2645126   0.221   4.200   4.267  0.0595 -0.4649 -0.0234
   51MOL    C2745127   0.272   4.187   4.396  0.1517  0.6800  0.3892
   51MOL    C2845128   0.218   4.266   4.502 -0.3742 -0.1581  0.0926
   51MOL    O2945129   0.279   4.132   4.162  0.2557 -0.4779 -0.2108
   51MOL    H3045130   7.775   5.371   5.339 -0.1301  0.7830 -2.4304
   51MOL    H3145131   7.691   5.204   5.172  0.2054  0.6357 -0.6269
   51MOL    H3245132   8.074   4.998   5.209  1.4204  0.9856  0.5351
   51MOL    H3345133   8.143   5.140   5.388 -0.8110 -1.3661  0.3339
   51MOL    H3445134   7.894   4.701   5.030  1.0223 -1.4315  0.8130
   51MOL    H3545135   8.105   4.599   4.944  0.4255  0.5577  0.1611
   51MOL    H3645136   8.273   4.985   4.859 -0.1282  1.9264  3.8032
   51MOL    H3745137   8.038   5.087   4.916 -0.9775  0.1336 -1.5877
   51MOL    H3845138   0.016   4.458   4.930  0.7693  0.3697 -0.6945
   51MOL    H3945139   0.052   4.303   4.744 -0.0533  0.0470 -0.0022
   51MOL    H4045140   0.033   4.616   4.459 -0.8888 -0.8244 -0.3534
   51MOL    H4145141   8.312   4.761   4.632  2.2652  1.1048  0.1580
   51MOL    H4245142   8.326   4.399   4.328  0.4729  0.9719 -1.3802
   51MOL    H4345143   0.067   4.291   4.146  0.5372  2.6733  0.3437
   51MOL    H4445144   0.360   4.126   4.411 -1.4077 -1.4165  1.2819
   51MOL    H4545145   0.272   4.255   4.595  1.7197 -1.7013 -1.2514
   51MOL    H4645146   8.000   5.344   5.435 -1.6089 -0.1611  0.1441
   51MOL    C4745147   0.412   4.159   4.131  0.8369  0.3497 -0.9982
   51MOL    C4845148   0.499   4.063   4.079 -0.3550 -1.0880 -0.1600
   51MOL    C4945149   0.639   4.091   4.067 -0.7025  0.0410  0.1581
   51MOL    C5045150   0.692   4.217   4.102 -0.8481 -0.3120 -0.1715
   51MOL    C5145151   0.603   4.318   4.141  0.2257  0.0017 -0.9044
   51MOL    C5245152   0.464   4.288   4.159  0.3736  0.1167 -0.7343
   51MOL    S5345153   0.866   4.262   4.074 -0.3040  0.2546  0.2861
   51MOL    O5445154   0.868   4.268   3.928 -0.0574  0.6437  0.2616
   51MOL    O5545155   0.948   4.162   4.146  0.3548 -0.0234  0.2172
   51MOL    C5645156   0.904   4.420   4.141  0.1960 -0.0700 -0.0598
   51MOL    C5745157   0.995   4.500   4.066  0.5517  0.4653 -0.2557
   51MOL    C5845158   1.017   4.625   4.110 -0.0085  0.2462 -0.0613
   51MOL    C5945159   0.963   4.671   4.235  0.3867 -0.2442  0.0361
   51MOL    C6045160   0.890   4.583   4.322 -0.4402 -0.0991  0.3222
   51MOL    C6145161   0.856   4.458   4.270  0.1694  0.0971 -0.6441
   51MOL    O6245162   0.975   4.799   4.266 -0.8061  0.0793 -0.0168
   51MOL    C6345163   0.860   4.882   4.235 -0.5715 -0.6788  0.3453
   51MOL    C6445164   0.748   4.882   4.315  0.1056  1.0600  0.1459
   51MOL    C6545165   0.640   4.967   4.289  0.0183  0.6756 -0.0520
   51MOL    C6645166   0.653   5.051   4.175  0.3341  1.1014  0.0927
   51MOL    C6745167   0.764   5.050   4.092 -0.2512  0.2870 -0.6324
   51MOL    C6845168   0.869   4.967   4.119 -0.1133  0.2433 -0.2097
   51MOL    C6945169   0.542   5.142   4.144  0.8885  0.5517  0.6844
   51MOL    C7045170   0.496   5.162   4.007 -0.1958  0.0329  0.6643
   51MOL    C7145171   0.386   5.241   3.975 -0.3964 -0.3255  0.3003
   51MOL    C7245172   0.312   5.300   4.078  0.9285  0.8044 -0.4227
   51MOL    C7345173   0.353   5.289   4.214 -0.6045 -0.0376 -0.6332
   51MOL    C7445174   0.465   5.206   4.241 -0.4261 -0.2908 -0.5007
   51MOL    O7545175   0.189   5.358   4.049  0.0427  0.2982  0.1013
   51MOL    H7645176   0.471   3.960   4.061 -0.4106 -1.2000  0.5603
   51MOL    H7745177   0.711   4.014   4.045 -1.3574 -0.5865  0.2103
   51MOL    H7845178   0.649   4.414   4.161 -0.1155 -0.0939  0.4215
   51MOL    H7945179   0.400   4.370   4.189  0.3532 -0.8222  1.8710
   51MOL    H8045180   1.026   4.467   3.968 -0.9401 -1.5415 -0.0798
   51MOL    H8145181   1.057   4.701   4.044  0.5948 -0.6018 -0.6865
   51MOL    H8245182   0.842   4.614   4.414 -1.3075 -2.9669  0.8817
   51MOL    H8345183   0.803   4.382   4.326  1.3190 -1.3350 -1.4758
   51MOL    H8445184   0.750   4.827   4.408 -2.3248  0.5121 -0.1013
   51MOL    H8545185   0.562   4.969   4.364 -1.1376  2.4111 -1.2475
   51MOL    H8645186   0.772   5.121   4.010  0.4378  0.4520 -0.4244
   51MOL    H8745187   0.952   4.978   4.051 -0.2985 -0.3184 -0.5296
   51MOL    H8845188   0.542   5.112   3.923  0.2744  0.2473  0.7905
   51MOL    H8945189   0.349   5.242   3.874 -1.4621 -0.2297  0.6882
   51MOL    H9045190   0.294   5.325   4.296 -1.8315 -4.5303  0.5936
   51MOL    H9145191   0.498   5.196   4.344 -2.0951 -0.4513  0.0375
   51MOL    C9245192   0.185   5.481   3.990 -0.2003  0.1874 -0.0124
   51MOL    C9345193   0.177   5.587   4.079 -0.1748 -0.5517  0.0781
   51MOL    C9445194   0.148   5.716   4.043  0.3367 -0.3073  1.0010
   51MOL    C9545195   0.127   5.738   3.906 -0.1631  0.1469 -0.5637
   51MOL    C9645196   0.143   5.636   3.803 -0.0309  0.6500  0.1103
   51MOL    C9745197   0.156   5.500   3.854 -0.7633  0.9313 -0.0629
   51MOL    S9845198   0.056   5.900   3.850  0.1228 -0.5400 -0.0913
   51MOL    O9945199   0.087   5.903   3.706  0.1253 -0.4046  0.2551
   51MOL   O10045200   0.098   6.012   3.940 -0.3640  0.8852  0.2812
   51MOL   C10145201   8.252   5.871   3.875  0.0826 -0.0048 -0.1220
   51MOL   C10245202   8.161   5.978   3.864 -0.8327  0.4460 -0.6181
   51MOL   C10345203   8.025   5.960   3.890  0.2316 -0.0861 -0.4746
   51MOL   C10445204   7.978   5.833   3.940 -0.2296  0.0193  0.0667
   51MOL   C10545205   8.073   5.729   3.957 -0.0324  0.3254 -0.2911
   51MOL   C10645206   8.209   5.752   3.928 -0.4456 -0.2131 -0.2382
   51MOL   O10745207   7.847   5.806   3.971 -0.3334 -0.7242  0.0562
   51MOL   C10845208   7.779   5.904   4.041  0.7077  0.3176  0.1870
   51MOL   C10945209   7.672   5.966   3.976 -0.0746  0.3082 -0.4519
   51MOL   C11045210   7.599   6.068   4.038  0.4015 -0.4515 -0.1289
   51MOL   C11145211   7.635   6.106   4.169 -0.3361  0.1704 -0.2596
   51MOL   C11245212   7.746   6.043   4.231  0.0815  0.1979 -0.7632
   51MOL   C11345213   7.819   5.947   4.165 -0.0935 -0.4040  0.3001
   51MOL   C11445214   7.566   6.213   4.241  0.2915 -0.2890 -0.5145
   51MOL   C11545215   7.540   6.199   4.380  0.4428 -0.0953  0.4526
   51MOL   C11645216   7.456   6.295   4.442  0.0781  0.6090 -0.2311
   51MOL   C11745217   7.401   6.402   4.375 -1.4928 -0.4200  0.5391
   51MOL   C11845218   7.429   6.419   4.236 -0.6802  0.2210  0.1425
   51MOL   C11945219   7.508   6.323   4.170 -0.1047 -0.2166 -0.0811
   51MOL   O12045220   7.333   6.493   4.457 -0.0016  0.6448  0.4704
   51MOL   H12145221   0.180   5.566   4.185  0.5969 -1.5848 -0.1307
   51MOL   H12245222   0.118   5.788   4.118  0.1008 -0.2189  0.8212
   51MOL   H12345223   0.125   5.644   3.697 -0.1067 -0.4625  0.0331
   51MOL   H12445224   0.160   5.419   3.784  1.2235  2.2400 -1.5348
   51MOL   H12545225   8.205   6.068   3.824 -2.2948  0.5730 -2.0158
   51MOL   H12645226   7.957   6.042   3.874  0.0241  0.0020  0.8386
   51MOL   H12745227   8.051   5.641   4.015 -2.2897  0.8117 -0.3557
   51MOL   H12845228   8.278   5.670   3.945  1.1418  1.0033 -0.8050
   51MOL   H12945229   7.657   5.929   3.875 -1.2984 -3.3631  1.0208
   51MOL   H13045230   7.519   6.113   3.981  0.2309 -1.8979 -1.0626
   51MOL   H13145231   7.779   6.070   4.330  1.9445 -3.0443 -0.4029
   51MOL   H13245232   7.906   5.901   4.210 -1.1875 -2.5885  0.2513
   51MOL   H13345233   7.576   6.113   4.436  1.4675  0.6449  0.9570
   51MOL   H13445234   7.433   6.285   4.547  0.0045  1.9651 -0.1177
   51MOL   H13545235   7.393   6.503   4.179 -1.7731 -0.7769 -0.6677
   51MOL   H13645236   7.533   6.335   4.066  1.4978 -1.4179  0.1447
   51MOL   C13745237   7.346   6.624   4.458  0.0312 -1.1751  0.1573
   51MOL   C13845238   7.470   6.690   4.467 -0.3100  0.1315  0.0623
   51MOL   C13945239   7.479   6.827   4.458  0.3647 -0.2524 -0.7737
   51MOL   C14045240   7.362   6.906   4.441  0.0359  0.4439 -0.4105
   51MOL   C14145241   7.234   6.840   4.437 -0.3553 -0.7308 -0.6838
   51MOL   C14245242   7.235   6.703   4.442  0.0722 -0.2903  0.3562
   51MOL   S14345243   7.388   7.084   4.420 -0.0796  0.2605  0.1646
   51MOL   O14445244   7.260   7.151   4.434  0.3327  0.1696  0.1833
   51MOL   O14545245   7.465   7.096   4.297 -0.1936  0.1137  0.2086
   51MOL   C14645246   7.491   7.154   4.547 -0.5728  0.4986 -0.1307
   51MOL   C14745247   7.563   7.271   4.517  0.1988 -0.4493 -0.4022
   51MOL   C14845248   7.646   7.323   4.619 -0.4896  0.4091  0.2043
   51MOL   C14945249   7.666   7.257   4.744  0.1467  0.4742 -0.4588
   51MOL   C15045250   7.590   7.143   4.765  0.5706 -0.0235 -0.0729
   51MOL   C15145251   7.500   7.094   4.670 -0.4934  0.2253 -0.7499
   51MOL   O15245252   7.751   7.313   4.839  0.0370  1.1478  0.1809
   51MOL   C15345253   7.682   7.364   4.945 -0.0062 -0.2965 -0.4350
   51MOL   C15445254   7.652   7.501   4.938  0.1900  0.1645 -0.0013
   51MOL   C15545255   7.589   7.562   5.047  0.3967 -0.0273  0.5436
   51MOL   C15645256   7.566   7.487   5.167 -0.6118 -0.6421  0.5517
   51MOL   C15745257   7.587   7.351   5.167  0.1387 -0.3774 -0.1270
   51MOL   C15845258   7.646   7.284   5.059  0.3238  0.8737 -0.1805
   51MOL   C15945259   7.498   7.560   5.272 -0.0554 -0.5429 -0.0488
   51MOL   C16045260   7.359   7.562   5.283 -0.0500  0.1973  0.4145
   51MOL   C16145261   7.298   7.635   5.386  0.4732 -1.1685 -0.1775
   51MOL   C16245262   7.384   7.706   5.479  0.0452  0.3106 -0.3219
   51MOL   C16345263   7.526   7.707   5.459  0.0979  0.2648  0.0606
   51MOL   C16445264   7.586   7.631   5.353  0.3338  0.3323 -0.6551
   51MOL   O16545265   7.331   7.777   5.587  0.4909  0.2492  0.6790
   51MOL   H16645266   7.561   6.632   4.478 -0.1879  0.3592  0.2561
   51MOL   H16745267   7.575   6.876   4.467  0.6351 -0.9584  0.2951
   51MOL   H16845268   7.141   6.892   4.423 -0.2003 -0.1172  0.5476
   51MOL   H16945269   7.142   6.653   4.420 -0.9447  1.3105  0.8757
   51MOL   H17045270   7.551   7.324   4.423 -1.0601 -0.9037 -0.5158
   51MOL   H17145271   7.710   7.409   4.608  0.5559 -0.3662  0.1141
   51MOL   H17245272   7.606   7.078   4.850  1.5852  2.0913  1.4306
   51MOL   H17345273   7.448   7.001   4.688  0.2116 -0.2138 -0.9526
   51MOL   H17445274   7.679   7.563   4.854 -1.2087  0.8033  0.0129
   51MOL   H17545275   7.561   7.665   5.030  1.2090  0.5705  2.6934
   51MOL   H17645276   7.563   7.298   5.258 -1.0825 -2.8805 -1.8591
   51MOL   H17745277   7.679   7.181   5.064 -3.6510 -0.6761 -3.4521
   51MOL   H17845278   7.295   7.504   5.218  1.3411  0.1944 -0.9831
   51MOL   H17945279   7.192   7.625   5.403  0.8672 -0.9283  2.6648
   51MOL   H18045280   7.587   7.758   5.532 -1.9377 -1.0410  2.7757
   51MOL   H18145281   7.692   7.639   5.334  0.2223  1.2257 -0.9255
   51MOL   C18245282   7.290   7.903   5.568 -0.0154  0.7660  0.0879
   51MOL   C18345283   7.350   7.992   5.477  0.2701 -0.6333  0.1042
   51MOL   C18445284   7.297   8.124   5.459 -0.6848 -0.6420  0.4180
   51MOL   C18545285   7.186   8.168   5.538 -0.1749  0.3005  0.8474
   51MOL   C18645286   7.132   8.084   5.638 -0.1461  0.4136 -0.1710
   51MOL   C18745287   7.188   7.950   5.647  0.5776 -0.0027 -1.0076
   51MOL   S18845288   7.104   8.324   5.494 -0.2659  0.3476  0.0310
   51MOL   O18945289   6.985   8.292   5.417  0.6912  0.0842 -0.4825
   51MOL   O19045290   7.205   0.053   5.447  0.4783  0.0613  0.2096
   51MOL   C19145291   7.041   0.019   5.650  0.1512 -0.0124 -0.6533
   51MOL   C19245292   6.906   0.028   5.673  0.1583 -0.6826 -0.0999
   51MOL   C19345293   6.862   0.078   5.793 -0.5668 -0.1758 -0.0642
   51MOL   C19445294   6.949   0.132   5.892  0.2582 -0.3249  0.9156
   51MOL   C19545295   7.088   0.138   5.859 -0.4275 -0.5226  0.0283
   51MOL   C19645296   7.131   0.077   5.741 -0.5718  0.5593 -0.6587
   51MOL   O19745297   6.896   0.185   6.010  0.0769  0.5135 -0.2053
   51MOL   C19845298   6.823   0.099   6.082 -0.1118 -0.4009 -0.6840
   51MOL   C19945299   6.692   0.137   6.111  0.0390 -0.5780 -0.8286
   51MOL   C20045300   6.604   0.045   6.174  0.4973  0.3882  0.4443
   51MOL   C20145301   6.645   8.277   6.195  0.8978 -0.2203  0.1673
   51MOL   C20245302   6.779   8.238   6.164 -0.4923  0.0411  0.3419
   51MOL   C20345303   6.870   8.332   6.113  0.0611 -0.5384 -0.0593
   51MOL   C20445304   6.555   8.179   6.243  0.0280  0.0217  0.1544
   51MOL   C20545305   6.574   8.117   6.366  0.4527  0.6055 -0.1085
   51MOL   C20645306   6.517   7.994   6.400 -0.1773 -0.2177  0.3248
   51MOL   C20745307   6.425   7.938   6.306 -0.9596 -0.2996 -0.3597
   51MOL   C20845308   6.384   8.011   6.194  0.1729  0.0385 -0.2426
   51MOL   C20945309   6.444   8.134   6.170 -0.1825 -0.3126 -0.3898
   51MOL   O21045310   6.384   7.810   6.321  0.5292  0.1321 -0.3597
   51MOL   H21145311   7.433   7.966   5.414  0.0632  0.7837 -0.7765
   51MOL   H21245312   7.327   8.182   5.373 -2.2900 -1.0449 -0.4561
   51MOL   H21345313   7.056   8.111   5.709  1.5947 -1.4457  2.4666
   51MOL   H21445314   7.137   7.884   5.715  1.9177 -0.6489 -0.6055
   51MOL   H21545315   6.836   8.348   5.605  1.1454  0.9845 -2.2595
   51MOL   H21645316   6.755   0.084   5.806 -0.7117 -3.3361  0.7240
   51MOL   H21745317   7.150   0.173   5.941  1.2600 -0.1560 -1.3877
   51MOL   H21845318   7.234   0.075   5.708 -0.6482 -2.6670 -0.7956
   51MOL   H21945319   6.647   0.234   6.091 -0.0140 -0.0526  1.7149
   51MOL   H22045320   6.504   0.071   6.207 -0.0747  2.2544 -2.6299
   51MOL   H22145321   6.817   8.140   6.190  1.9821  0.0114 -3.0363
   51MOL   H22245322   6.972   8.308   6.087  0.8670  4.2359 -1.8873
   51MOL   H22345323   6.656   8.142   6.431 -0.6189  0.9689  1.1286
   51MOL   H22445324   6.557   7.945   6.487  1.6371  0.1949 -0.2575
   51MOL   H22545325   6.318   7.963   6.123  0.1789  0.3453 -0.4561
   51MOL   H22645326   6.427   8.189   6.078 -3.3209  0.4893  0.6195
   51MOL   C22745327   6.450   7.711   6.247  0.1310  0.1941  0.1553
   51MOL   C22845328   6.390   7.583   6.250  0.6549 -0.0780  0.1368
   51MOL   C22945329   6.450   7.468   6.196 -0.0273  0.7607 -0.5724
   51MOL   C23045330   6.567   7.489   6.121 -0.1412 -0.0546  0.5809
   51MOL   C23145331   6.628   7.615   6.111  0.2091 -0.2392 -0.5464
   51MOL   C23245332   6.573   7.728   6.180  0.1336  0.2608 -0.1670
   51MOL   S23345333   6.651   7.340   6.069 -0.1074 -0.2210  0.0066
   51MOL   O23445334   6.543   7.264   6.009 -0.4075  0.0723  0.0083
   51MOL   O23545335   6.722   7.284   6.187  0.1162  0.3830  0.1660
   51MOL   C23645336   6.765   7.392   5.945  1.1597  0.4777 -0.0320
   51MOL   C23745337   6.905   7.378   5.970  0.4161  0.4004 -0.1095
   51MOL   C23845338   6.994   7.405   5.868 -0.1306  0.0820  0.4349
   51MOL   C23945339   6.949   7.461   5.747 -1.1847  0.8769  0.4003
   51MOL   C24045340   6.814   7.478   5.724 -0.6457 -0.9792 -0.1447
   51MOL   C24145341   6.719   7.445   5.825 -0.1780  0.6932  0.1092
   51MOL   O24245342   7.046   7.491   5.655 -0.4852  0.5819  0.3348
   51MOL   C24345343   7.073   7.413   5.549  0.2193 -0.0815 -0.3305
   51MOL   C24445344   6.992   7.427   5.435  0.2322  0.2458  0.4609
   51MOL   C24545345   7.025   7.343   5.323 -0.1936 -0.7290  0.2386
   51MOL   C24645346   7.139   7.258   5.323  0.0090 -0.2688 -0.5581
   51MOL   C24745347   7.218   7.245   5.438  0.0269 -0.0701  0.2818
   51MOL   C24845348   7.182   7.325   5.546  0.2793  0.6592 -0.0223
   51MOL   C24945349   7.169   7.172   5.212 -0.5308 -0.0882  0.1964
   51MOL   C25045350   7.262   7.219   5.115  0.2018  0.3930  0.1461
   51MOL   C25145351   7.285   7.146   4.993  0.0352  0.4935  0.8812
   51MOL   C25245352   7.213   7.028   4.970  0.3517 -0.2265 -0.7956
   51MOL   C25345353   7.118   6.987   5.064  0.5579  0.5283 -0.4491
   51MOL   C25445354   7.104   7.053   5.193  0.5778  0.2139 -0.3057
   51MOL   O25545355   7.251   6.945   4.868  0.3868 -0.2864  0.3896
   51MOL   H25645356   6.302   7.567   6.311 -0.5489  1.2600 -1.1943
   51MOL   H25745357   6.402   7.372   6.208  1.2413 -0.0904 -2.0959
   51MOL   H25845358   6.728   7.628   6.071 -0.2752 -1.7782 -2.2794
   51MOL   H25945359   6.623   7.824   6.177 -1.5881  1.1782 -0.0549
   51MOL   H26045360   6.940   7.328   6.060  1.2706 -2.0573 -1.7486
   51MOL   H26145361   7.096   7.374   5.883 -0.1112 -0.5836 -1.0190
   51MOL   H26245362   6.777   7.502   5.625 -1.1015  2.5914  0.7938
   51MOL   H26345363   6.611   7.445   5.814 -0.0561  2.2731 -1.2115
   51MOL   H26445364   6.909   7.494   5.421  0.7342  0.6525 -0.6947
   51MOL   H26545365   6.957   7.367   5.243 -1.4264  1.0257  1.7916
   51MOL   H26645366   7.301   7.177   5.449  0.9429  1.3471  2.5277
   51MOL   H26745367   7.238   7.311   5.637 -1.8872  1.0541  1.4130
   51MOL   H26845368   7.311   7.314   5.132 -0.1724  0.4387  1.0167
   51MOL   H26945369   7.350   7.186   4.916  1.2276 -2.0520  0.5150
   51MOL   H27045370   7.062   6.896   5.049  1.3473  0.0643 -0.6246
   51MOL   H27145371   7.028   7.017   5.261  0.2041 -1.6928 -1.6769
   51MOL   C27245372   7.156   6.858   4.820 -0.2386  0.5003  0.1178
   51MOL   C27345373   7.204   6.725   4.811 -0.5454 -0.7047 -0.3805
   51MOL   C27445374   7.114   6.625   4.780  0.7755  0.2819  0.6859
   51MOL   C27545375   6.979   6.664   4.748 -0.4295  0.5351 -0.3249
   51MOL   C27645376   6.933   6.799   4.749 -0.7454  0.0872  0.1024
   51MOL   C27745377   7.022   6.895   4.789  0.1680 -0.7564  0.0671
   51MOL   S27845378   6.859   6.537   4.699  0.5411  0.3304 -0.1412
   51MOL   O27945379   6.727   6.588   4.732  0.1316  0.3266 -0.2263
   51MOL   O28045380   6.909   6.410   4.753 -0.3060 -0.2870  0.5525
   51MOL   C28145381   6.870   6.520   4.521  0.5334  0.3875  0.2885
   51MOL   C28245382   6.990   6.463   4.469 -0.4221  0.3551  0.1683
   51MOL   C28345383   7.006   6.444   4.328 -0.6312  0.1959  0.7439
   51MOL   C28445384   6.896   6.469   4.243 -0.1772 -0.6219 -0.9792
   51MOL   C28545385   6.774   6.522   4.297  1.0818  0.1027 -0.3052
   51MOL   C28645386   6.769   6.557   4.434 -1.1923 -0.0831 -0.0821
   51MOL   O28745387   6.907   6.455   4.106  0.7770  0.2433 -0.1723
   51MOL   C28845388   6.984   6.541   4.037 -0.3964 -0.1646 -0.2759
   51MOL   C28945389   7.087   6.497   3.959 -0.4421 -0.1892  0.2201
   51MOL   C29045390   7.160   6.596   3.879  0.7433 -0.1894  0.1306
   51MOL   C29145391   7.135   6.734   3.877  0.0088  0.6789  0.0753
   51MOL   C29245392   7.043   6.773   3.979 -0.3690 -0.3933  0.0147
   51MOL   C29345393   6.966   6.681   4.054 -0.2466 -0.0489  0.8649
   51MOL   C29445394   7.201   6.829   3.791  0.5380 -0.1997 -0.4245
   51MOL   C29545395   7.219   6.796   3.657 -0.3054 -0.3691  0.0247
   51MOL   C29645396   7.294   6.882   3.569 -0.8223 -0.0456 -0.1440
   51MOL   C29745397   7.350   7.003   3.619  0.2265  0.1481  0.3117
   51MOL   C29845398   7.328   7.036   3.756  0.0591 -0.4469 -0.3151
   51MOL   C29945399   7.256   6.946   3.838  0.3713 -0.3322  0.9377
   51MOL   O30045400   7.416   7.085   3.528 -0.0559  0.2182 -0.4771
   51MOL   H30145401   7.303   6.687   4.833 -1.1612 -2.3451 -0.3757
   51MOL   H30245402   7.129   6.519   4.771 -0.2836  0.2965 -1.6488
   51MOL   H30345403   6.831   6.817   4.720 -0.7120 -1.9713 -1.3611
   51MOL   H30445404   7.005   7.001   4.783  1.8290 -0.5394 -1.3000
   51MOL   H30545405   7.078   6.447   4.530 -0.2740 -2.7631 -0.7656
   51MOL   H30645406   7.096   6.403   4.286  0.9944  1.6087  2.7531
   51MOL   H30745407   6.688   6.546   4.238 -0.8168 -1.5884  1.6737
   51MOL   H30845408   6.680   6.597   4.480 -0.1923  0.9789  0.9649
   51MOL   H30945409   7.112   6.392   3.967 -0.1477 -0.1251  0.1560
   51MOL   H31045410   7.247   6.566   3.821 -0.0115 -0.2588 -0.9891
   51MOL   H31145411   7.026   6.879   3.992  0.8650 -0.4166  2.1206
   51MOL   H31245412   6.900   6.727   4.127  0.2425  2.6887 -0.3433
   51MOL   H31345413   7.178   6.701   3.626 -0.4767 -1.2187  2.6943
   51MOL   H31445414   7.303   6.845   3.467  1.7851 -3.3118  1.1740
   51MOL   H31545415   7.372   7.117   3.812 -0.8272 -0.6393  0.6734
   51MOL   H31645416   7.246   6.979   3.941  1.8096 -1.2563  1.3985
   51MOL   C31745417   7.369   7.211   3.505 -0.1284 -0.2455  0.1805
   51MOL   C31845418   7.283   7.240   3.393 -0.7227  0.1529 -0.2770
   51MOL   C31945419   7.238   7.376   3.373  0.0890 -0.0376 -0.8702
   51MOL   C32045420   7.273   7.478   3.470  0.2217 -0.3151 -0.3485
   51MOL   C32145421   7.358   7.443   3.576  0.3901  0.1854  0.2354
   51MOL   C32245422   7.407   7.316   3.596  0.1050  0.8327  0.0099
   51MOL   S32345423   7.226   7.655   3.446 -0.0588 -0.0987 -0.3400
   51MOL   O32445424   7.192   7.668   3.300  0.1261 -0.0984 -0.6280
   51MOL   O32545425   7.324   7.746   3.508  0.2549  0.3738  0.5758
   51MOL   C32645426   7.076   7.673   3.541 -0.9109 -0.9141  0.6442
   51MOL   C32745427   7.001   7.793   3.527 -0.1787 -0.3581 -0.2559
   51MOL   C32845428   6.875   7.817   3.582  0.5948 -0.3504 -0.8006
   51MOL   C32945429   6.831   7.710   3.666 -0.2493  0.7734 -0.3264
   51MOL   C33045430   6.912   7.596   3.690 -0.0299  0.4902 -0.0660
   51MOL   C33145431   7.029   7.576   3.629  0.2489 -0.4676 -0.4642
   51MOL   O33245432   6.709   7.712   3.727  0.0323 -0.3316  0.5769
   51MOL   C33345433   6.677   7.825   3.795 -0.8191  0.3657 -0.2968
   51MOL   C33445434   6.583   7.920   3.742  0.1133  0.6773 -0.1838
   51MOL   C33545435   6.555   8.034   3.820 -0.4620  0.3290 -0.6933
   51MOL   C33645436   6.615   8.054   3.950 -0.5778 -0.0624  0.5338
   51MOL   C33745437   6.698   7.952   4.000  0.1661  0.3820  0.2341
   51MOL   C33845438   6.729   7.838   3.929 -0.3296 -0.0809 -0.1691
   51MOL   C33945439   6.576   8.180   4.024 -0.3552  0.6568  0.0212
   51MOL   C34045440   6.627   8.303   3.986 -0.1552 -0.5614 -0.3051
   51MOL   C34145441   6.588   0.054   4.054 -0.1942  0.6773 -0.7298
   51MOL   C34245442   6.504   0.053   4.167  0.1759 -0.1290  0.1880
   51MOL   C34345443   6.462   8.294   4.212  0.6583 -0.3768 -0.1107
   51MOL   C34445444   6.503   8.171   4.145 -0.5428 -0.1187  0.4877
   51MOL   O34545445   6.468   0.168   4.231 -0.3287  0.2265 -0.1566
   51MOL   H34645446   7.246   7.168   3.322  0.0146  1.7852 -2.3796
   51MOL   H34745447   7.172   7.403   3.293 -1.6618  1.4923  1.0249
   51MOL   H34845448   7.379   7.516   3.652 -0.1113  2.1427 -1.4521
   51MOL   H34945449   7.467   7.297   3.683 -0.2128 -0.8095 -0.1030
   51MOL   H35045450   7.045   7.872   3.467 -0.8623  0.7167  0.6232
   51MOL   H35145451   6.823   7.909   3.563 -3.6795 -2.0227  2.0184
   51MOL   H35245452   6.879   7.521   3.761  0.0423  0.9808  0.4899
   51MOL   H35345453   7.088   7.490   3.656  0.8641 -0.3415 -1.3974
   51MOL   H35445454   6.532   7.904   3.648  0.5673  1.6288 -0.5966
   51MOL   H35545455   6.483   8.103   3.778  0.1980  2.2881  1.3025
   51MOL   H35645456   6.739   7.967   4.099  1.5084 -0.6801 -0.1467
   51MOL   H35745457   6.799   7.767   3.969 -0.3229  0.3206  0.5321
   51MOL   H35845458   6.685   8.323   3.898 -0.7473  1.4582 -0.2691
   51MOL   H35945459   6.630   0.145   4.014  0.1718  0.0642 -1.7493
   51MOL   H36045460   6.407   8.288   4.305  1.9025 -1.3836  0.5799
   51MOL   H36145461   6.458   8.075   4.166 -1.7699  0.1274 -0.9341
   51MOL   C36245462   6.338   0.205   4.224  0.7553  0.0940 -0.1464
   51MOL   C36345463   6.301   0.326   4.290  0.5378 -0.4772 -0.2535
   51MOL   C36445464   6.165   0.370   4.287 -0.6759 -0.1997  0.2283
   51MOL   C36545465   6.068   0.291   4.214  0.0154  0.0116 -0.7214
   51MOL   C36645466   6.110   0.180   4.138  0.6008  0.4657 -0.6638
   51MOL   C36745467   6.243   0.129   4.145 -0.0503  0.1397 -0.2733
   51MOL   S36845468   5.898   0.352   4.200  0.1944  0.2774 -0.2144
   51MOL   O36945469   5.797   0.242   4.194 -0.4342  0.5166  0.1231
   51MOL   O37045470   5.899   0.444   4.088  0.0362  0.0328 -0.5456
   51MOL   C37145471   5.855   0.451   4.345 -0.3946 -0.1393 -0.2651
   51MOL   C37245472   5.805   0.390   4.457 -0.0275 -0.3444  0.2386
   51MOL   C37345473   5.755   0.464   4.563  0.0785 -0.1866  0.2868
   51MOL   C37445474   5.748   0.605   4.556  0.5240 -0.1663  0.0071
   51MOL   C37545475   5.802   0.671   4.440  0.2262 -1.1520  0.2765
   51MOL   C37645476   5.861   0.590   4.338 -0.1097  0.6330 -0.0915
   51MOL   O37745477   5.670   0.673   4.646 -0.1398  0.3002 -0.6079
   51MOL   C37845478   5.588   0.773   4.608  0.2343  0.3208 -0.2796
   51MOL   C37945479   5.518   0.775   4.484 -0.4150 -0.6968 -0.1205
   51MOL   C38045480   5.439   0.881   4.449 -0.7363  0.7816 -0.3311
   51MOL   C38145481   5.425   0.992   4.534 -0.5234  0.9223  0.1999
   51MOL   C38245482   5.501   0.996   4.657  0.7050  0.4476  0.0431
   51MOL   C38345483   5.582   0.886   4.690  0.2754 -0.2262  0.4811
   51MOL   C38445484   5.334   1.093   4.490 -0.3514 -0.7555 -0.2475
   51MOL   C38545485   5.196   1.059   4.476  0.1507 -0.2762  0.1981
   51MOL   C38645486   5.098   1.149   4.428  0.0295 -0.2302  0.6434
   51MOL   C38745487   5.136   1.279   4.393  0.8130  0.3972 -0.3347
   51MOL   C38845488   5.276   1.310   4.398 -0.1082  0.0385 -0.3072
   51MOL   C38945489   5.374   1.224   4.451 -0.1143  0.6660  0.7516
   51MOL   O39045490   5.052   1.381   4.361  0.0965 -0.1162 -0.0853
   51MOL   H39145491   6.372   0.383   4.349  0.9663 -1.1312 -0.1281
   51MOL   H39245492   6.139   0.457   4.345 -1.0649 -0.2283  0.0992
   51MOL   H39345493   6.035   0.124   4.083  0.1488 -2.7303  2.9938
   51MOL   H39445494   6.266   0.044   4.083  1.5675  1.4228 -1.4740
   51MOL   H39545495   5.809   0.282   4.458 -0.7163 -0.3931 -1.2792
   51MOL   H39645496   5.710   0.417   4.650 -2.0864  0.5477 -0.3896
   51MOL   H39745497   5.799   0.778   4.426 -0.7895 -1.3220 -0.8396
   51MOL   H39845498   5.898   0.643   4.251 -0.8865 -1.1973 -1.5645
   51MOL   H39945499   5.528   0.692   4.416 -3.2310 -1.6735  0.5901
   51MOL   H40045500   5.390   0.872   4.353  0.2526 -0.6528 -0.7163
   51MOL   H40145501   5.497   1.087   4.716 -0.8895  0.9520 -0.7914
   51MOL   H40245502   5.630   0.890   4.787 -0.5134  0.9891  0.8217
   51MOL   H40345503   5.150   0.967   4.507  0.5457 -1.0341 -1.4396
   51MOL   H40445504   4.996   1.117   4.437  0.5592 -2.2148 -0.0940
   51MOL   H40545505   5.307   1.410   4.372  0.9944 -0.2156  0.0127
   51MOL   H40645506   5.469   1.268   4.473  0.7927 -0.3135 -1.0739
   51MOL   C40745507   4.969   1.370   4.251  0.3222  0.1806  0.5276
   51MOL   C40845508   4.840   1.315   4.263  0.4825  0.2181 -0.5004
   51MOL   C40945509   4.758   1.300   4.157 -0.6616  0.4477  0.3727
   51MOL   C41045510   4.799   1.346   4.029  0.0213  0.0324  0.0188
   51MOL   C41145511   4.930   1.406   4.010  0.3205  0.1225  0.2398
   51MOL   C41245512   5.010   1.414   4.127 -0.8657  0.0221 -0.5617
   51MOL   S41345513   4.683   1.324   3.885  0.3469 -0.5515  0.3033
   51MOL   O41445514   4.544   1.306   3.934 -0.2086 -0.8609  0.4442
   51MOL   O41545515   4.723   1.219   3.790 -0.0432  0.6067  0.3014
   51MOL   C41645516   4.681   1.488   3.807 -0.6638 -0.3864 -0.2715
   51MOL   C41745517   4.678   1.490   3.663 -0.9207  0.7481 -0.2239
   51MOL   C41845518   4.668   1.610   3.596  0.4878 -0.1643  0.4230
   51MOL   C41945519   4.667   1.733   3.666 -0.6105  1.1872  0.4663
   51MOL   C42045520   4.673   1.729   3.809  0.5597  0.7041  0.1428
   51MOL   C42145521   4.674   1.609   3.878  0.4099 -0.2197 -0.3403
   51MOL   O42245522   4.655   1.851   3.598  0.4165  0.1663  0.5424
   51MOL   C42345523   4.727   1.962   3.648 -0.1782 -1.3105 -0.3839
   51MOL   C42445524   4.646   2.071   3.687  0.1931  0.4870 -0.4461
   51MOL   C42545525   4.708   2.177   3.747  0.9101  0.1813  0.7030
   51MOL   C42645526   4.849   2.177   3.777  0.4588 -0.3937 -0.5121
   51MOL   C42745527   4.924   2.065   3.740 -0.3010 -0.4919 -0.5375
   51MOL   C42845528   4.867   1.957   3.674  1.0480 -0.0687  0.3243
   51MOL   C42945529   4.913   2.292   3.842  0.3621  0.3348  0.9257
   51MOL   C43045530   5.026   2.277   3.922  0.2265  0.0058 -0.8673
   51MOL   C43145531   5.094   2.384   3.973  0.8720  0.0390 -0.6765
   51MOL   C43245532   5.045   2.513   3.950 -0.3073 -0.2059  0.1393
   51MOL   C43345533   4.932   2.531   3.873 -0.6396 -0.4085  1.2198
   51MOL   C43445534   4.864   2.421   3.820  0.4724 -0.2060  0.3499
   51MOL   O43545535   5.106   2.622   4.008 -0.3400 -0.2296  0.1943
   51MOL   H43645536   4.808   1.279   4.360 -0.2116  0.1636 -0.7516
   51MOL   H43745537   4.657   1.263   4.169 -0.7906  0.7604  0.2352
   51MOL   H43845538   4.973   1.441   3.918 -1.8474  0.2896 -0.7371
   51MOL   H43945539   5.105   1.466   4.122 -0.2554 -1.1355 -1.2763
   51MOL   H44045540   4.695   1.394   3.616  1.6579  1.8359 -1.6571
   51MOL   H44145541   4.679   1.614   3.488 -1.9306 -0.0979  0.1412
   51MOL   H44245542   4.656   1.823   3.860  1.1692  1.1318 -0.4340
   51MOL   H44345543   4.656   1.608   3.985  1.4840 -1.0763 -0.1593
   51MOL   H44445544   4.541   2.076   3.661 -0.1378 -1.4362  0.4405
   51MOL   H44545545   4.649   2.264   3.774 -1.2850 -1.4367  1.2930
   51MOL   H44645546   5.031   2.071   3.755 -0.0405 -1.1053 -2.0739
   51MOL   H44745547   4.923   1.868   3.651 -0.7601 -0.7734 -1.5426
   51MOL   H44845548   5.060   2.175   3.934 -0.5045 -0.3634 -1.8538
   51MOL   H44945549   5.180   2.367   4.036 -1.2719 -2.1396  1.7816
   51MOL   H45045550   4.893   2.631   3.859  1.1882 -0.0071 -1.4798
   51MOL   H45145551   4.779   2.443   3.758  0.9504  1.3228  0.2199
   51MOL   C45245552   5.188   2.696   3.923  0.2329  0.0024 -0.6765
   51MOL   C45345553   5.313   2.644   3.888 -0.0551 -0.1308 -0.0171
   51MOL   C45445554   5.406   2.713   3.802 -0.2970  0.0734  0.0499
   51MOL   C45545555   5.362   2.834   3.740  0.0016  0.6856 -0.4717
   51MOL   C45645556   5.238   2.891   3.784 -0.0704  0.4535 -0.4336
   51MOL   C45745557   5.152   2.821   3.874  0.4296 -0.3954  0.1264
   51MOL   S45845558   5.450   2.910   3.603  0.2203 -0.1903  0.2406
   51MOL   O45945559   5.378   3.026   3.546  0.3152  0.1297 -0.3960
   51MOL   O46045560   5.487   2.796   3.515 -0.1981 -0.6389 -0.0232
   51MOL   C46145561   5.605   2.971   3.665  0.2182 -0.4399 -0.0537
   51MOL   C46245562   5.649   2.962   3.798  0.6412  0.0506 -0.8011
   51MOL   C46345563   5.777   3.004   3.838  0.7468 -0.3202 -0.4668
   51MOL   C46445564   5.861   3.061   3.741  0.0839  0.2041  0.5859
   51MOL   C46545565   5.815   3.076   3.610  0.1737  0.0709 -1.0317
   51MOL   C46645566   5.687   3.027   3.570  0.2460 -0.1096  0.2218
   51MOL   O46745567   5.987   3.088   3.779  0.3638  0.5905 -0.1357
   51MOL   C46845568   6.003   3.203   3.844 -0.7954  0.6216 -0.0012
   51MOL   C46945569   5.989   3.210   3.982  0.1914  0.4306  0.3561
   51MOL   C47045570   6.021   3.332   4.047  0.2506 -0.1684  0.2988
   51MOL   C47145571   6.046   3.449   3.977 -0.2693 -0.8956 -0.3058
   51MOL   C47245572   6.048   3.445   3.839  0.5157  0.0282 -0.5019
   51MOL   C47345573   6.026   3.322   3.770 -0.5991 -0.3009  0.5086
   51MOL   C47445574   6.073   3.576   4.050  0.1004  0.2006  1.0745
   51MOL   C47545575   6.166   3.592   4.155  0.4214  0.2064  0.4575
   51MOL   C47645576   6.202   3.720   4.203 -0.2156 -0.1021 -0.8434
   51MOL   C47745577   6.139   3.843   4.153  0.1774  0.3101 -0.6031
   51MOL   C47845578   6.042   3.824   4.055 -0.1925  0.8299  0.1466
   51MOL   C47945579   6.012   3.692   4.004 -0.3488  0.1240 -0.3679
   51MOL   O48045580   6.193   3.969   4.181  0.0578 -0.2196  0.0814
   51MOL   H48145581   5.349   2.549   3.926  1.5729  0.4131 -0.1388
   51MOL   H48245582   5.506   2.678   3.781 -0.8014 -0.2458 -1.8793
   51MOL   H48345583   5.211   2.984   3.735 -1.4881  0.2092 -0.1140
   51MOL   H48445584   5.059   2.866   3.905  1.5887  0.9082  1.8756
   51MOL   H48545585   5.586   2.928   3.879  2.5213 -2.3408 -0.2832
   51MOL   H48645586   5.809   2.979   3.938 -4.6798 -0.8393  1.2917
   51MOL   H48745587   5.879   3.123   3.537  0.6999  2.4585  0.8864
   51MOL   H48845588   5.650   3.039   3.470 -0.7180  0.7164  0.6714
   51MOL   H48945589   5.985   3.112   4.027  2.7772 -0.5495 -1.4036
   51MOL   H49045590   6.026   3.343   4.154  0.9591  1.7222  0.0981
   51MOL   H49145591   6.069   3.529   3.774  1.1725  0.7261  0.5916
   51MOL   H49245592   6.026   3.315   3.663  1.1286 -2.1048  0.6115
   51MOL   H49345593   6.214   3.508   4.204 -3.7150 -0.6005  3.3967
   51MOL   H49445594   6.279   3.718   4.279  0.0978 -2.3189 -1.1717
   51MOL   H49545595   5.988   3.905   4.008 -1.3733  0.4173  0.7627
   51MOL   H49645596   5.946   3.691   3.918 -2.2144  2.2524  0.9760
   51MOL   C49745597   6.304   4.005   4.115  0.1902  0.2362  0.0144
   51MOL   C49845598   6.286   4.071   3.994 -0.5623 -0.6342 -0.5722
   51MOL   C49945599   6.397   4.127   3.931 -0.2994  0.3755 -0.1010
   51MOL   C50045600   6.523   4.097   3.983  0.5193 -0.8626 -1.1771
   51MOL   C50145601   6.540   4.020   4.100 -0.7371  0.0898  0.1627
   51MOL   C50245602   6.428   3.968   4.168 -0.0935 -0.4951 -0.2314
   51MOL   S50345603   6.670   4.160   3.901  0.3203 -0.1811 -0.4499
   51MOL   O50445604   6.773   4.180   3.999 -0.2900 -0.4022  0.3991
   51MOL   O50545605   6.633   4.273   3.817 -0.3068  0.1675  0.1244
   51MOL   C50645606   6.729   4.039   3.789  0.4439 -0.1299 -0.3327
   51MOL   C50745607   6.866   4.010   3.789  0.5429 -0.1861 -0.0883
   51MOL   C50845608   6.915   3.902   3.710  0.0166  0.7841  0.0828
   51MOL   C50945609   6.826   3.831   3.618 -0.0682 -0.7008  0.0687
   51MOL   C51045610   6.688   3.858   3.630 -0.7081  0.2913  0.1420
   51MOL   C51145611   6.634   3.955   3.714  0.4447  0.1534 -0.7987
   51MOL   O51245612   6.882   3.741   3.534  0.2538  1.0857  0.5641
   51MOL   C51345613   6.865   3.762   3.401 -0.3302  0.6145 -0.7849
   51MOL   C51445614   6.922   3.876   3.345  0.2850 -0.1343 -0.2029
   51MOL   C51545615   6.886   3.918   3.218 -0.2509  0.6909  0.1583
   51MOL   C51645616   6.803   3.839   3.134  0.5065  0.2815  0.2464
   51MOL   C51745617   6.748   3.720   3.193 -0.2885 -0.1244  0.6964
   51MOL   C51845618   6.773   3.686   3.326  0.5421 -0.8949 -0.1349
   51MOL   C51945619   6.776   3.876   2.990 -0.2993  0.4639  0.0404
   51MOL   C52045620   6.693   3.795   2.908  0.9777 -0.2356  0.1258
   51MOL   C52145621   6.676   3.821   2.771 -0.0964  0.0242 -0.1082
   51MOL   C52245622   6.726   3.941   2.722 -0.4790  0.5603 -0.5805
   51MOL   C52345623   6.802   4.028   2.801 -0.1390  0.2179 -0.6877
   51MOL   C52445624   6.825   3.997   2.937 -0.1606  0.1583 -0.0763
   51MOL   O52545625   6.699   3.981   2.590 -0.2763  0.9299 -0.1608
   51MOL   H52645626   6.187   4.081   3.953 -1.6548 -2.2502  1.5430
   51MOL   H52745627   6.383   4.188   3.843  0.5780  1.6547  0.6300
   51MOL   H52845628   6.639   3.986   4.128 -0.5761  0.1823 -0.2813
   51MOL   H52945629   6.437   3.902   4.254  0.2636  1.0283  0.9285
   51MOL   H53045630   6.936   4.059   3.855 -0.8756  0.6290  0.8542
   51MOL   H53145631   7.021   3.882   3.708 -0.2545 -0.5844 -2.3804
   51MOL   H53245632   6.610   3.801   3.581 -0.8288  0.4851  0.1066
   51MOL   H53345633   6.527   3.963   3.720  0.4064  0.9688 -2.3602
   51MOL   H53445634   6.995   3.935   3.397  1.4188 -2.4228  0.8619
   51MOL   H53545635   6.942   4.003   3.180 -1.0992  2.6014  2.9916
   51MOL   H53645636   6.680   3.663   3.131  2.4621 -1.5516 -1.0989
   51MOL   H53745637   6.722   3.606   3.378 -1.5513  0.3888 -0.1727
   51MOL   H53845638   6.633   3.721   2.958  0.1350  0.3479 -0.0135
   51MOL   H53945639   6.609   3.761   2.712  0.1057 -0.0791 -0.2351
   51MOL   H54045640   6.831   4.126   2.766 -0.4237  0.5499 -0.0041
   51MOL   H54145641   6.887   4.069   2.988  0.4839 -1.7175  1.8713
   51MOL   C54245642   6.584   4.030   2.560  0.4462  0.1419 -0.4049
   51MOL   C54345643   6.460   4.006   2.628  0.3959 -0.2576  0.7638
   51MOL   C54445644   6.338   4.037   2.568  0.2187 -0.0253 -0.4934
   51MOL   C54545645   6.340   4.110   2.452 -0.5567  0.0122  0.0908
   51MOL   C54645646   6.463   4.153   2.395 -0.1994  0.1676 -0.1970
   51MOL   C54745647   6.588   4.110   2.444 -0.6671 -0.5487 -0.3233
   51MOL   S54845648   6.194   4.142   2.353 -0.3136  0.1624 -0.2435
   51MOL   O54945649   6.233   4.078   2.223 -0.5187  0.4329  0.4927
   51MOL   O55045650   6.153   4.282   2.363  0.2197 -0.7663  0.0995
   51MOL   C55145651   6.063   4.048   2.422  0.7058  0.6085 -0.3704
   51MOL   C55245652   6.063   3.908   2.404  0.2094  0.2983  0.5746
   51MOL   C55345653   5.968   3.831   2.477 -0.4172 -0.7698 -0.6855
   51MOL   C55445654   5.872   3.884   2.565 -0.1626 -0.2122 -0.1464
   51MOL   C55545655   5.874   4.024   2.583  0.1967 -0.7753 -0.1753
   51MOL   C55645656   5.973   4.102   2.518  0.3324  0.0250  0.8746
   51MOL   O55745657   5.783   3.793   2.619 -0.0572 -0.0707  0.4151
   51MOL   C55845658   5.777   3.767   2.752  0.0075 -0.0856  0.8030
   51MOL   C55945659   5.892   3.773   2.832 -0.4324  0.5374  0.1169
   51MOL   C56045660   5.888   3.712   2.961 -0.0845  0.3615 -0.1360
   51MOL   C56145661   5.768   3.679   3.023  0.5515  0.1947  0.0647
   51MOL   C56245662   5.648   3.694   2.948 -0.7216  0.4007 -0.0559
   51MOL   C56345663   5.658   3.738   2.812 -0.1965 -0.1926 -0.0253
   51MOL   C56445664   5.766   3.622   3.160 -0.6274 -0.0485  0.2651
   51MOL   C56545665   5.862   3.524   3.207 -0.1453 -0.1484  0.4796
   51MOL   C56645666   5.868   3.484   3.342  0.2163  0.1921 -0.0159
   51MOL   C56745667   5.778   3.545   3.436  0.4354  0.3043  0.6760
   51MOL   C56845668   5.679   3.638   3.390 -0.5792 -0.1026  0.1137
   51MOL   C56945669   5.677   3.679   3.254 -0.9011  0.7132 -0.0424
   51MOL   O57045670   5.797   3.529   3.567  0.3312 -0.3906 -0.2249
   51MOL   H57145671   6.453   3.950   2.720 -0.6098  0.7257  1.3059
   51MOL   H57245672   6.241   4.019   2.611 -0.3231 -2.8921 -2.7049
   51MOL   H57345673   6.468   4.217   2.307  0.0075  0.7429  0.2291
   51MOL   H57445674   6.678   4.129   2.387 -1.3033 -2.2975 -1.9674
   51MOL   H57545675   6.133   3.858   2.339  0.0607  1.1051 -0.2102
   51MOL   H57645676   5.974   3.724   2.465 -0.9566 -0.7354 -1.2413
   51MOL   H57745677   5.802   4.065   2.652  1.3393 -0.5578  0.8938
   51MOL   H57845678   5.970   4.204   2.552 -0.3986 -0.1163  1.2398
   51MOL   H57945679   5.986   3.800   2.788 -0.8543 -0.6555 -1.5511
   51MOL   H58045680   5.976   3.686   3.017 -1.3981 -0.5317  1.5830
   51MOL   H58145681   5.556   3.686   3.005  0.2170  2.0238  1.7453
   51MOL   H58245682   5.567   3.761   2.757  0.3410  0.8391 -0.4911
   51MOL   H58345683   5.938   3.486   3.140  0.7540 -1.3828  2.1639
   51MOL   H58445684   5.937   3.408   3.378  0.1261  0.8029  1.4801
   51MOL   H58545685   5.614   3.699   3.451 -1.9066 -1.5397  0.1922
   51MOL   H58645686   5.615   3.761   3.220 -0.9862  0.4072 -0.6326
   51MOL   C58745687   5.691   3.485   3.645  0.4983  0.4607  0.3110
   51MOL   C58845688   5.585   3.396   3.603 -0.4680  1.0490 -0.3520
   51MOL   C58945689   5.501   3.335   3.702  0.4052 -0.6475 -0.2755
   51MOL   C59045690   5.511   3.370   3.837  0.0040  0.0524 -0.2440
   51MOL   C59145691   5.606   3.469   3.879  0.1512 -0.5714 -0.6837
   51MOL   C59245692   5.694   3.528   3.783  0.3129  0.7709  0.6665
   51MOL   S59345693   5.424   3.261   3.951  0.0969 -0.1777  0.4595
   51MOL   O59445694   5.446   3.312   4.086 -0.6005  0.1592  0.2202
   51MOL   O59545695   5.448   3.117   3.919  0.2800 -0.2811 -0.7599
   51MOL   C59645696   5.246   3.292   3.921 -0.1713  0.2272 -0.3546
   51MOL   C59745697   5.163   3.293   4.034  0.0516  0.2160  0.0685
   51MOL   C59845698   5.021   3.317   4.026  0.3310 -0.0101  0.0167
   51MOL   C59945699   4.970   3.332   3.899  0.3122  0.1346 -0.1251
   51MOL   C60045700   5.045   3.326   3.783 -0.7773 -0.0703 -0.4475
   51MOL   C60145701   5.185   3.304   3.795 -0.0956 -0.0371  0.5533
   51MOL   O60245702   4.833   3.346   3.896  0.4009 -0.2009  0.2923
   51MOL   C60345703   4.766   3.232   3.891 -0.5422 -0.0823  0.9362
   51MOL   C60445704   4.720   3.170   4.012  0.0369 -0.0416 -0.0503
   51MOL   C60545705   4.637   3.058   4.012 -0.2130 -0.3049 -0.1857
   51MOL   C60645706   4.619   2.988   3.894  0.4096  0.4513  0.1566
   51MOL   C60745707   4.682   3.040   3.780 -0.4324  0.3303  0.9627
   51MOL   C60845708   4.740   3.168   3.772 -0.1568  0.1243  0.2977
   51MOL   C60945709   4.530   2.872   3.881 -0.0548 -0.1518 -0.4789
   51MOL   C61045710   4.394   2.878   3.836  0.0074 -0.5100  0.4219
   51MOL   C61145711   4.334   2.756   3.805 -0.2050 -0.1948 -0.0781
   51MOL   C61245712   4.401   2.634   3.815 -0.1240  0.4574 -0.9483
   51MOL   C61345713   4.528   2.628   3.880 -0.5333  0.1486  1.5397
   51MOL   C61445714   4.591   2.748   3.911 -0.2473 -0.2504  0.2172
   51MOL   O61545715   4.342   2.520   3.772  0.3993 -0.5160 -0.0340
   51MOL   H61645716   5.594   3.366   3.500  0.8127  1.8684 -0.4923
   51MOL   H61745717   5.439   3.251   3.673  0.1342 -0.5312 -0.0256
   51MOL   H61845718   5.618   3.488   3.985 -0.7271 -1.3066 -0.4407
   51MOL   H61945719   5.775   3.593   3.811  0.9749 -0.6351  2.1196
   51MOL   H62045720   5.200   3.264   4.132  0.7872  0.4129 -0.1457
   51MOL   H62145721   4.961   3.336   4.114 -0.2884 -1.4721 -0.0729
   51MOL   H62245722   5.000   3.335   3.685  0.7188 -0.9276 -1.2262
   51MOL   H62345723   5.246   3.308   3.706  1.7299 -0.9804  1.7262
   51MOL   H62445724   4.739   3.226   4.102 -1.1729 -0.0526  0.2223
   51MOL   H62545725   4.605   3.009   4.103  0.0648 -1.5028 -0.7215
   51MOL   H62645726   4.657   2.995   3.685 -2.9060  1.2386  1.1458
   51MOL   H62745727   4.775   3.215   3.681 -0.3870  1.1762  0.7419
   51MOL   H62845728   4.345   2.971   3.811  0.0468 -0.7076 -0.4167
   51MOL   H62945729   4.237   2.759   3.757 -0.1152  3.1456 -0.1836
   51MOL   H63045730   4.573   2.530   3.876 -1.5774 -0.2725 -1.7435
   51MOL   H63145731   4.687   2.748   3.960 -1.0774 -0.2308  1.9052
   51MOL   C63245732   4.204   2.494   3.795  0.7138  0.1082 -0.4152
   51MOL   C63345733   4.136   2.428   3.692  0.8142 -0.2486 -0.3904
   51MOL   C63445734   3.996   2.397   3.709 -0.1843 -0.1560 -0.1396
   51MOL   C63545735   3.929   2.430   3.820  0.0988  0.2483 -0.1986
   51MOL   C63645736   3.993   2.481   3.932 -0.0691  0.7058 -0.1939
   51MOL   C63745737   4.133   2.517   3.919 -0.3054  0.4168  0.0745
   51MOL   S63845738   3.749   2.392   3.836 -0.2559 -0.3035 -0.0049
   51MOL   O63945739   3.690   2.528   3.822 -0.2621  0.0126  0.0630
   51MOL   O64045740   3.732   2.315   3.962  0.3067  0.5191  0.1259
   51MOL   C64145741   3.703   2.298   3.691  0.3274  0.6440 -0.4625
   51MOL   C64245742   3.633   2.361   3.585 -0.1644 -0.1503 -0.0201
   51MOL   C64345743   3.588   2.283   3.475 -0.7412  0.3033  0.3753
   51MOL   C64445744   3.630   2.150   3.459 -0.6896  0.3770 -1.0659
   51MOL   C64545745   3.689   2.086   3.567 -0.8762 -0.3152  1.1588
   51MOL   C64645746   3.731   2.159   3.685 -0.5316  0.6272  0.8095
   51MOL   O64745747   3.610   2.075   3.344 -0.4059  0.3171 -0.2807
   51MOL   C64845748   3.714   2.005   3.294 -0.3393  0.1600  1.3821
   51MOL   C64945749   3.847   2.058   3.273 -0.3715  0.3244 -0.3993
   51MOL   C65045750   3.940   1.984   3.198  0.5007  0.3467 -0.3961
   51MOL   C65145751   3.904   1.858   3.147  0.2405 -0.1369 -0.3136
   51MOL   C65245752   3.773   1.806   3.170 -0.0639 -0.3849  0.1512
   51MOL   C65345753   3.684   1.870   3.255 -0.6182 -0.8736  0.7930
   51MOL   C65445754   4.003   1.781   3.072 -0.1421 -0.9355  0.5317
   51MOL   C65545755   4.105   1.852   3.003  0.0098 -0.2020  0.7490
   51MOL   C65645756   4.197   1.783   2.922 -0.7070 -0.2330  0.4099
   51MOL   C65745757   4.185   1.644   2.911 -1.3311 -0.5067  0.2765
   51MOL   C65845758   4.081   1.575   2.975  0.2991  0.0141  0.0619
   51MOL   C65945759   3.995   1.641   3.059  0.1674  0.2602 -0.3922
   51MOL   O66045760   4.278   1.564   2.847 -0.3355 -0.0283  0.3077
   51MOL   H66145761   4.187   2.394   3.603  0.7171 -0.9584 -0.1799
   51MOL   H66245762   3.948   2.353   3.623 -1.8854  1.1947  0.0850
   51MOL   H66345763   3.935   2.491   4.023 -0.8900 -3.7615 -0.1269
   51MOL   H66445764   4.189   2.559   4.002 -1.5207  1.0124  0.6082
   51MOL   H66545765   3.596   2.462   3.591 -0.2730 -0.1781 -0.2074
   51MOL   H66645766   3.529   2.337   3.401  0.4010 -1.2785 -1.7272
   51MOL   H66745767   3.705   1.979   3.578 -0.4951 -0.3456  0.3641
   51MOL   H66845768   3.759   2.107   3.775 -0.2559  0.6995  0.7657
   51MOL   H66945769   3.869   2.160   3.298 -1.9872 -0.0219  2.5325
   51MOL   H67045770   4.036   2.032   3.186  1.0040 -1.1209 -2.4682
   51MOL   H67145771   3.744   1.718   3.116  0.2961  0.5055 -1.5318
   51MOL   H67245772   3.586   1.824   3.265  0.2938 -2.7860  1.0548
   51MOL   H67345773   4.121   1.959   3.008 -0.0946 -0.1346 -0.2501
   51MOL   H67445774   4.271   1.833   2.861  0.3794  1.2098  2.8696
   51MOL   H67545775   4.073   1.467   2.970 -0.0972 -0.0052  0.8460
   51MOL   H67645776   3.917   1.581   3.105  1.6124 -1.3889 -0.0647
   51MOL   C67745777   4.237   1.520   2.724  0.0784 -0.0319 -0.1330
   51MOL   C67845778   4.271   1.598   2.610  0.6062 -0.5484  0.2376
   51MOL   C67945779   4.213   1.565   2.489 -0.0287 -0.7857  0.8584
   51MOL   C68045780   4.141   1.446   2.476  0.2607 -0.2023  0.4299
   51MOL   C68145781   4.118   1.366   2.588  0.3463 -0.0442  0.0065
   51MOL   C68245782   4.163   1.400   2.712  0.3672  0.0125  0.1064
   51MOL   S68345783   4.067   1.400   2.325  0.0628 -0.0054 -0.2365
   51MOL   O68445784   3.995   1.518   2.274 -0.9459 -0.1748  0.5088
   51MOL   O68545785   3.987   1.280   2.347 -0.4704 -0.4994 -0.3773
   51MOL   C68645786   4.191   1.366   2.204  0.2380 -0.4962 -0.2676
   51MOL   C68745787   4.168   1.377   2.066  0.1302 -0.5613 -0.3708
   51MOL   C68845788   4.269   1.348   1.971 -0.0807 -0.0145 -1.0009
   51MOL   C68945789   4.398   1.307   2.026  0.5514 -0.6800  0.2705
   51MOL   C69045790   4.417   1.299   2.162 -0.8462 -0.2628  0.2140
   51MOL   C69145791   4.320   1.332   2.255  0.8026  0.2095  0.0130
   51MOL   O69245792   4.508   1.270   1.941  0.0079 -0.7657  0.2640
   51MOL   C69345793   4.570   1.372   1.878  0.5741  0.7178 -0.0930
   51MOL   C69445794   4.689   1.432   1.931  0.3488  0.6607 -0.4026
   51MOL   C69545795   4.747   1.536   1.865  0.0650 -0.2046  0.4816
   51MOL   C69645796   4.687   1.584   1.749 -0.2908 -0.5878 -0.5358
   51MOL   C69745797   4.581   1.514   1.689  0.1298 -0.4646 -0.0711
   51MOL   C69845798   4.514   1.415   1.760 -0.4127  0.4597  0.4271
   51MOL   C69945799   4.753   1.702   1.684 -0.0968  0.1409 -0.3316
   51MOL   C70045800   4.891   1.701   1.652 -0.1961 -0.3134 -0.6588
   51MOL   C70145801   4.950   1.809   1.582  0.2817  0.2439  0.6953
   51MOL   C70245802   4.872   1.925   1.555 -0.3113 -0.2617 -0.1979
   51MOL   C70345803   4.740   1.928   1.589  0.6962 -0.0266 -0.0688
   51MOL   C70445804   4.673   1.815   1.641  0.1994  0.3921 -0.0132
   51MOL   O70545805   4.921   2.035   1.499 -0.2387  0.3711  0.0730
   51MOL   H70645806   4.325   1.690   2.624 -2.3347  1.4052 -0.6251
   51MOL   H70745807   4.216   1.631   2.404 -0.2861  0.1880  1.5941
   51MOL   H70845808   4.070   1.269   2.584 -0.9158  0.5466  0.3704
   51MOL   H70945809   4.157   1.333   2.797  1.4917 -0.0323  0.1581
   51MOL   H71045810   4.066   1.400   2.039  0.6098  1.8941 -0.1453
   51MOL   H71145811   4.254   1.351   1.864  4.7726  0.3762 -1.7654
   51MOL   H71245812   4.512   1.259   2.193  0.1422  1.1421 -0.9259
   51MOL   H71345813   4.345   1.321   2.360 -1.9231 -3.5134  0.3982
   51MOL   H71445814   4.731   1.393   2.023  0.9623 -0.7075 -1.2362
   51MOL   H71545815   4.830   1.594   1.904 -0.5039  1.1027 -0.1971
   51MOL   H71645816   4.537   1.562   1.603 -3.1934  1.1156  2.3933
   51MOL   H71745817   4.442   1.355   1.707 -1.0271  0.9157  0.7476
   51MOL   H71845818   4.961   1.624   1.682 -1.9727 -1.9355 -0.6309
   51MOL   H71945819   5.055   1.803   1.558 -0.1975 -0.5102 -1.2713
   51MOL   H72045820   4.678   2.012   1.560  0.6166  1.1271  3.2608
   51MOL   H72145821   4.567   1.820   1.663  0.2013  0.4774 -0.0247
   51MOL   C72245822   5.034   2.091   1.550  0.7423  0.2972 -0.2164
   51MOL   C72345823   5.080   2.066   1.685  0.0728  0.1753  0.5890
   51MOL   C72445824   5.196   2.131   1.731 -0.6572 -0.1164  0.0635
   51MOL   C72545825   5.277   2.210   1.648 -0.2647  0.0301  0.0702
   51MOL   C72645826   5.238   2.221   1.513  0.4665  0.3899  0.0641
   51MOL   C72745827   5.111   2.170   1.467  0.0072 -0.1332 -0.0105
   51MOL   S72845828   5.445   2.256   1.707  0.2708 -0.0973  0.1548
   51MOL   O72945829   5.424   2.304   1.848  0.0399 -0.2745 -0.0389
   51MOL   O73045830   5.510   2.349   1.606 -0.0438  0.0666  0.0715
   51MOL   C73145831   5.553   2.112   1.711  0.3181 -0.0581  0.4476
   51MOL   C73245832   5.679   2.113   1.649 -0.4039 -0.1244  0.1950
   51MOL   C73345833   5.760   1.996   1.653  0.4443 -0.4395  0.3321
   51MOL   C73445834   5.711   1.875   1.722  0.3636  0.0446  0.0949
   51MOL   C73545835   5.591   1.883   1.797 -0.0660 -0.3025  0.5391
   51MOL   C73645836   5.508   1.998   1.780  0.0928  0.3562  0.4555
   51MOL   O73745837   5.784   1.760   1.723  0.3953 -0.3619 -0.1810
   51MOL   C73845838   5.775   1.684   1.609 -0.3933  0.0290  0.2677
   51MOL   C73945839   5.682   1.579   1.606  0.4085  0.0221  0.2180
   51MOL   C74045840   5.666   1.495   1.501 -0.2717 -0.2454 -0.3773
   51MOL   C74145841   5.735   1.515   1.376  0.2863  0.7086 -0.1709
   51MOL   C74245842   5.837   1.616   1.377  0.2883 -0.3902 -0.1012
   51MOL   C74345843   5.854   1.705   1.489 -0.1704  0.0310  0.1995
   51MOL   C74445844   5.700   1.425   1.266 -1.0847  0.6467 -0.1685
   51MOL   C74545845   5.636   1.305   1.286 -0.6163  0.1943 -0.3696
   51MOL   C74645846   5.610   1.216   1.178 -0.1493 -0.2424  0.5685
   51MOL   C74745847   5.652   1.257   1.049  0.4821  0.9108 -0.0499
   51MOL   C74845848   5.729   1.372   1.033 -0.0222 -0.0311  0.3705
   51MOL   C74945849   5.745   1.459   1.140  0.4587 -0.1127  0.2822
   51MOL   O75045850   5.607   1.190   0.936 -0.2256 -0.0459  0.0857
   51MOL   H75145851   5.016   2.000   1.740 -0.0679 -1.0892 -1.0326
   51MOL   H75245852   5.219   2.118   1.836 -1.9147 -0.0789  0.3437
   51MOL   H75345853   5.307   2.259   1.439 -0.6986  3.0996  0.2808
   51MOL   H75445854   5.066   2.191   1.371  0.2035 -0.4839 -0.1802
   51MOL   H75545855   5.726   2.201   1.609  0.5215  0.4645  2.4897
   51MOL   H75645856   5.851   2.011   1.597  0.5612 -2.2129  0.0201
   51MOL   H75745857   5.561   1.803   1.863  0.2479  0.7702  2.0186
   51MOL   H75845858   5.415   2.013   1.832 -0.0854 -0.4494  0.3727
   51MOL   H75945859   5.622   1.564   1.695  0.2158 -3.4665 -0.4231
   51MOL   H76045860   5.590   1.419   1.518 -0.2537 -0.4342 -1.1307
   51MOL   H76145861   5.904   1.606   1.292  0.3717  0.6210 -0.1598
   51MOL   H76245862   5.936   1.774   1.478  0.0242 -0.3925 -1.2387
   51MOL   H76345863   5.607   1.268   1.383  1.3593  1.2450  0.6518
   51MOL   H76445864   5.552   1.125   1.184 -0.9997  0.1712 -0.9098
   51MOL   H76545865   5.763   1.396   0.933 -0.1489  0.2447  0.3920
   51MOL   H76645866   5.813   1.543   1.132  1.3895 -0.7707  1.2358
   51MOL   C76745867   5.536   1.265   0.845 -0.4041 -0.4314 -0.1075
   51MOL   C76845868   5.401   1.297   0.866 -0.3896  0.0056 -0.1471
   51MOL   C76945869   5.332   1.375   0.774  1.6081  0.7507  0.8329
   51MOL   C77045870   5.391   1.417   0.660  0.2160 -0.4891 -0.4238
   51MOL   C77145871   5.528   1.377   0.630  0.1292  0.2752 -0.4039
   51MOL   C77245872   5.600   1.296   0.719 -0.2625  0.2211  0.0286
   51MOL   S77345873   5.298   1.513   0.541  0.1730  0.1841  0.2480
   51MOL   O77445874   5.392   1.556   0.428  0.0534  0.0425 -0.4538
   51MOL   O77545875   5.235   1.624   0.610 -0.9533 -0.1902 -0.2354
   51MOL   C77645876   5.163   1.408   0.462  0.1764  0.2821 -0.3285
   51MOL   C77745877   5.066   1.480   0.390  0.2402 -0.2456 -1.0979
   51MOL   C77845878   4.980   1.403   0.309 -0.1914 -0.0082  0.3562
   51MOL   C77945879   4.978   1.262   0.299 -1.1720 -0.4006 -0.1098
   51MOL   C78045880   5.076   1.200   0.374 -0.5747 -0.0779  0.3011
   51MOL   C78145881   5.168   1.267   0.462  0.0085 -0.1062 -0.5853
   51MOL   O78245882   4.897   1.202   0.211 -0.1137 -0.2591  0.3185
   51MOL   C78345883   4.791   1.123   0.258 -1.1226 -0.4654  0.5413
   51MOL   C78445884   4.660   1.177   0.272 -0.4195 -0.2539 -0.0184
   51MOL   C78545885   4.559   1.095   0.325 -0.1349  0.1921 -0.3834
   51MOL   C78645886   4.575   0.958   0.356 -0.0551  0.2723  0.3169
   51MOL   C78745887   4.704   0.901   0.322 -0.5136  0.5724 -0.3298
   51MOL   C78845888   4.812   0.984   0.284 -1.3588 -0.5472  0.1803
   51MOL   C78945889   4.462   0.874   0.407 -0.4752 -0.2240  0.6297
   51MOL   C79045890   4.482   0.753   0.484  0.2504 -0.2196 -0.2811
   51MOL   C79145891   4.375   0.672   0.523  0.1507 -0.2466  0.1658
   51MOL   C79245892   4.240   0.717   0.509 -0.1816 -0.2085  0.2431
   51MOL   C79345893   4.219   0.828   0.424 -0.0942 -0.9438  0.0625
   51MOL   C79445894   4.331   0.899   0.369  0.2018 -0.3755  0.0593
   51MOL   O79545895   4.137   0.649   0.566  0.0019 -0.1028 -0.5852
   51MOL   H79645896   5.352   1.263   0.956 -0.4630  1.0550  0.2219
   51MOL   H79745897   5.227   1.395   0.783  0.9699 -1.0239 -2.0211
   51MOL   H79845898   5.569   1.412   0.536 -0.5662 -0.0848 -0.8451
   51MOL   H79945899   5.693   1.262   0.677 -0.6381  0.0267 -0.6629
   51MOL   H80045900   5.045   1.585   0.395 -0.1421 -0.3778  0.4639
   51MOL   H80145901   4.903   1.456   0.256  0.5506  0.7813  0.0592
   51MOL   H80245902   5.081   1.093   0.367  0.8019  0.0680 -1.2179
   51MOL   H80345903   5.250   1.217   0.511 -0.6663 -0.2253  0.4280
   51MOL   H80445904   4.637   1.281   0.253 -0.5548  0.1674  2.3494
   51MOL   H80545905   4.462   1.140   0.340  0.2939  1.4970 -1.3498
   51MOL   H80645906   4.726   0.796   0.337  1.5709  1.0767  0.3068
   51MOL   H80745907   4.910   0.945   0.265 -0.0175  2.9594 -0.5387
   51MOL   H80845908   4.581   0.723   0.514 -0.1125 -0.0830  1.0874
   51MOL   H80945909   4.390   0.588   0.590 -1.2421 -2.1497 -1.8088
   51MOL   H81045910   4.117   0.856   0.401 -0.3630 -1.7687  0.2489
   51MOL   H81145911   4.308   0.985   0.307 -0.9437 -0.2982  0.5789
   51MOL   C81245912   4.091   0.526   0.526 -0.0953  0.4100 -0.1119
   51MOL   C81345913   4.068   0.508   0.392  0.1637 -0.2200  0.0024
   51MOL   C81445914   4.011   0.392   0.341 -0.4638 -0.0774 -0.0303
   51MOL   C81545915   3.974   0.293   0.431  0.0886 -0.3138  0.4778
   51MOL   C81645916   4.002   0.310   0.571 -0.2563 -0.0796 -0.5279
   51MOL   C81745917   4.051   0.431   0.620 -0.7054  0.3218  0.2401
   51MOL   S81845918   3.901   0.138   0.374 -0.0753 -0.0659 -0.1445
   51MOL   O81945919   3.949   0.026   0.454  0.4152 -0.3935  0.5285
   51MOL   O82045920   3.930   0.141   0.227  0.2257  0.3040 -0.2650
   51MOL   C82145921   3.725   0.148   0.393 -0.5072 -0.0899  0.2438
   51MOL   C82245922   3.645   0.265   0.388  0.5315  0.3301 -0.1026
   51MOL   C82345923   3.504   0.262   0.396 -0.6835 -0.0222 -0.5303
   51MOL   C82445924   3.441   0.141   0.426  0.7754  0.1934  0.3011
   51MOL   C82545925   3.515   0.023   0.440 -0.5488 -0.0874 -0.4458
   51MOL   C82645926   3.653   0.032   0.413 -0.2491  0.5996  0.1697
   51MOL   O82745927   3.308   0.146   0.450  0.3191  0.0502 -0.0053
   51MOL   C82845928   3.234   0.092   0.349  0.1172 -0.3306 -0.2726
   51MOL   C82945929   3.228   0.150   0.222  0.3560  0.1251  0.0920
   51MOL   C83045930   3.154   0.093   0.117 -0.3677 -0.1766 -0.4884
   51MOL   C83145931   3.075   8.344   0.143 -0.3631 -0.0043  0.1996
   51MOL   C83245932   3.076   8.290   0.273 -0.9286 -0.5115  0.2105
   51MOL   C83345933   3.153   8.344   0.371  0.8364  0.2988 -0.7167
   51MOL   C83445934   3.002   8.288   0.027  0.2150  0.2273  0.3943
   51MOL   C83545935   3.066   8.261   8.272 -0.2186  0.0698  0.6397
   51MOL   C83645936   2.986   8.234   8.160 -0.4926 -0.4813 -0.3461
   51MOL   C83745937   2.851   8.195   8.173  0.1302  0.2515  0.0077
   51MOL   C83845938   2.789   8.218   8.290  0.3033  0.1537  0.0906
   51MOL   C83945939   2.863   8.268   0.037  0.2432  0.4553  0.4325
   51MOL   O84045940   2.774   8.157   8.067 -0.0824 -0.4226  0.1319
   51MOL   H84145941   4.097   0.579   0.315  1.5635 -2.6821 -1.8056
   51MOL   H84245942   4.002   0.372   0.235  2.3632 -1.8645 -0.0087
   51MOL   H84345943   3.979   0.227   0.636 -1.7504  0.5030 -0.2932
   51MOL   H84445944   4.057   0.452   0.726  1.9075 -0.5546  0.3162
   51MOL   H84545945   3.681   0.366   0.373 -0.9803  1.0043  0.6641
   51MOL   H84645946   3.441   0.349   0.387 -0.6863  0.1015  0.6049
   51MOL   H84745947   3.463   8.298   0.463  1.3445 -0.7615  1.3243
   51MOL   H84845948   3.707   8.304   0.422 -1.2833 -0.1859 -1.4495
   51MOL   H84945949   3.278   0.244   0.207 -2.0090  1.4269  0.0081
   51MOL   H85045950   3.142   0.135   0.019 -0.7644 -1.0747 -0.8364
   51MOL   H85145951   3.003   8.212   0.290  1.3141 -2.2942  1.9308
   51MOL   H85245952   3.149   8.294   0.466  0.8653 -0.8621 -1.3179
   51MOL   H85345953   3.174   8.267   8.264 -0.3140  1.2581  0.2044
   51MOL   H85445954   3.035   8.221   8.064 -0.0786 -0.4447 -0.1436
   51MOL   H85545955   2.683   8.204   8.300  0.1206 -0.7192 -2.5628
   51MOL   H85645956   2.808   8.277   0.129  1.4639  0.4311  1.1728
   51MOL   C85745957   2.828   8.068   7.979 -0.8542 -0.1211 -0.6330
   51MOL   C85845958   2.907   8.111   7.866  0.1791  0.7700  0.1836
   51MOL   C85945959   2.942   8.014   7.765 -0.5503 -0.3118 -0.2605
   51MOL   C86045960   2.909   7.882   7.783  0.1623  0.0755  0.2737
   51MOL   C86145961   2.849   7.836   7.902  0.8571 -0.2607  0.0446
   51MOL   C86245962   2.807   7.928   7.997 -0.2905  0.8831 -0.2695
   51MOL   S86345963   2.941   7.766   7.648 -0.2758 -0.1803  0.1785
   51MOL   O86445964   2.926   7.834   7.517  1.3350 -0.3853 -0.2926
   51MOL   O86545965   2.881   7.637   7.677 -0.2552 -0.0947 -0.3898
   51MOL   C86645966   3.116   7.747   7.645 -0.5402  0.9293  0.7131
   51MOL   C86745967   3.181   7.728   7.519 -0.4381  0.6293 -0.0584
   51MOL   C86845968   3.321   7.696   7.513  0.5028 -0.2716 -0.8545
   51MOL   C86945969   3.399   7.683   7.630  0.3582 -0.1115 -0.5046
   51MOL   C87045970   3.340   7.711   7.757  0.2794  0.7364  0.6802
   51MOL   C87145971   3.199   7.740   7.763  0.9795  0.1858 -0.0914
   51MOL   O87245972   3.521   7.616   7.632  0.0160  0.1144 -0.6248
   51MOL   C87345973   3.641   7.689   7.620  0.3579  0.8054  0.1657
   51MOL   C87445974   3.747   7.641   7.697 -0.0857 -0.6521 -0.1145
   51MOL   C87545975   3.872   7.701   7.680  0.0739  0.1420 -0.5070
   51MOL   C87645976   3.895   7.801   7.579 -0.2387 -0.5889 -0.8836
   51MOL   C87745977   3.788   7.835   7.490 -0.5689 -0.2284  0.0400
   51MOL   C87845978   3.660   7.778   7.512  0.3818  0.9547  0.0164
   51MOL   C87945979   4.036   7.849   7.559  0.1122  0.1265 -0.1272
   51MOL   C88045980   4.087   7.878   7.435  0.3240  0.0360  1.1506
   51MOL   C88145981   4.212   7.947   7.413  0.1420  1.3406  0.0907
   51MOL   C88245982   4.289   7.970   7.527 -0.4202  0.3719 -0.1527
   51MOL   C88345983   4.249   7.934   7.656  0.0286  0.1965 -0.4643
   51MOL   C88445984   4.124   7.873   7.672 -0.4830  0.5031 -0.3105
   51MOL   O88545985   4.415   8.020   7.501  0.1348 -0.2368 -0.0849
   51MOL   H88645986   2.919   8.218   7.852 -0.5664  0.8417  0.0380
   51MOL   H88745987   3.004   8.043   7.682 -0.8907  0.0410 -0.3940
   51MOL   H88845988   2.823   7.731   7.908 -0.4388  0.0812  0.5385
   51MOL   H88945989   2.747   7.908   8.084  0.1939  2.0879  0.3589
   51MOL   H89045990   3.124   7.732   7.427 -1.3898  2.9767  0.5976
   51MOL   H89145991   3.358   7.664   7.417  0.8668 -0.1107 -0.7672
   51MOL   H89245992   3.393   7.707   7.851 -1.6619  3.2064  1.9169
   51MOL   H89345993   3.161   7.751   7.863  1.1220 -0.4214  0.0320
   51MOL   H89445994   3.725   7.568   7.773 -1.2400 -0.1769  0.0279
   51MOL   H89545995   3.945   7.642   7.733 -0.8310 -0.0721  0.5116
   51MOL   H89645996   3.809   7.909   7.414  0.5851  0.7178  1.2560
   51MOL   H89745997   3.579   7.801   7.443  0.2592  1.9125  0.4774
   51MOL   H89845998   4.027   7.855   7.348  2.7147 -0.6386 -0.3483
   51MOL   H89945999   4.244   7.951   7.310 -1.0511 -0.1489 -0.3530
   51MOL   H90046000   4.313   7.949   7.741 -0.0930  1.8096 -0.6407
   51MOL   H90146001   4.095   7.859   7.775  0.8147  3.9115  0.5793
   51MOL   H90246002   4.486   8.024   7.563 -1.6717 -0.4001  2.0522
   52MOL     C146003   0.353   0.484   5.389  0.0276 -0.9497 -0.4868
   52MOL     C246004   0.403   0.418   5.280  0.0954 -0.7208 -0.1929
   52MOL     C346005   0.542   0.404   5.262  0.3121  0.0835  0.8641
   52MOL     C446006   0.635   0.453   5.354  0.1536  0.2604  0.6432
   52MOL     C546007   0.583   0.523   5.471  0.0210 -0.0780  0.5961
   52MOL     C646008   0.441   0.540   5.482 -0.4197  0.8723 -0.3656
   52MOL     S746009   0.814   0.426   5.341  0.5228  0.1300 -0.3519
   52MOL     O846010   0.875   0.528   5.426  0.1225 -0.7973 -0.0230
   52MOL     O946011   0.839   0.412   5.194  0.2430 -0.1792 -0.7563
   52MOL    C1046012   0.855   0.256   5.408  0.7903 -0.6463 -0.8816
   52MOL    C1146013   0.979   0.230   5.477  0.3417  0.2716 -0.7495
   52MOL    C1246014   1.006   0.103   5.525 -0.5136  0.0798  0.6107
   52MOL    C1346015   0.909   0.001   5.513  0.0659 -0.5541 -0.3864
   52MOL    C1446016   0.777   0.023   5.455  0.0527 -0.1455 -0.0890
   52MOL    C1546017   0.754   0.153   5.407  0.0652 -0.2063 -0.0581
   52MOL    O1646018   0.949   8.247   5.555 -0.2740 -0.0660  0.0255
   52MOL    C1746019   0.877   8.181   5.648  0.1262  0.2437  0.4636
   52MOL    C1846020   0.838   8.241   5.766  0.6419 -0.0754  0.3787
   52MOL    C1946021   0.773   8.169   5.867 -0.2533  0.3108 -0.3847
   52MOL    C2046022   0.742   8.033   5.846  0.3986 -0.4140  0.5518
   52MOL    C2146023   0.778   7.967   5.727  0.0120  0.6202  1.0327
   52MOL    C2246024   0.852   8.045   5.630 -0.8202 -0.5285 -0.4069
   52MOL    C2346025   0.675   7.957   5.954  0.7620 -0.0987  0.1448
   52MOL    C2446026   0.687   8.000   6.095  0.0374  0.1841  0.2557
   52MOL    C2546027   0.618   7.913   6.188  0.0674 -0.3632 -0.1702
   52MOL    C2646028   0.541   7.803   6.156 -0.2669 -0.4554  0.6428
   52MOL    C2746029   0.511   7.786   6.020 -0.2388  0.3401  0.1721
   52MOL    C2846030   0.582   7.853   5.918  0.1412 -0.3487 -0.4373
   52MOL    O2946031   0.478   7.727   6.253  0.0517  0.7423 -0.4399
   52MOL    H3046032   0.331   0.370   5.214 -0.3464 -0.2413 -0.0583
   52MOL    H3146033   0.578   0.341   5.182 -1.9219  0.5012 -0.4971
   52MOL    H3246034   0.656   0.567   5.536 -1.1130  3.9348 -0.7073
   52MOL    H3346035   0.404   0.594   5.568  0.0696  0.5992  0.0177
   52MOL    H3446036   1.049   0.312   5.493  0.5479  0.0973 -0.7511
   52MOL    H3546037   1.098   0.076   5.574 -1.4187 -0.1542  2.2083
   52MOL    H3646038   0.703   8.312   5.468 -2.6051  1.9809 -2.1755
   52MOL    H3746039   0.665   0.172   5.349 -1.0234 -1.6559  1.1176
   52MOL    H3846040   0.852   8.347   5.777  0.7733 -0.1614  1.0274
   52MOL    H3946041   0.750   8.218   5.961  0.1693 -1.3643  0.6002
   52MOL    H4046042   0.755   7.863   5.707 -2.8246  1.7858 -2.3291
   52MOL    H4146043   0.897   7.987   5.551 -0.5348  1.3605 -1.6562
   52MOL    H4246044   0.751   8.080   6.131 -0.2143  1.4390 -1.9818
   52MOL    H4346045   0.628   7.935   6.293 -0.2114 -0.9267 -0.0243
   52MOL    H4446046   0.434   7.715   5.996 -1.4272  0.9915  1.8775
   52MOL    H4546047   0.557   7.836   5.814 -0.1413  1.1368 -0.6296
   52MOL    H4646048   0.246   0.497   5.390  0.1616  0.6698 -2.4469
   52MOL    C4746049   0.548   7.618   6.302  0.1862 -0.2519  0.0679
   52MOL    C4846050   0.469   7.509   6.340  0.4914 -0.7533  0.0308
   52MOL    C4946051   0.531   7.392   6.381 -0.1531 -0.7899 -0.1343
   52MOL    C5046052   0.671   7.387   6.400 -0.2301 -1.0163  0.5444
   52MOL    C5146053   0.748   7.499   6.366  0.1255 -0.0493  0.2873
   52MOL    C5246054   0.687   7.616   6.314 -0.6176  0.3022 -0.2995
   52MOL    S5346055   0.745   7.243   6.452 -0.2783 -0.2335  0.2891
   52MOL    O5446056   0.651   7.182   6.550 -0.5014  0.1024  0.2437
   52MOL    O5546057   0.888   7.263   6.482 -0.0301  0.6010 -0.0321
   52MOL    C5646058   0.732   7.130   6.307  0.5969 -0.0044 -0.4990
   52MOL    C5746059   0.699   7.186   6.179 -0.8985  0.3633 -0.0695
   52MOL    C5846060   0.692   7.101   6.065  0.6757 -0.2134 -0.1427
   52MOL    C5946061   0.712   6.961   6.081  0.0191  0.9687  0.3697
   52MOL    C6046062   0.762   6.912   6.202 -0.0581 -0.2682 -0.6104
   52MOL    C6146063   0.766   6.996   6.319  0.1518  0.7698 -0.1119
   52MOL    O6246064   0.678   6.877   5.982 -0.2845  0.4275  0.3763
   52MOL    C6346065   0.552   6.816   5.984 -0.1801 -0.2262  0.3930
   52MOL    C6446066   0.467   6.827   5.868 -0.6389  0.3511 -0.5239
   52MOL    C6546067   0.343   6.766   5.866  0.3756 -0.1650 -0.2972
   52MOL    C6646068   0.299   6.686   5.977  0.0534 -0.7593  0.5386
   52MOL    C6746069   0.379   6.674   6.094 -0.6532 -0.2385 -0.1354
   52MOL    C6846070   0.511   6.738   6.093 -0.2711  0.8791 -1.2549
   52MOL    C6946071   0.170   6.609   5.972 -0.4102  0.8752  0.4361
   52MOL    C7046072   0.120   6.563   5.849 -0.4906 -0.1491  0.0039
   52MOL    C7146073   8.360   6.497   5.842 -0.9210  0.4515  0.4190
   52MOL    C7246074   8.294   6.454   5.958 -0.5993 -0.0012 -0.9656
   52MOL    C7346075   8.350   6.499   6.083 -0.1409  0.1385 -0.3579
   52MOL    C7446076   0.102   6.576   6.089 -0.2854  0.7862  0.1360
   52MOL    O7546077   8.184   6.384   5.957  0.2204  0.3026 -0.0902
   52MOL    H7646078   0.361   7.516   6.333  0.6711 -0.5349 -2.8719
   52MOL    H7746079   0.472   7.304   6.405 -2.2725  0.2104 -1.5531
   52MOL    H7846080   0.855   7.496   6.379  0.0668  3.0830  1.9614
   52MOL    H7946081   0.742   7.706   6.288  0.4842  0.2178  1.6156
   52MOL    H8046082   0.673   7.290   6.160  1.0515  0.9354  0.2868
   52MOL    H8146083   0.667   7.141   5.967 -2.4449 -2.8696 -0.5238
   52MOL    H8246084   0.771   6.806   6.221 -2.0316 -0.5155 -0.9608
   52MOL    H8346085   0.793   6.958   6.416 -0.9906 -3.2548 -1.2579
   52MOL    H8446086   0.508   6.894   5.793  1.4473  1.0490  1.2009
   52MOL    H8546087   0.287   6.788   5.776 -1.2872 -1.0241  0.5064
   52MOL    H8646088   0.358   6.610   6.179  0.8216 -1.4385 -0.6694
   52MOL    H8746089   0.577   6.726   6.178  0.5364 -0.7204 -2.0740
   52MOL    H8846090   0.180   6.590   5.763  1.0459 -0.7157  0.8798
   52MOL    H8946091   8.319   6.481   5.744  1.6870 -0.9716 -0.4831
   52MOL    H9046092   8.299   6.473   6.174  1.2006  1.6150  0.8434
   52MOL    H9146093   0.154   6.604   6.179 -1.0344 -0.1756  0.8798
   52MOL    C9246094   8.189   6.259   5.899 -0.0765 -0.3542  0.5423
   52MOL    C9346095   8.076   6.216   5.831  0.1575  0.8353  0.4274
   52MOL    C9446096   8.079   6.090   5.765  0.2827  0.1047 -0.3060
   52MOL    C9546097   8.198   6.012   5.759 -0.3467  0.0260  0.5293
   52MOL    C9646098   8.315   6.058   5.825 -0.7108 -0.0888 -0.1246
   52MOL    C9746099   8.309   6.187   5.888  0.4267  0.5005  0.1129
   52MOL    S9846100   8.205   5.842   5.688 -0.0055  0.1441  0.3934
   52MOL    O9946101   8.283   5.841   5.565 -0.2844  0.2717  0.2109
   52MOL   O10046102   8.066   5.795   5.694  0.1399  0.3440  0.0347
   52MOL   C10146103   8.301   5.740   5.799  0.4497 -0.4826  0.3999
   52MOL   C10246104   0.069   5.718   5.768 -0.4815 -0.6738  0.7349
   52MOL   C10346105   0.147   5.631   5.850  1.0208 -0.0908 -0.4166
   52MOL   C10446106   0.090   5.571   5.962  0.1085  0.2762 -0.4232
   52MOL   C10546107   8.322   5.589   5.993  0.1200 -0.4026 -0.3004
   52MOL   C10646108   8.241   5.680   5.913 -0.5697  0.7395 -0.5666
   52MOL   O10746109   0.167   5.483   6.038 -0.3219  0.3941 -0.5208
   52MOL   C10846110   0.119   5.356   6.050  0.0474  0.7058  0.1447
   52MOL   C10946111   0.133   5.284   6.177  0.3181  0.2083 -0.4635
   52MOL   C11046112   0.086   5.156   6.199 -0.1024 -0.7464  0.5304
   52MOL   C11146113   0.022   5.090   6.093  0.5862  0.1452 -0.2005
   52MOL   C11246114   8.361   5.158   5.968 -0.1724 -0.3875  0.1059
   52MOL   C11346115   0.050   5.284   5.943  0.0698  0.5424 -0.5571
   52MOL   C11446116   8.330   4.956   6.121  0.7833 -0.3703  0.5437
   52MOL   C11546117   8.191   4.934   6.118 -0.6165 -1.1272 -0.6025
   52MOL   C11646118   8.142   4.808   6.157 -0.8510 -0.4790 -0.3819
   52MOL   C11746119   8.223   4.699   6.183  0.9655 -0.2366  0.6335
   52MOL   C11846120   8.362   4.719   6.194  0.8072 -0.1068  0.3148
   52MOL   C11946121   0.049   4.850   6.158  0.4959  0.1411  0.5099
   52MOL   O12046122   8.174   4.573   6.204  0.2186  0.4909  0.4201
   52MOL   H12146123   7.984   6.273   5.837 -1.1326 -1.3122  1.7647
   52MOL   H12246124   7.994   6.057   5.707  0.3303  0.0389 -0.3402
   52MOL   H12346125   0.042   6.003   5.823  0.1164  1.2935 -0.5349
   52MOL   H12446126   0.031   6.222   5.939  1.8271 -1.0388 -1.1670
   52MOL   H12546127   0.121   5.753   5.680 -0.2579  0.3322  1.2633
   52MOL   H12646128   0.244   5.598   5.817  1.0844 -0.2844 -0.0346
   52MOL   H12746129   8.275   5.532   6.072  3.5841  0.2544  2.3576
   52MOL   H12846130   8.133   5.689   5.917 -0.7694  0.7502 -4.2860
   52MOL   H12946131   0.176   5.346   6.254  0.9644 -1.0438  0.1997
   52MOL   H13046132   0.109   5.113   6.295 -1.0047 -2.0138  0.2041
   52MOL   H13146133   8.288   5.115   5.900 -0.7035 -0.7834  0.9158
   52MOL   H13246134   0.019   5.342   5.857  1.5492  0.1659 -1.3739
   52MOL   H13346135   8.122   5.017   6.107  0.9272  0.6530  2.3555
   52MOL   H13446136   8.034   4.803   6.166 -0.7452 -1.6646  0.2222
   52MOL   H13546137   0.064   4.642   6.229  0.1639 -0.6924  0.3023
   52MOL   H13646138   0.151   4.884   6.163  0.8699 -0.5614 -1.8546
   52MOL   C13746139   8.050   4.522   6.163  0.2944 -0.7728  0.3474
   52MOL   C13846140   8.032   4.496   6.028  0.0960  0.5275 -0.0581
   52MOL   C13946141   7.909   4.439   5.982 -0.0180  0.4997 -0.2651
   52MOL   C14046142   7.823   4.397   6.081  0.5079 -0.0886  0.3733
   52MOL   C14146143   7.842   4.410   6.220 -0.1205  0.8620 -0.2772
   52MOL   C14246144   7.957   4.481   6.259 -0.0189 -0.3023 -0.5775
   52MOL   S14346145   7.666   4.327   6.021  0.0431  0.1416  0.4353
   52MOL   O14446146   7.681   4.308   5.874 -0.3740 -0.5175  0.7279
   52MOL   O14546147   7.554   4.407   6.072 -0.4348 -0.2898  0.4107
   52MOL   C14646148   7.671   4.164   6.104 -0.4254  0.3892 -0.1282
   52MOL   C14746149   7.790   4.096   6.110  0.1624 -0.6262  0.0238
   52MOL   C14846150   7.810   3.968   6.169 -1.0776  0.8113 -0.1329
   52MOL   C14946151   7.691   3.906   6.218 -0.5125 -0.2539 -0.2595
   52MOL   C15046152   7.565   3.976   6.219 -0.0194  0.0288 -0.2126
   52MOL   C15146153   7.555   4.103   6.158 -0.3763  0.1245 -0.4211
   52MOL   O15246154   7.687   3.783   6.274  0.3840  0.9036 -0.1161
   52MOL   C15346155   7.664   3.678   6.189 -0.2729  0.1116  0.6239
   52MOL   C15446156   7.538   3.624   6.187 -0.4171 -0.0150  0.2620
   52MOL   C15546157   7.509   3.514   6.103  0.0681 -0.2241  0.5572
   52MOL   C15646158   7.611   3.458   6.021 -0.2394  0.3138 -0.1365
   52MOL   C15746159   7.744   3.508   6.028  0.1428 -0.6029  0.1643
   52MOL   C15846160   7.768   3.622   6.108  0.1920  0.4142 -0.2418
   52MOL   C15946161   7.585   3.356   5.919  0.2252  0.0331  0.0649
   52MOL   C16046162   7.455   3.368   5.861  0.0881  0.7027 -0.0326
   52MOL   C16146163   7.422   3.293   5.744 -0.4247 -0.3933 -0.4494
   52MOL   C16246164   7.516   3.210   5.682  0.4131  0.2320  0.2433
   52MOL   C16346165   7.635   3.180   5.754 -0.4731 -0.2054  0.7242
   52MOL   C16446166   7.669   3.258   5.870 -0.1079 -0.6138 -0.6642
   52MOL   O16546167   7.494   3.168   5.553 -0.2250  0.0943  0.0591
   52MOL   H16646168   8.105   4.535   5.960 -0.2364  0.3172 -0.5373
   52MOL   H16746169   7.883   4.427   5.877  0.1734  2.5182 -0.5675
   52MOL   H16846170   7.773   4.364   6.288  2.0793 -1.2567  0.5877
   52MOL   H16946171   7.978   4.495   6.364  0.3616 -2.8919 -0.2685
   52MOL   H17046172   7.872   4.148   6.062 -1.6610  0.9783 -1.4560
   52MOL   H17146173   7.906   3.920   6.181 -1.0340  0.6159 -1.2189
   52MOL   H17246174   7.477   3.943   6.272  1.5202 -3.4121  0.3046
   52MOL   H17346175   7.458   4.151   6.155  0.7321  2.6443  1.9463
   52MOL   H17446176   7.463   3.661   6.255  0.5560  0.6308  1.0094
   52MOL   H17546177   7.405   3.486   6.095  0.4161 -1.0979 -1.3025
   52MOL   H17646178   7.811   3.470   5.952 -2.4286  0.3842 -2.7203
   52MOL   H17746179   7.863   3.672   6.116  0.6590 -0.0120 -2.7634
   52MOL   H17846180   7.394   3.451   5.895  0.3256  0.3465  1.2541
   52MOL   H17946181   7.327   3.308   5.695 -0.6839 -0.9568 -0.1213
   52MOL   H18046182   7.709   3.108   5.720 -1.3086 -1.0624  0.7176
   52MOL   H18146183   7.766   3.242   5.913 -0.7863 -0.2401  1.0513
   52MOL   C18246184   7.526   3.255   5.450 -0.4835 -0.0713  0.3342
   52MOL   C18346185   7.425   3.305   5.360 -0.2929 -0.9527 -0.2216
   52MOL   C18446186   7.457   3.410   5.270 -0.0747 -0.5805 -0.0674
   52MOL   C18546187   7.586   3.441   5.250 -0.1515 -0.6058  0.1736
   52MOL   C18646188   7.692   3.387   5.329  0.3815  0.1616 -0.0045
   52MOL   C18746189   7.657   3.291   5.427 -0.1569 -0.2113 -0.4862
   52MOL   S18846190   7.634   3.547   5.106 -0.1753  0.2545 -0.1758
   52MOL   O18946191   7.748   3.475   5.047 -0.4016 -0.6467 -0.7637
   52MOL   O19046192   7.648   3.686   5.157  0.1941  0.4081 -0.2424
   52MOL   C19146193   7.488   3.531   4.997  0.0311  0.6971  0.3497
   52MOL   C19246194   7.480   3.417   4.920 -0.4741  0.3048 -0.2000
   52MOL   C19346195   7.372   3.396   4.840  0.2218 -0.4289 -0.3625
   52MOL   C19446196   7.268   3.485   4.831 -0.1717 -0.1588  0.6959
   52MOL   C19546197   7.270   3.603   4.913 -0.2231  0.3840  0.2315
   52MOL   C19646198   7.378   3.622   4.998  0.1185  0.6534 -0.2565
   52MOL   O19746199   7.173   3.457   4.736 -0.2611  0.0529  0.1657
   52MOL   C19846200   7.076   3.551   4.697  0.8735 -0.3689 -0.5462
   52MOL   C19946201   6.941   3.533   4.714  0.2015 -0.4315 -0.1559
   52MOL   C20046202   6.842   3.618   4.665 -0.4713 -0.5845 -0.4803
   52MOL   C20146203   6.884   3.742   4.600 -0.4406  0.2364 -0.1556
   52MOL   C20246204   7.018   3.759   4.574 -0.4428  0.0286  0.3297
   52MOL   C20346205   7.111   3.664   4.621  0.5477  0.1639 -0.2121
   52MOL   C20446206   6.785   3.841   4.558 -0.4031  0.1981  0.4551
   52MOL   C20546207   6.811   3.920   4.446 -0.3144 -0.0947  0.0814
   52MOL   C20646208   6.716   4.023   4.404 -0.3306 -0.0625  0.0248
   52MOL   C20746209   6.593   4.039   4.472  0.0501 -0.5871 -1.0893
   52MOL   C20846210   6.563   3.955   4.582 -0.6736  0.0924 -0.0580
   52MOL   C20946211   6.659   3.857   4.626 -0.3179  0.2788  0.4320
   52MOL   O21046212   6.510   4.140   4.429 -1.1472  0.6878  0.0532
   52MOL   H21146213   7.323   3.271   5.372  0.0467 -1.5419  1.0210
   52MOL   H21246214   7.378   3.448   5.207  0.2530 -0.8066 -0.6190
   52MOL   H21346215   7.794   3.417   5.308  1.0773 -0.7969  1.9203
   52MOL   H21446216   7.734   3.242   5.484 -1.5800 -2.3184 -0.3432
   52MOL   H21546217   7.559   3.343   4.926  0.0831  0.8510 -0.8115
   52MOL   H21646218   7.370   3.303   4.784 -0.2705  0.7760 -2.3646
   52MOL   H21746219   7.197   3.681   4.893 -0.4272 -0.2791 -1.7207
   52MOL   H21846220   7.376   3.711   5.058  0.7913 -1.0512  2.4100
   52MOL   H21946221   6.897   3.445   4.761  0.1937 -1.5607 -2.2172
   52MOL   H22046222   6.739   3.591   4.681 -0.1995 -1.3344  0.0286
   52MOL   H22146223   7.064   3.842   4.522  1.5807 -1.7537 -0.7989
   52MOL   H22246224   7.217   3.676   4.603  0.4639  2.6040  0.6702
   52MOL   H22346225   6.901   3.917   4.386  1.1080  2.7739  1.9289
   52MOL   H22446226   6.747   4.100   4.335  0.5175 -0.3492  0.0784
   52MOL   H22546227   6.480   3.980   4.646  0.3475 -2.1721  2.2924
   52MOL   H22646228   6.627   3.792   4.706 -1.5035  0.5608  0.1959
   52MOL   C22746229   6.390   4.174   4.486 -0.9142 -0.4853 -0.1301
   52MOL   C22846230   6.400   4.290   4.565  0.2369 -0.6316  0.2674
   52MOL   C22946231   6.284   4.357   4.617 -0.0832 -0.0049 -1.0980
   52MOL   C23046232   6.163   4.289   4.598  0.6904 -0.6261 -0.0598
   52MOL   C23146233   6.152   4.160   4.539  0.3946 -0.8230 -0.0983
   52MOL   C23246234   6.263   4.109   4.472  0.2499 -0.0528  0.6467
   52MOL   S23346235   6.005   4.353   4.662  0.3431 -0.1085 -0.0776
   52MOL   O23446236   5.994   4.275   4.785  0.0549 -0.5188  0.1349
   52MOL   O23546237   5.907   4.336   4.548  0.3605  0.5111 -0.3483
   52MOL   C23646238   6.026   4.527   4.700  0.3181  0.7714 -0.3308
   52MOL   C23746239   6.007   4.629   4.604  0.7784 -0.6728  0.1640
   52MOL   C23846240   6.028   4.763   4.641 -0.5380 -0.1588  0.0275
   52MOL   C23946241   6.076   4.793   4.774 -0.7701  0.3553 -0.3964
   52MOL   C24046242   6.090   4.691   4.873  0.8049 -0.0962  0.2729
   52MOL   C24146243   6.060   4.554   4.837  0.0424 -0.3191  0.1082
   52MOL   O24246244   6.105   4.920   4.814  0.3911  0.2867  0.6566
   52MOL   C24346245   6.197   4.994   4.750  0.1705  0.3779  0.1844
   52MOL   C24446246   6.174   5.130   4.734  0.0135 -0.0951  0.5044
   52MOL   C24546247   6.268   5.207   4.654  0.3178 -0.5902 -0.2041
   52MOL   C24646248   6.388   5.153   4.610 -0.4822  0.4751 -0.5310
   52MOL   C24746249   6.402   5.014   4.620 -0.2929 -0.1372 -0.2295
   52MOL   C24846250   6.302   4.937   4.679 -0.5349 -0.5139  0.2641
   52MOL   C24946251   6.482   5.234   4.527  0.3603  0.3056 -0.3101
   52MOL   C25046252   6.439   5.328   4.433  0.0374  0.7586  0.5637
   52MOL   C25146253   6.537   5.402   4.366  0.9824  0.2195  0.2890
   52MOL   C25246254   6.676   5.379   4.378 -0.0319  0.4311  0.8720
   52MOL   C25346255   6.713   5.290   4.478 -0.9005 -0.0174  0.2502
   52MOL   C25446256   6.621   5.215   4.556  0.5182 -0.7716 -0.1166
   52MOL   O25546257   6.769   5.447   4.305  0.5252 -0.4239 -0.6321
   52MOL   H25646258   6.497   4.338   4.567 -0.3141  1.0159 -5.1969
   52MOL   H25746259   6.296   4.452   4.667  1.5004 -1.7652  2.0131
   52MOL   H25846260   6.055   4.115   4.525 -0.5237  0.9548  0.4309
   52MOL   H25946261   6.245   4.019   4.414 -0.9297  0.0763  0.7943
   52MOL   H26046262   5.982   4.602   4.502 -1.0332 -1.3900  0.7724
   52MOL   H26146263   6.020   4.839   4.565 -0.5577 -1.3876 -1.2184
   52MOL   H26246264   6.128   4.709   4.972 -0.0884  0.0226  0.5898
   52MOL   H26346265   6.077   4.481   4.915 -0.0440  0.4161  0.8161
   52MOL   H26446266   6.093   5.188   4.777  0.7938  1.0737  0.4264
   52MOL   H26546267   6.257   5.314   4.660  0.2151 -0.6100 -0.0387
   52MOL   H26646268   6.488   4.962   4.580  0.6692  0.2960  1.2142
   52MOL   H26746269   6.317   4.830   4.687  1.7329 -0.3319 -1.2415
   52MOL   H26846270   6.333   5.333   4.413  0.3125  1.1061 -0.8287
   52MOL   H26946271   6.499   5.480   4.301 -0.6150  0.3312  1.3476
   52MOL   H27046272   6.819   5.288   4.499 -1.3357 -0.4367  2.5808
   52MOL   H27146273   6.663   5.156   4.636  0.2821 -1.1186 -0.2458
   52MOL   C27246274   6.861   5.375   4.243  0.1929  0.3696  0.3794
   52MOL   C27346275   6.996   5.378   4.288  0.1326  0.6663 -0.6555
   52MOL   C27446276   7.104   5.299   4.236 -0.2900  0.1830  0.2841
   52MOL   C27546277   7.071   5.217   4.123  0.1300  0.2116  0.3129
   52MOL   C27646278   6.938   5.215   4.080  0.1764  0.2012 -0.3387
   52MOL   C27746279   6.835   5.284   4.136  0.1049 -0.7725  0.0553
   52MOL   S27846280   7.191   5.113   4.038  0.0882  0.2995  0.3937
   52MOL   O27946281   7.284   5.198   3.964 -0.4583 -0.0325 -1.0601
   52MOL   O28046282   7.114   5.004   3.971 -0.0956 -0.0109  0.5788
   52MOL   C28146283   7.297   5.036   4.166 -1.0451 -0.3331 -0.2308
   52MOL   C28246284   7.407   5.108   4.220  0.0711 -0.2965  0.6906
   52MOL   C28346285   7.495   5.049   4.309  0.2601  0.0215 -0.1489
   52MOL   C28446286   7.458   4.920   4.361 -0.2410  0.0228 -0.1407
   52MOL   C28546287   7.341   4.852   4.318  0.2098  0.5384  0.6261
   52MOL   C28646288   7.262   4.912   4.215 -0.0826 -0.0666  0.7085
   52MOL   O28746289   7.547   4.860   4.445  0.1430  0.2023 -0.1791
   52MOL   C28846290   7.682   4.887   4.431 -0.3546 -0.4756  0.3056
   52MOL   C28946291   7.750   4.921   4.548 -0.1699  0.6011  0.0311
   52MOL   C29046292   7.895   4.943   4.548  0.2444  0.2329  0.2047
   52MOL   C29146293   7.963   4.929   4.429 -0.4918 -0.3292  0.0705
   52MOL   C29246294   7.889   4.887   4.313 -0.2542 -0.3353 -0.2123
   52MOL   C29346295   7.750   4.866   4.317  0.2284  0.6441 -0.8108
   52MOL   C29446296   8.108   4.955   4.418 -0.8993 -0.3855 -0.2450
   52MOL   C29546297   8.188   4.885   4.323 -0.6875 -0.5792  0.1708
   52MOL   C29646298   8.324   4.912   4.319  0.0879  0.0632  0.0218
   52MOL   C29746299   0.027   4.991   4.415  0.2079  0.6376  0.8040
   52MOL   C29846300   8.317   5.056   4.513 -0.3912  0.2746 -0.1186
   52MOL   C29946301   8.178   5.039   4.506  0.3165  0.3334 -0.3533
   52MOL   O30046302   0.162   5.013   4.397 -0.6218 -0.5103  0.0759
   52MOL   H30146303   7.015   5.431   4.380 -0.3553 -0.4301  0.0911
   52MOL   H30246304   7.204   5.306   4.275  0.0066  1.7901 -0.7014
   52MOL   H30346305   6.905   5.156   3.996 -3.3471 -1.7942  2.2976
   52MOL   H30446306   6.732   5.277   4.105  0.4391  0.0135 -1.2858
   52MOL   H30546307   7.422   5.211   4.188 -0.1125 -0.1552  1.0585
   52MOL   H30646308   7.578   5.106   4.347  0.3070  0.8888 -1.5387
   52MOL   H30746309   7.337   4.748   4.347 -0.3741  0.7769  1.4207
   52MOL   H30846310   7.181   4.856   4.170 -1.3810  1.0473  1.6019
   52MOL   H30946311   7.701   4.922   4.643  0.0164  0.9163  0.1238
   52MOL   H31046312   7.947   4.961   4.641 -2.1192  0.7388  1.4908
   52MOL   H31146313   7.945   4.875   4.221 -0.8832  1.1208 -0.7967
   52MOL   H31246314   7.698   4.822   4.233 -2.5789 -0.7431  1.5723
   52MOL   H31346315   8.145   4.817   4.251  3.1568 -0.0371 -2.7839
   52MOL   H31446316   0.028   4.856   4.258  1.4737 -0.6310  2.1812
   52MOL   H31546317   8.358   5.126   4.585 -0.1013  0.6286 -0.6257
   52MOL   H31646318   8.117   5.098   4.574 -0.2494  1.0422 -1.4513
   52MOL   C31746319   0.252   4.910   4.444  0.7175  0.6962  0.0393
   52MOL   C31846320   0.296   4.807   4.362  0.1336  0.2680  0.3062
   52MOL   C31946321   0.370   4.702   4.413 -0.3477 -0.3509 -0.3038
   52MOL   C32046322   0.426   4.710   4.539  0.1870 -0.1895 -0.0512
   52MOL   C32146323   0.395   4.823   4.622 -0.0129 -0.0363  0.0824
   52MOL   C32246324   0.296   4.915   4.577  0.3134  0.0120  0.0471
   52MOL   S32346325   0.551   4.590   4.591  0.1405 -0.0380  0.4492
   52MOL   O32446326   0.683   4.649   4.601  0.1083 -0.5911  0.1152
   52MOL   O32546327   0.534   4.470   4.512 -0.4199  0.3426  0.8096
   52MOL   C32646328   0.490   4.562   4.753  0.5550 -0.1878 -1.0800
   52MOL   C32746329   0.552   4.622   4.868  0.6124 -0.0628 -0.0262
   52MOL   C32846330   0.500   4.591   4.996  0.6363 -0.2846  0.8950
   52MOL   C32946331   0.393   4.502   5.010  0.1462 -0.3123 -0.0671
   52MOL   C33046332   0.336   4.447   4.894  0.6738 -0.3279 -0.1726
   52MOL   C33146333   0.392   4.467   4.768  0.3197 -0.3849  0.4601
   52MOL   O33246334   0.324   4.490   5.128 -0.0492 -0.0613  0.6272
   52MOL   C33346335   0.283   4.607   5.188  0.6104 -1.2982  0.9413
   52MOL   C33446336   0.162   4.669   5.149 -0.2114  0.1649 -0.2581
   52MOL   C33546337   0.109   4.791   5.200 -0.1021 -0.2278  0.2347
   52MOL   C33646338   0.182   4.849   5.302  0.8045 -0.2565  0.8918
   52MOL   C33746339   0.307   4.789   5.345 -0.4240 -0.0403  0.2213
   52MOL   C33846340   0.354   4.671   5.290 -0.0375 -0.8926 -0.1052
   52MOL   C33946341   0.138   4.976   5.364  0.8160  0.2219  0.5435
   52MOL   C34046342   0.141   4.994   5.508  0.8233  1.3625  0.4499
   52MOL   C34146343   0.104   5.113   5.567 -0.0215 -0.6167  0.3244
   52MOL   C34246344   0.053   5.224   5.489  0.4348  0.5686 -0.7592
   52MOL   C34346345   0.049   5.209   5.351 -0.7161  1.1904  0.2146
   52MOL   C34446346   0.089   5.088   5.288  0.9630 -0.0597 -0.0447
   52MOL   O34546347   0.013   5.339   5.550 -0.2673  0.2090  0.2044
   52MOL   H34646348   0.271   4.810   4.257 -1.0936 -2.0540  0.5067
   52MOL   H34746349   0.391   4.620   4.347 -2.2462 -0.5126 -0.7550
   52MOL   H34846350   0.434   4.848   4.720 -1.4407 -0.2681  0.7336
   52MOL   H34946351   0.270   4.992   4.648  1.2495 -0.0165  0.4329
   52MOL   H35046352   0.633   4.693   4.857 -1.3681  1.9976 -1.9753
   52MOL   H35146353   0.547   4.638   5.082  3.5586  2.4345 -2.0291
   52MOL   H35246354   0.251   4.380   4.904 -0.0441  0.5794 -0.1244
   52MOL   H35346355   0.355   4.434   4.672  0.8352  1.4657 -0.4162
   52MOL   H35446356   0.108   4.620   5.069 -2.3836  2.2448 -0.1172
   52MOL   H35546357   0.016   4.833   5.167 -0.2244 -1.9554 -1.7281
   52MOL   H35646358   0.369   4.847   5.413 -1.2259  2.4755 -1.1273
   52MOL   H35746359   0.449   4.631   5.324  0.2848 -0.7895 -0.8771
   52MOL   H35846360   0.165   4.914   5.577 -0.8416  1.7881  1.5456
   52MOL   H35946361   0.103   5.124   5.675  1.8127 -3.1461  0.6543
   52MOL   H36046362   0.003   5.286   5.291 -2.2709  0.7127  0.7581
   52MOL   H36146363   0.069   5.082   5.182 -0.6582  1.2507  0.1694
   52MOL   C36246364   8.252   5.338   5.604 -0.1350  0.3570  0.1208
   52MOL   C36346365   8.177   5.220   5.646 -0.1760  1.0889  0.2727
   52MOL   C36446366   8.070   5.232   5.732 -0.1165 -0.7698 -0.5998
   52MOL   C36546367   8.017   5.362   5.760  0.2914  0.5093 -0.2360
   52MOL   C36646368   8.077   5.474   5.697 -0.0536 -0.5319 -0.1251
   52MOL   C36746369   8.196   5.461   5.623  0.1666  0.1553 -0.0809
   52MOL   S36846370   7.870   5.378   5.874 -0.1077  0.5276  0.2123
   52MOL   O36946371   7.885   5.500   5.954 -0.2463 -0.3305  0.4265
   52MOL   O37046372   7.852   5.244   5.933 -0.0868  0.1243 -0.2102
   52MOL   C37146373   7.737   5.410   5.761  0.0201  0.2449 -0.3958
   52MOL   C37246374   7.714   5.312   5.659  0.2156  0.0883 -0.1770
   52MOL   C37346375   7.614   5.344   5.562 -0.3701 -0.4070  0.3339
   52MOL   C37446376   7.531   5.455   5.578  0.6537  0.4432  0.5267
   52MOL   C37546377   7.548   5.545   5.683  0.3703 -0.1196  0.4734
   52MOL   C37646378   7.657   5.525   5.771  0.2641 -0.2788 -1.0924
   52MOL   O37746379   7.430   5.495   5.490  0.0531  0.0906 -1.1968
   52MOL   C37846380   7.384   5.401   5.395 -1.1698  0.2904  0.3857
   52MOL   C37946381   7.384   5.436   5.256  0.3044  0.7295 -0.5916
   52MOL   C38046382   7.340   5.340   5.165  1.0011  0.2672 -0.1468
   52MOL   C38146383   7.287   5.212   5.209 -0.0066 -0.7283  0.6359
   52MOL   C38246384   7.287   5.183   5.343  0.6050  0.0146 -0.3427
   52MOL   C38346385   7.328   5.281   5.440  0.4479 -0.0519  0.7447
   52MOL   C38446386   7.246   5.100   5.124 -0.2362  0.9760  0.3522
   52MOL   C38546387   7.118   5.040   5.126 -0.0255  0.3411 -0.5202
   52MOL   C38646388   7.088   4.927   5.041 -0.4249  0.0982 -0.0660
   52MOL   C38746389   7.191   4.881   4.954  0.0498  0.2030 -0.2716
   52MOL   C38846390   7.320   4.946   4.950  0.3483  0.2579  0.5107
   52MOL   C38946391   7.341   5.056   5.033 -0.3614  0.5851 -0.6458
   52MOL   O39046392   7.162   4.773   4.866  0.4095 -0.0647 -0.3316
   52MOL   H39146393   8.209   5.118   5.635  0.3972  1.0568  2.2118
   52MOL   H39246394   8.028   5.144   5.779  2.6500 -2.4095 -1.0830
   52MOL   H39346395   8.066   5.577   5.728  2.0331  0.3597 -2.2039
   52MOL   H39446396   8.251   5.552   5.603  2.0811 -1.3800 -1.9789
   52MOL   H39546397   7.776   5.224   5.648  0.5797  0.3368 -0.1230
   52MOL   H39646398   7.615   5.287   5.470  1.3237 -0.7659  0.5576
   52MOL   H39746399   7.494   5.638   5.688 -0.5887 -0.4687 -2.4413
   52MOL   H39846400   7.685   5.600   5.843  2.0294 -1.9038 -0.0497
   52MOL   H39946401   7.434   5.523   5.216 -1.5102  1.9895 -0.1586
   52MOL   H40046402   7.333   5.357   5.059 -0.1382  0.2854 -0.0805
   52MOL   H40146403   7.254   5.083   5.365  1.2070 -0.0086  0.4817
   52MOL   H40246404   7.322   5.250   5.543  1.6219  0.2263  0.9099
   52MOL   H40346405   7.039   5.071   5.193 -0.5891 -1.8717 -0.1335
   52MOL   H40446406   6.993   4.878   5.030 -0.9956 -0.5653  6.0556
   52MOL   H40546407   7.389   4.903   4.879 -0.2159  2.3660 -1.3469
   52MOL   H40646408   7.438   5.103   5.032 -0.1993  0.3324  1.2029
   52MOL   C40746409   7.266   4.709   4.806 -0.2924 -1.1047  0.1629
   52MOL   C40846410   7.281   4.697   4.664  0.2571  0.0723 -0.3417
   52MOL   C40946411   7.400   4.637   4.616 -0.4296 -0.0218 -0.2161
   52MOL   C41046412   7.498   4.579   4.707  0.5455 -0.2382  0.0493
   52MOL   C41146413   7.470   4.581   4.848 -0.1479  0.7101 -0.3997
   52MOL   C41246414   7.358   4.650   4.895  0.2518  0.0198  0.7162
   52MOL   S41346415   7.655   4.499   4.652 -0.1792 -0.1923  0.0697
   52MOL   O41446416   7.758   4.556   4.737 -0.4793 -0.4373 -0.2839
   52MOL   O41546417   7.660   4.504   4.507  0.6423  0.1880 -0.0493
   52MOL   C41646418   7.638   4.320   4.691  0.3029 -0.9483  0.3282
   52MOL   C41746419   7.677   4.273   4.819  0.3061  0.1270  0.3372
   52MOL   C41846420   7.659   4.131   4.851  0.4404  0.4761 -0.1615
   52MOL   C41946421   7.567   4.054   4.771 -0.4920  0.8189  0.1551
   52MOL   C42046422   7.517   4.107   4.650  0.0078  0.4971 -0.4835
   52MOL   C42146423   7.566   4.236   4.609 -0.1616  0.3729  0.0914
   52MOL   O42246424   7.534   3.929   4.816 -0.5606  0.1125  0.7627
   52MOL   C42346425   7.613   3.822   4.782 -0.2420  0.0942 -0.5241
   52MOL   C42446426   7.746   3.816   4.824 -0.1622 -0.0787  0.0650
   52MOL   C42546427   7.825   3.698   4.793  0.7699 -0.0386 -0.4520
   52MOL   C42646428   7.765   3.587   4.732 -0.2579 -0.4905  0.8426
   52MOL   C42746429   7.630   3.600   4.692  0.1957  0.4790 -0.2778
   52MOL   C42846430   7.559   3.714   4.715 -0.6280 -0.4405 -0.3733
   52MOL   C42946431   7.844   3.476   4.691  0.3590  0.0857 -1.2585
   52MOL   C43046432   7.801   3.340   4.682 -0.2295 -0.3628 -1.1545
   52MOL   C43146433   7.882   3.240   4.622  0.3687 -0.1114 -0.6062
   52MOL   C43246434   8.012   3.268   4.576 -0.3483  0.4388  0.5489
   52MOL   C43346435   8.064   3.396   4.608 -0.5396 -0.1393  0.2973
   52MOL   C43446436   7.983   3.491   4.663  0.2502  0.0413 -0.0110
   52MOL   O43546437   8.096   3.175   4.514 -0.2319  0.1820 -0.1158
   52MOL   H43646438   7.225   4.748   4.588 -0.6005 -0.6414 -0.1946
   52MOL   H43746439   7.426   4.631   4.511  0.6653 -0.8662  0.0969
   52MOL   H43846440   7.535   4.529   4.916  0.0827  0.7098 -0.6207
   52MOL   H43946441   7.333   4.647   5.000  0.9768  0.5011  0.9066
   52MOL   H44046442   7.732   4.340   4.884  0.6352  1.3344 -1.1636
   52MOL   H44146443   7.701   4.072   4.931 -1.6036  0.2141  0.7501
   52MOL   H44246444   7.443   4.058   4.588  1.2757 -0.1504 -1.5096
   52MOL   H44346445   7.510   4.287   4.531 -1.7141 -1.1192  0.1968
   52MOL   H44446446   7.797   3.896   4.876  1.4957 -0.3158 -1.1620
   52MOL   H44546447   7.928   3.691   4.827 -0.0235 -3.6208  1.4229
   52MOL   H44646448   7.576   3.522   4.640  2.1940 -1.0292 -0.1833
   52MOL   H44746449   7.457   3.729   4.683 -0.4043  0.9176 -0.4956
   52MOL   H44846450   7.703   3.322   4.724  0.7991  0.0419  1.5352
   52MOL   H44946451   7.848   3.139   4.604 -2.1387  0.0824  2.4448
   52MOL   H45046452   8.167   3.420   4.585 -0.1734 -2.1023 -0.2429
   52MOL   H45146453   8.032   3.587   4.673 -0.4229  0.2389  1.5485
   52MOL   C45246454   8.129   3.062   4.587  0.1999  0.1945 -0.1326
   52MOL   C45346455   8.141   3.069   4.726  0.1845  0.6444  0.3430
   52MOL   C45446456   8.166   2.958   4.804  0.2922 -0.4723  0.2692
   52MOL   C45546457   8.185   2.831   4.741 -0.3111 -0.3712 -0.2224
   52MOL   C45646458   8.192   2.832   4.599  0.6239  0.5205 -0.0213
   52MOL   C45746459   8.157   2.943   4.520  0.2876 -0.4485 -0.2318
   52MOL   S45846460   8.228   2.684   4.835  0.0494 -0.2783  0.2115
   52MOL   O45946461   8.364   2.698   4.885 -0.4503 -0.3324 -0.7740
   52MOL   O46046462   8.185   2.559   4.765 -0.3487 -0.0415  0.2619
   52MOL   C46146463   8.123   2.698   4.989  0.5762  0.1852  1.0666
   52MOL   C46246464   7.998   2.764   4.990  0.8851 -0.1304 -0.7057
   52MOL   C46346465   7.915   2.759   5.108  0.1159  0.7624  0.6897
   52MOL   C46446466   7.957   2.689   5.222  1.0294 -0.4676  0.1954
   52MOL   C46546467   8.084   2.629   5.221 -0.1815  0.8780  0.0969
   52MOL   C46646468   8.168   2.631   5.105 -0.4202 -0.2200  0.7838
   52MOL   O46746469   7.879   2.693   5.336 -0.2210  0.6984  0.0213
   52MOL   C46846470   7.806   2.581   5.367 -0.0567 -0.5570  0.4995
   52MOL   C46946471   7.830   2.494   5.471 -0.5184  0.0952  0.3777
   52MOL   C47046472   7.739   2.399   5.508  0.3369 -0.0829  0.1529
   52MOL   C47146473   7.624   2.373   5.425 -0.1608  0.0462 -0.0309
   52MOL   C47246474   7.598   2.462   5.317  0.7281 -0.3160 -0.5214
   52MOL   C47346475   7.682   2.571   5.293 -0.6943 -1.2373  0.2854
   52MOL   C47446476   7.527   2.264   5.445 -0.1117  0.2146 -1.3290
   52MOL   C47546477   7.392   2.289   5.442  0.0786  0.1339 -0.7266
   52MOL   C47646478   7.305   2.177   5.437 -0.1313 -0.2185  0.3043
   52MOL   C47746479   7.352   2.041   5.456 -0.0081  0.4649  0.4657
   52MOL   C47846480   7.495   2.020   5.470  0.7744 -0.5291  0.6727
   52MOL   C47946481   7.576   2.133   5.468 -0.6986  0.6401  0.1120
   52MOL   O48046482   7.264   1.933   5.456  0.2557  0.0071 -0.1194
   52MOL   H48146483   8.121   3.163   4.774 -1.7498  0.3121  0.2253
   52MOL   H48246484   8.169   2.970   4.912  0.5476 -0.3151  0.2464
   52MOL   H48346485   8.215   2.738   4.552 -0.1382  1.2183 -1.8405
   52MOL   H48446486   8.155   2.948   4.412  1.1404 -1.4976 -0.3040
   52MOL   H48546487   7.953   2.798   4.898  0.8060  1.1485 -0.2108
   52MOL   H48646488   7.814   2.798   5.104 -0.6548 -1.0844  1.4418
   52MOL   H48746489   8.108   2.582   5.315 -5.1160  1.7832  1.9466
   52MOL   H48846490   8.250   2.561   5.102  0.3716  0.7842 -3.2473
   52MOL   H48946491   7.914   2.490   5.538  0.7801  2.5386 -1.0377
   52MOL   H49046492   7.756   2.342   5.598  3.3499  0.5047  0.0002
   52MOL   H49146493   7.503   2.455   5.267 -0.9345 -2.7623  2.8239
   52MOL   H49246494   7.656   2.639   5.213 -1.6156 -0.4800  1.2015
   52MOL   H49346495   7.360   2.392   5.438  0.4048  0.2997  0.6052
   52MOL   H49446496   7.200   2.196   5.421 -0.4496 -0.9029  1.5101
   52MOL   H49546497   7.525   1.918   5.492 -0.8471 -1.5592 -1.6954
   52MOL   H49646498   7.681   2.109   5.478 -0.9520 -0.7169 -0.3896
   52MOL   C49746499   7.139   1.954   5.512 -0.2829 -0.5057 -0.0784
   52MOL   C49846500   7.121   2.031   5.632 -0.2014 -0.0873  0.5681
   52MOL   C49946501   6.989   2.050   5.685  0.0969 -0.2973  0.7495
   52MOL   C50046502   6.878   1.997   5.619 -0.8197  0.6374 -0.5815
   52MOL   C50146503   6.893   1.917   5.505  0.6810 -0.4477  0.0523
   52MOL   C50246504   7.024   1.892   5.455 -0.0485 -0.0148  0.1436
   52MOL   S50346505   6.717   2.012   5.695 -0.9051 -0.0483 -0.1750
   52MOL   O50446506   6.614   1.978   5.597 -0.1370  0.2150  0.6823
   52MOL   O50546507   6.706   2.141   5.767 -0.2698 -0.3770 -0.3697
   52MOL   C50646508   6.717   1.877   5.811 -0.5161  0.2717 -0.0168
   52MOL   C50746509   6.617   1.777   5.813 -0.4200  0.6401 -0.0553
   52MOL   C50846510   6.613   1.682   5.924 -0.4525 -0.0523 -0.1545
   52MOL   C50946511   6.714   1.695   6.019  0.1400  0.0703 -1.0528
   52MOL   C51046512   6.807   1.800   6.026 -0.0542  0.4819 -0.1617
   52MOL   C51146513   6.806   1.899   5.925  0.3253 -0.0324 -0.0822
   52MOL   O51246514   6.728   1.606   6.120  0.0337 -0.0166 -0.0347
   52MOL   C51346515   6.686   1.646   6.253  0.5672  0.1464  0.7428
   52MOL   C51446516   6.764   1.596   6.366  0.2604  0.6549 -0.0026
   52MOL   C51546517   6.732   1.647   6.491  0.4960  1.1547 -0.5201
   52MOL   C51646518   6.616   1.723   6.511 -0.1381  0.3967  0.3987
   52MOL   C51746519   6.542   1.770   6.401  0.2389 -0.4924  0.0713
   52MOL   C51846520   6.579   1.728   6.272 -0.6621  0.1268 -0.0411
   52MOL   C51946521   6.571   1.756   6.644 -0.1134  0.2664 -0.4728
   52MOL   C52046522   6.660   1.833   6.731 -0.5667  0.3700  0.3622
   52MOL   C52146523   6.627   1.862   6.864 -0.9262  0.8903 -0.8670
   52MOL   C52246524   6.501   1.818   6.917  0.3821  0.0414 -0.0161
   52MOL   C52346525   6.418   1.751   6.831  0.5443 -0.0148  0.2598
   52MOL   C52446526   6.446   1.710   6.702 -0.3442 -0.0254  0.3838
   52MOL   O52546527   6.466   1.847   7.044  0.3536  0.3304  0.1146
   52MOL   H52646528   7.206   2.091   5.663 -0.6669  1.2418 -0.6532
   52MOL   H52746529   6.982   2.116   5.771  0.7231  1.2519 -0.3729
   52MOL   H52846530   6.811   1.880   5.445  0.9574  2.2980 -2.1612
   52MOL   H52946531   7.034   1.835   5.364 -0.0006 -0.7177  0.5903
   52MOL   H53046532   6.551   1.757   5.729 -0.5521  0.1670  0.1609
   52MOL   H53146533   6.549   1.595   5.927 -2.5898  1.5295  1.9071
   52MOL   H53246534   6.879   1.810   6.106 -1.2230  1.5411  0.7513
   52MOL   H53346535   6.870   1.984   5.938 -0.1690  0.1125  1.5335
   52MOL   H53446536   6.841   1.521   6.359  0.8901  1.3816 -1.2674
   52MOL   H53546537   6.782   1.628   6.585 -1.5513  1.3101  0.6302
   52MOL   H53646538   6.461   1.839   6.417  0.9620  0.7332 -1.3578
   52MOL   H53746539   6.523   1.761   6.185  0.0883 -1.5507 -1.1845
   52MOL   H53846540   6.744   1.876   6.680 -0.5878 -2.4005 -2.1970
   52MOL   H53946541   6.705   1.909   6.923  1.0092 -0.3857 -2.3159
   52MOL   H54046542   6.324   1.719   6.873  0.4129 -2.7579 -1.9754
   52MOL   H54146543   6.379   1.660   6.635 -1.0541  0.7247  0.5246
   52MOL   C54246544   6.359   1.923   7.058 -0.2681  0.4349 -0.3049
   52MOL   C54346545   6.378   2.060   7.045 -0.2214  1.1059 -0.1510
   52MOL   C54446546   6.266   2.144   7.043 -0.4278  0.3800 -0.3670
   52MOL   C54546547   6.133   2.091   7.043 -0.1440  0.9018 -0.1113
   52MOL   C54646548   6.116   1.949   7.051 -0.5445  0.6543  0.6999
   52MOL   C54746549   6.228   1.866   7.060 -0.2596  0.0932  0.1622
   52MOL   S54846550   5.996   2.211   7.020  0.1991 -0.1705  0.0749
   52MOL   O54946551   5.974   2.229   6.875 -0.8576 -0.3006 -0.7151
   52MOL   O55046552   6.034   2.328   7.102  0.2618 -0.1961 -0.5158
   52MOL   C55146553   5.853   2.130   7.093  0.1691 -0.3590  0.6678
   52MOL   C55246554   5.728   2.142   7.029 -0.3505 -0.0018  0.0726
   52MOL   C55346555   5.607   2.096   7.088  0.4228  0.1688  0.1440
   52MOL   C55446556   5.622   2.033   7.217  0.5639  0.7549  0.7854
   52MOL   C55546557   5.746   2.012   7.282 -0.0065  0.2559 -0.0581
   52MOL   C55646558   5.863   2.074   7.224  0.5388 -0.4025  0.7293
   52MOL   O55746559   5.499   1.995   7.260  0.2681 -0.0140  0.4326
   52MOL   C55846560   5.495   1.906   7.365 -0.0230 -0.2534  0.1110
   52MOL   C55946561   5.482   1.768   7.336  0.2920  0.4551  0.0034
   52MOL   C56046562   5.453   1.675   7.437 -0.0845  0.0204  0.8364
   52MOL   C56146563   5.447   1.713   7.577 -0.2581 -0.0847 -0.2289
   52MOL   C56246564   5.466   1.849   7.603  0.1849 -0.1188  0.2121
   52MOL   C56346565   5.489   1.946   7.500  0.1463  0.3825 -0.1618
   52MOL   C56446566   5.432   1.604   7.671 -0.3980 -0.1810  0.1229
   52MOL   C56546567   5.528   1.588   7.777  0.1136  0.3319  0.4284
   52MOL   C56646568   5.522   1.474   7.864 -0.0938  0.2361  0.5386
   52MOL   C56746569   5.422   1.375   7.849 -0.1952  0.4017 -0.0067
   52MOL   C56846570   5.327   1.388   7.747 -0.2953 -0.9335  0.7864
   52MOL   C56946571   5.332   1.502   7.660  0.2482 -0.2247 -0.2552
   52MOL   O57046572   5.429   1.270   7.938  0.0976 -0.2744 -0.0291
   52MOL   H57146573   6.479   2.098   7.042  0.4967 -0.8259 -1.3650
   52MOL   H57246574   6.276   2.252   7.051  1.4909  0.2669 -1.0233
   52MOL   H57346575   6.019   1.903   7.053  0.4611 -1.5794  0.0505
   52MOL   H57446576   6.208   1.759   7.059  1.1343 -0.1815 -1.3604
   52MOL   H57546577   5.720   2.203   6.940 -1.1281  0.6119  0.5532
   52MOL   H57646578   5.514   2.107   7.036 -0.0675  0.4708  1.0655
   52MOL   H57746579   5.760   1.960   7.376 -1.7360 -0.5888 -0.2473
   52MOL   H57846580   5.959   2.073   7.273  0.2556  2.2118  1.3987
   52MOL   H57946581   5.505   1.744   7.233  1.9871  1.8674  0.0297
   52MOL   H58046582   5.440   1.573   7.403 -0.4952  0.0155  1.0125
   52MOL   H58146583   5.452   1.892   7.701 -0.6918  1.0304 -0.3992
   52MOL   H58246584   5.499   2.049   7.531  1.0281  0.9383 -2.1853
   52MOL   H58346585   5.601   1.665   7.793  0.9739  0.0264 -1.8465
   52MOL   H58446586   5.599   1.467   7.939 -1.2083 -1.0998  1.5722
   52MOL   H58546587   5.255   1.311   7.724  0.1445 -0.8788 -0.8029
   52MOL   H58646588   5.261   1.498   7.579  1.1752  0.8041 -1.1223
   52MOL   C58746589   5.538   1.193   7.946 -0.4650  0.5034 -0.1121
   52MOL   C58846590   5.569   1.093   7.854 -0.6254  0.3272  0.2916
   52MOL   C58946591   5.686   1.013   7.865  0.5270  0.3464 -0.3152
   52MOL   C59046592   5.771   1.034   7.974  0.0901 -0.6053 -0.0428
   52MOL   C59146593   5.741   1.131   8.072  0.2637  0.1721  0.0994
   52MOL   C59246594   5.625   1.208   8.058 -0.0897 -0.4322 -0.9460
   52MOL   S59346595   5.906   0.927   8.001 -0.2193  0.3020  0.0943
   52MOL   O59446596   5.858   0.785   7.993 -0.2880  0.6271  0.0617
   52MOL   O59546597   5.972   0.974   8.123  0.0436  0.1548  0.1002
   52MOL   C59646598   6.006   0.962   7.859  0.9515 -0.9129  0.1543
   52MOL   C59746599   6.018   0.869   7.753 -0.1477 -0.4564 -0.2984
   52MOL   C59846600   6.089   0.897   7.636 -0.5977 -0.3922  0.4876
   52MOL   C59946601   6.163   1.023   7.628  0.7242  0.4607  0.3894
   52MOL   C60046602   6.146   1.121   7.731  0.2272  0.0819  0.4927
   52MOL   C60146603   6.066   1.094   7.845  0.0118 -0.1356  0.2108
   52MOL   O60246604   6.236   1.049   7.518  0.3162 -0.3778  0.0731
   52MOL   C60346605   6.361   1.103   7.537  0.6192 -0.3290  0.1463
   52MOL   C60446606   6.475   1.023   7.556  0.1698  0.1410  0.1255
   52MOL   C60546607   6.608   1.082   7.567  0.3306 -0.0079 -0.1004
   52MOL   C60646608   6.624   1.218   7.570  0.5147 -0.3121  0.0619
   52MOL   C60746609   6.508   1.300   7.554 -0.6986 -0.3091  0.5415
   52MOL   C60846610   6.374   1.245   7.536 -0.9049 -0.5160  0.3308
   52MOL   C60946611   6.759   1.276   7.581 -0.3261  0.1827  0.3494
   52MOL   C61046612   6.856   1.239   7.486  0.2234  0.1615 -0.3945
   52MOL   C61146613   6.983   1.298   7.490  0.6770 -0.1219 -0.8296
   52MOL   C61246614   7.008   1.396   7.592 -0.2677  0.3414  0.6148
   52MOL   C61346615   6.906   1.446   7.679  0.2005  0.0640  0.2100
   52MOL   C61446616   6.786   1.369   7.684 -0.2870  0.1985 -0.1205
   52MOL   O61546617   7.130   1.456   7.603  0.3730 -0.2455  0.0798
   52MOL   H61646618   5.508   1.072   7.767 -1.3107 -0.9156  1.0527
   52MOL   H61746619   5.714   0.935   7.795 -1.8444 -0.3644 -0.5170
   52MOL   H61846620   5.801   1.141   8.162  0.9204  1.3750 -0.4573
   52MOL   H61946621   5.596   1.270   8.140  0.2123  0.4322 -1.4888
   52MOL   H62046622   5.977   0.770   7.763  0.4511 -0.6298  0.5358
   52MOL   H62146623   6.101   0.828   7.554  0.9282 -0.3868  0.6970
   52MOL   H62246624   6.189   1.220   7.725 -0.7854  0.4011 -1.9044
   52MOL   H62346625   6.055   1.158   7.931  0.0268  0.3232 -0.1274
   52MOL   H62446626   6.467   0.916   7.543  1.3215  0.0443  0.1831
   52MOL   H62546627   6.696   1.020   7.575  0.0312 -0.6361 -1.6546
   52MOL   H62646628   6.528   1.406   7.545 -1.9632 -0.0236  1.0379
   52MOL   H62746629   6.290   1.310   7.520 -0.6236 -0.5043 -1.2417
   52MOL   H62846630   6.817   1.186   7.400  1.2738 -0.5595 -0.4391
   52MOL   H62946631   7.064   1.276   7.422  1.2900 -2.4320  0.6094
   52MOL   H63046632   6.936   1.524   7.747  1.8701 -0.4101  0.0404
   52MOL   H63146633   6.710   1.378   7.760 -0.7530 -2.0878 -0.2771
   52MOL   C63246634   7.191   1.482   7.484 -0.1545  0.4179 -0.1682
   52MOL   C63346635   7.148   1.590   7.407  0.3845 -0.5618 -0.2668
   52MOL   C63446636   7.209   1.627   7.292  0.0848 -0.3684  0.1182
   52MOL   C63546637   7.319   1.558   7.247 -0.0824 -0.2114 -0.0107
   52MOL   C63646638   7.367   1.452   7.321 -0.6966  0.3340 -0.0853
   52MOL   C63746639   7.301   1.407   7.440 -1.0706  0.1961 -0.1291
   52MOL   S63846640   7.412   1.615   7.110  0.1458  0.0283  0.3404
   52MOL   O63946641   7.347   1.728   7.047 -0.1717  0.3857  1.2951
   52MOL   O64046642   7.455   1.501   7.030 -0.4396 -0.3137 -0.0314
   52MOL   C64146643   7.556   1.679   7.197  0.3947 -0.0132  0.7578
   52MOL   C64246644   7.535   1.770   7.307  0.0890  0.9113 -0.1072
   52MOL   C64346645   7.646   1.815   7.379  0.2623  0.3317  0.2439
   52MOL   C64446646   7.778   1.769   7.351  0.7984  0.2972  0.8792
   52MOL   C64546647   7.799   1.683   7.244 -0.3520  0.0529 -0.1767
   52MOL   C64646648   7.691   1.632   7.167 -0.2824  0.2578 -0.2626
   52MOL   O64746649   7.888   1.815   7.422  0.1584  0.4187 -0.0211
   52MOL   C64846650   7.973   1.720   7.468  0.5589 -0.3587 -0.6988
   52MOL   C64946651   8.106   1.735   7.430 -0.2894 -0.9185  0.4133
   52MOL   C65046652   8.200   1.648   7.487  0.0384 -0.0015  0.0228
   52MOL   C65146653   8.158   1.543   7.578  0.8961  0.0707 -0.5996
   52MOL   C65246654   8.020   1.536   7.616  0.2325  0.1098 -0.2816
   52MOL   C65346655   7.928   1.625   7.555  0.2594  0.1676  0.3575
   52MOL   C65446656   8.240   1.448   7.637  0.0762  0.8896 -0.7031
   52MOL   C65546657   8.273   1.462   7.778  0.4268 -0.5021 -0.0003
   52MOL   C65646658   8.364   1.381   7.836  0.4552  0.1427  0.0644
   52MOL   C65746659   0.056   1.272   7.765  0.1069 -0.1834  0.0527
   52MOL   C65846660   0.015   1.253   7.626  0.8946  0.3332  0.1932
   52MOL   C65946661   8.283   1.338   7.568 -0.9015 -0.9874 -0.7936
   52MOL   O66046662   0.143   1.193   7.825 -0.1628  0.4251 -0.5693
   52MOL   H66146663   7.065   1.649   7.442 -1.1204 -1.4556 -2.2322
   52MOL   H66246664   7.169   1.710   7.237  0.3582 -1.0507 -1.1335
   52MOL   H66346665   7.457   1.402   7.286  0.2716  0.7219  1.7674
   52MOL   H66446666   7.354   1.330   7.495 -0.0665  2.1666  1.7445
   52MOL   H66546667   7.439   1.813   7.329  0.8969  2.7967 -0.2114
   52MOL   H66646668   7.641   1.876   7.468  0.9934 -2.1934  2.0749
   52MOL   H66746669   7.899   1.646   7.222  0.2751  0.8179  1.3053
   52MOL   H66846670   7.718   1.561   7.091 -0.1504 -0.1118  0.1306
   52MOL   H66946671   8.140   1.803   7.354  1.3403 -1.6359  0.4772
   52MOL   H67046672   8.299   1.646   7.445 -0.0407 -2.4322 -0.1502
   52MOL   H67146673   7.977   1.450   7.666 -0.4336  0.7329  0.2212
   52MOL   H67246674   7.824   1.609   7.578  0.4444  1.5123  2.3288
   52MOL   H67346675   8.226   1.539   7.838  0.3720  0.6053 -1.4591
   52MOL   H67446676   0.028   1.399   7.939 -1.6353  2.5656  0.2893
   52MOL   H67546677   0.049   1.162   7.579 -0.7477 -0.4130  0.4155
   52MOL   H67646678   8.256   1.341   7.464 -0.8714 -0.9758 -0.8009
   52MOL   C67746679   0.133   1.058   7.800  0.3435  0.8546  0.4175
   52MOL   C67846680   0.006   0.992   7.825  0.0967 -0.2387  0.1979
   52MOL   C67946681   8.363   0.851   7.823  0.5832  0.6499  0.2148
   52MOL   C68046682   0.112   0.778   7.801  0.0497  0.6230  0.0174
   52MOL   C68146683   0.231   0.844   7.781  0.6284 -0.3279  0.1400
   52MOL   C68246684   0.247   0.986   7.773  0.3776  0.6052 -0.0741
   52MOL   S68346685   0.102   0.602   7.793 -0.2474  0.0666  0.0885
   52MOL   O68446686   0.012   0.556   7.896 -0.8045  0.1785  0.2095
   52MOL   O68546687   0.238   0.545   7.776  0.0544 -0.0471 -0.9621
   52MOL   C68646688   0.022   0.574   7.639  0.2828 -0.2905 -1.3413
   52MOL   C68746689   8.342   0.443   7.618 -0.7119  0.2475 -0.5971
   52MOL   C68846690   8.286   0.415   7.495  0.4710  0.1090 -0.9146
   52MOL   C68946691   8.265   0.514   7.397 -0.1792 -0.7207 -0.2720
   52MOL   C69046692   8.300   0.648   7.426  0.4898  0.7031  0.0690
   52MOL   C69146693   0.002   0.675   7.544 -0.2766 -0.2520  0.5370
   52MOL   O69246694   8.220   0.473   7.277  0.3835 -0.2960  0.0284
   52MOL   C69346695   8.150   0.541   7.184 -0.3110 -0.4711  0.7040
   52MOL   C69446696   8.188   0.518   7.047  0.5168 -0.2730 -0.1299
   52MOL   C69546697   8.120   0.578   6.938 -0.2677  0.3870 -0.1475
   52MOL   C69646698   8.007   0.660   6.976  0.1795 -0.1784  0.6322
   52MOL   C69746699   7.969   0.681   7.111  0.3622 -0.7229  0.2866
   52MOL   C69846700   8.046   0.634   7.215 -0.2189  0.7886  0.1423
   52MOL   C69946701   7.935   0.724   6.862 -0.1639  0.2209 -0.7460
   52MOL   C70046702   7.899   0.655   6.745  0.5852 -0.4734  0.2334
   52MOL   C70146703   7.842   0.716   6.631 -0.3677  0.4694 -0.5172
   52MOL   C70246704   7.810   0.852   6.636 -0.5207  0.0753 -0.4147
   52MOL   C70346705   7.835   0.923   6.751  0.1673  0.8419 -0.3123
   52MOL   C70446706   7.893   0.860   6.859 -0.3229 -0.1494 -0.6026
   52MOL   O70546707   7.748   0.906   6.528  0.2993 -0.1783 -0.1570
   52MOL   H70646708   8.287   1.049   7.861  0.1422  0.2452 -0.4649
   52MOL   H70746709   8.268   0.803   7.840 -0.5439  2.8717  0.3040
   52MOL   H70846710   0.324   0.788   7.776  1.9379  1.9394 -2.1232
   52MOL   H70946711   0.342   1.037   7.762  0.0145  0.8619 -2.2928
   52MOL   H71046712   8.342   0.365   7.693 -3.2282  0.1909 -0.6433
   52MOL   H71146713   8.248   0.317   7.471  2.0980 -0.8272  0.2393
   52MOL   H71246714   8.283   0.726   7.353 -1.6444  0.7350  0.5711
   52MOL   H71346715   0.033   0.778   7.557 -1.4386  0.1447  0.2250
   52MOL   H71446716   8.272   0.456   7.022  0.1739 -1.5484  1.7750
   52MOL   H71546717   8.158   0.572   6.837 -0.1775 -1.6333 -0.0126
   52MOL   H71646718   7.876   0.732   7.128 -0.5398 -2.3031  0.1753
   52MOL   H71746719   8.004   0.647   7.314 -0.1583 -1.0931  0.4471
   52MOL   H71846720   7.922   0.550   6.744  1.1076 -0.3632  0.3561
   52MOL   H71946721   7.813   0.659   6.545  1.8351  0.5915 -1.3696
   52MOL   H72046722   7.806   1.027   6.753 -0.3323  0.7062 -0.5087
   52MOL   H72146723   7.914   0.921   6.946 -1.3164  0.2648 -0.6488
   52MOL   C72246724   7.800   1.028   6.490  0.2127  0.8675 -0.3980
   52MOL   C72346725   7.721   1.142   6.518  0.4959 -0.1297  0.0913
   52MOL   C72446726   7.782   1.272   6.508 -0.8920  0.3557 -0.7026
   52MOL   C72546727   7.915   1.287   6.476  0.4368 -0.6395 -0.6160
   52MOL   C72646728   7.995   1.174   6.446  0.1503  0.2763  0.5774
   52MOL   C72746729   7.937   1.048   6.446  0.4695 -0.2878 -0.5808
   52MOL   S72846730   7.995   1.444   6.443  0.1208  0.2021  0.0440
   52MOL   O72946731   8.131   1.428   6.500  0.3105 -0.9721 -0.1629
   52MOL   O73046732   7.915   1.557   6.500  0.2259 -0.0951  0.5205
   52MOL   C73146733   8.011   1.470   6.261  0.1537 -0.3100 -0.4322
   52MOL   C73246734   7.891   1.479   6.184  0.4399 -0.5026 -0.4980
   52MOL   C73346735   7.905   1.501   6.048 -0.4840  0.2866 -0.0432
   52MOL   C73446736   8.037   1.511   5.984  0.1514 -0.4588 -0.3917
   52MOL   C73546737   8.153   1.514   6.063  0.2306  0.1089  0.2324
   52MOL   C73646738   8.139   1.485   6.198 -0.6714 -0.0311 -0.3374
   52MOL   O73746739   8.042   1.538   5.849 -0.9784 -0.9301  0.1536
   52MOL   C73846740   8.101   1.657   5.811  0.0244  0.1139  0.4674
   52MOL   C73946741   8.215   1.657   5.726  0.0915 -0.1216 -0.3845
   52MOL   C74046742   8.275   1.779   5.681 -0.4512 -0.1225  0.1261
   52MOL   C74146743   8.204   1.899   5.711  0.2616 -1.0742 -0.3889
   52MOL   C74246744   8.083   1.895   5.780 -0.1194  0.2351 -0.2249
   52MOL   C74346745   8.029   1.776   5.831 -0.6781 -0.3791  0.1191
   52MOL   C74446746   8.241   2.035   5.655  0.3612 -0.1030  0.1228
   52MOL   C74546747   8.346   2.109   5.710 -0.0353  0.7902 -0.0757
   52MOL   C74646748   0.013   2.243   5.671  0.4107  0.8784 -0.5355
   52MOL   C74746749   8.305   2.309   5.568 -0.2837 -0.0655 -0.7108
   52MOL   C74846750   8.202   2.231   5.512 -0.1760 -0.1132 -0.2458
   52MOL   C74946751   8.168   2.102   5.558  0.0542 -0.3840  0.5085
   52MOL   O75046752   8.338   2.434   5.523  0.1071 -0.0447  0.8155
   52MOL   H75146753   7.616   1.125   6.537  0.3257  1.0478  0.2130
   52MOL   H75246754   7.733   1.363   6.540 -0.9316 -0.4907  1.8080
   52MOL   H75346755   8.097   1.184   6.412  0.7176  0.4902  2.2819
   52MOL   H75446756   8.001   0.964   6.425 -0.6633 -1.0930 -0.8450
   52MOL   H75546757   7.792   1.473   6.226  0.4538  2.5155  0.0390
   52MOL   H75646758   7.814   1.518   5.992  0.2907  0.3545 -1.2904
   52MOL   H75746759   8.247   1.541   6.018  0.6011 -1.8062 -0.1713
   52MOL   H75846760   8.225   1.487   6.263 -1.4738  0.2615  0.7267
   52MOL   H75946761   8.269   1.566   5.701  2.5199  0.5892  2.0021
   52MOL   H76046762   8.366   1.778   5.623 -0.3576  0.2267  0.2650
   52MOL   H76146763   8.015   1.978   5.790  1.2467  1.2251  1.2736
   52MOL   H76246764   7.937   1.782   5.886 -0.2962 -1.3339  0.8754
   52MOL   H76346765   0.040   2.064   5.788 -0.4651  0.6146  0.1574
   52MOL   H76446766   0.085   2.294   5.734  0.8686 -1.3846  0.8373
   52MOL   H76546767   8.145   2.276   5.433  1.9817  1.4560 -0.9626
   52MOL   H76646768   8.083   2.051   5.514  2.0762 -2.9789 -0.5788
   52MOL   C76746769   8.264   2.542   5.557  0.4341 -0.0807 -0.7480
   52MOL   C76846770   8.161   2.542   5.655 -0.6033  0.1045 -0.5945
   52MOL   C76946771   8.096   2.656   5.686 -0.3182  1.0648 -0.1485
   52MOL   C77046772   8.141   2.778   5.631  0.4228 -0.5610  0.2651
   52MOL   C77146773   8.244   2.790   5.540  0.3680  0.3307  1.1736
   52MOL   C77246774   8.312   2.669   5.508 -0.3417  0.0538  0.6928
   52MOL   S77346775   8.061   2.936   5.675  0.5244 -0.0130 -0.0324
   52MOL   O77446776   8.171   3.029   5.724 -0.3091  0.8746 -0.2908
   52MOL   O77546777   7.945   2.905   5.762 -0.1123  0.4917  0.0918
   52MOL   C77646778   8.000   3.009   5.526 -0.1289  0.7635 -0.3434
   52MOL   C77746779   8.070   3.116   5.472  0.3590 -0.5606  0.2225
   52MOL   C77846780   8.029   3.169   5.347  0.5056  0.1911  0.5335
   52MOL   C77946781   7.915   3.119   5.279 -0.0426  0.1401 -0.3469
   52MOL   C78046782   7.844   3.007   5.334 -0.4876  0.8809  0.3574
   52MOL   C78146783   7.890   2.953   5.459  0.7928  0.8652 -0.9236
   52MOL   O78246784   7.876   3.183   5.169 -0.0781 -0.3937  0.5000
   52MOL   C78346785   7.810   3.123   5.071 -0.2172  0.3994  0.7646
   52MOL   C78446786   7.668   3.118   5.078  0.0751 -0.5365 -0.2023
   52MOL   C78546787   7.594   3.073   4.975 -0.1957 -0.2676 -0.0809
   52MOL   C78646788   7.656   3.016   4.856  0.1568  0.1162 -0.1648
   52MOL   C78746789   7.797   3.004   4.850  0.2351 -0.0738 -0.3272
   52MOL   C78846790   7.875   3.064   4.956 -0.2654  0.4423  0.2070
   52MOL   C78946791   7.580   2.969   4.741  0.4238  0.2394 -0.4198
   52MOL   C79046792   7.442   2.930   4.763 -0.3383 -0.9293  0.2644
   52MOL   C79146793   7.363   2.879   4.664  0.4497 -0.2422  0.2594
   52MOL   C79246794   7.411   2.857   4.530 -0.1857 -0.6584  0.6395
   52MOL   C79346795   7.543   2.895   4.508 -0.7560  0.1129 -0.0522
   52MOL   C79446796   7.626   2.944   4.608 -0.6152 -0.1191  0.1462
   52MOL   O79546797   7.341   2.800   4.428  0.3575 -0.6885 -0.4779
   52MOL   H79646798   8.124   2.447   5.689 -1.0739  0.3526 -0.4144
   52MOL   H79746799   8.003   2.646   5.739 -0.0734 -0.7884 -0.0247
   52MOL   H79846800   8.275   2.884   5.497  1.1913 -0.5287 -0.1409
   52MOL   H79946801   0.039   2.682   5.454 -0.8800 -0.1539 -0.2944
   52MOL   H80046802   8.164   3.136   5.521 -0.5649 -0.4885  2.0045
   52MOL   H80146803   8.093   3.248   5.311  2.9578 -2.3049 -0.7973
   52MOL   H80246804   7.762   2.964   5.280  2.0026 -3.2281 -0.3726
   52MOL   H80346805   7.835   2.872   5.503  0.5169 -0.6650 -3.9993
   52MOL   H80446806   7.609   3.161   5.157  0.9748  0.9567 -0.3169
   52MOL   H80546807   7.487   3.092   4.976 -0.1670 -0.0610 -0.5738
   52MOL   H80646808   7.846   2.958   4.765  1.1423 -0.5031  0.4247
   52MOL   H80746809   7.983   3.070   4.946 -0.4401 -0.5737 -2.8971
   52MOL   H80846810   7.405   2.940   4.864  0.2020  3.4444  0.1244
   52MOL   H80946811   7.257   2.867   4.684 -0.1690  3.3362 -0.5547
   52MOL   H81046812   7.586   2.867   4.413 -0.0099 -0.9583  0.5772
   52MOL   H81146813   7.728   2.967   4.584 -1.1210  0.3795 -1.5817
   52MOL   C81246814   7.206   2.783   4.453 -0.1189  0.2155 -0.2648
   52MOL   C81346815   7.148   2.666   4.516 -0.6884 -0.8069  0.2170
   52MOL   C81446816   7.012   2.672   4.555  0.1879 -0.2988  0.9415
   52MOL   C81546817   6.932   2.779   4.521 -0.4073 -0.1023 -0.1319
   52MOL   C81646818   6.982   2.888   4.449  0.0699 -0.1628 -0.6760
   52MOL   C81746819   7.120   2.890   4.413  0.6814  0.1603 -0.4524
   52MOL   S81846820   6.756   2.780   4.563 -0.1573  0.1353  0.0362
   52MOL   O81946821   6.747   2.895   4.657 -1.2652  0.0132 -0.2080
   52MOL   O82046822   6.714   2.646   4.608  0.3465 -0.2740  0.0691
   52MOL   C82146823   6.674   2.828   4.409 -0.3791 -0.5895  0.4479
   52MOL   C82246824   6.596   2.945   4.401 -0.3632  0.0219 -0.1143
   52MOL   C82346825   6.543   2.989   4.274 -0.0201  0.3529  1.0923
   52MOL   C82446826   6.546   2.899   4.162  0.4833  0.4605 -0.1975
   52MOL   C82546827   6.621   2.780   4.175  0.0510 -0.4235 -0.4098
   52MOL   C82646828   6.687   2.741   4.298 -0.0556 -0.0511 -0.1206
   52MOL   O82746829   6.499   2.940   4.038 -0.1827  0.4898  0.6834
   52MOL   C82846830   6.488   3.073   4.001 -0.5204  0.0163 -0.4592
   52MOL   C82946831   6.599   3.138   3.936  0.0997 -0.0271 -0.9308
   52MOL   C83046832   6.581   3.263   3.874  0.3210  0.0739  0.4221
   52MOL   C83146833   6.462   3.338   3.896  0.2356  0.2783  0.2212
   52MOL   C83246834   6.363   3.279   3.982 -0.0654 -0.1518 -0.1963
   52MOL   C83346835   6.371   3.148   4.026  0.0173  0.4804 -0.1151
   52MOL   C83446836   6.419   3.463   3.824 -0.2815 -0.7804 -0.1541
   52MOL   C83546837   6.381   3.583   3.893 -0.0792 -0.3240  0.2393
   52MOL   C83646838   6.327   3.695   3.821 -0.6890  1.1461  0.0860
   52MOL   C83746839   6.316   3.693   3.681 -0.7897 -0.2840  0.5857
   52MOL   C83846840   6.346   3.573   3.613 -0.2039 -0.3615  0.4276
   52MOL   C83946841   6.408   3.464   3.680  0.2533  0.0710 -0.3907
   52MOL   O84046842   6.284   3.803   3.608  0.1032 -0.0592 -0.2167
   52MOL   H84146843   7.209   2.583   4.550 -0.2863 -0.6109 -0.0236
   52MOL   H84246844   6.957   2.590   4.600  1.6750 -0.0732  3.2588
   52MOL   H84346845   6.928   2.977   4.421  1.1241  1.4744  2.3254
   52MOL   H84446846   7.168   2.978   4.374 -1.2410  0.2740 -2.7072
   52MOL   H84546847   6.591   3.013   4.484  0.3231  2.3676 -1.9158
   52MOL   H84646848   6.501   3.083   4.244 -0.4532 -0.3702 -0.6488
   52MOL   H84746849   6.642   2.724   4.085 -2.0125  0.2274 -1.3223
   52MOL   H84846850   6.744   2.650   4.296  2.4462  1.4510  0.3488
   52MOL   H84946851   6.689   3.081   3.918 -0.6181 -1.3806 -0.2481
   52MOL   H85046852   6.662   3.301   3.814  0.2218  0.2640  0.4067
   52MOL   H85146853   6.268   3.327   4.002  0.2109  0.6983 -0.8987
   52MOL   H85246854   6.289   3.099   4.077  1.4568 -1.1639  0.6593
   52MOL   H85346855   6.392   3.576   4.000 -1.3322 -0.5287  0.3650
   52MOL   H85446856   6.304   3.780   3.884 -2.0565  0.7226  0.1795
   52MOL   H85546857   6.344   3.560   3.506  2.5776 -2.0945  0.5397
   52MOL   H85646858   6.442   3.375   3.628 -1.1164 -0.8861  0.3161
   52MOL   C85746859   6.164   3.865   3.636 -0.0812 -0.0739  0.1619
   52MOL   C85846860   6.038   3.806   3.629  0.1174  0.3245 -0.1973
   52MOL   C85946861   5.920   3.880   3.657  0.0572 -0.1038 -0.0582
   52MOL   C86046862   5.928   4.013   3.710 -0.1077  0.2438  0.7576
   52MOL   C86146863   6.055   4.073   3.719  1.0299 -0.3857  0.5148
   52MOL   C86246864   6.167   4.002   3.684  0.1577 -0.3781  0.2801
   52MOL   S86346865   5.798   4.106   3.784  0.2527 -0.1467  0.1509
   52MOL   O86446866   5.848   4.153   3.914  0.7835  0.4776  0.0961
   52MOL   O86546867   5.673   4.023   3.786  0.9027  0.4535 -0.1823
   52MOL   C86646868   5.768   4.248   3.678 -0.4973 -0.4051  0.3375
   52MOL   C86746869   5.674   4.339   3.731 -0.4444  0.9162  0.2786
   52MOL   C86846870   5.654   4.462   3.663 -0.0762 -0.5293 -0.0370
   52MOL   C86946871   5.736   4.498   3.551  0.4456  0.3268  0.4262
   52MOL   C87046872   5.838   4.408   3.505  0.5254  0.1191 -0.1473
   52MOL   C87146873   5.846   4.281   3.562  0.0286 -0.6065 -0.3656
   52MOL   O87246874   5.733   4.625   3.495 -0.1428  0.0710 -0.1034
   52MOL   C87346875   5.785   4.734   3.558 -0.7477  0.1002  0.1489
   52MOL   C87446876   5.873   4.716   3.676  0.0485 -1.0807  0.5976
   52MOL   C87546877   5.916   4.836   3.747 -0.4226 -0.6112 -0.8395
   52MOL   C87646878   5.887   4.965   3.697  0.1567  0.8149 -0.5202
   52MOL   C87746879   5.820   4.976   3.574 -0.0262  0.3843 -1.0167
   52MOL   C87846880   5.769   4.863   3.504 -0.1900 -0.0045  0.6327
   52MOL   C87946881   5.927   5.085   3.774 -0.4000  0.0066  0.0183
   52MOL   C88046882   5.969   5.198   3.694 -0.0585  0.3358  0.0016
   52MOL   C88146883   6.001   5.328   3.744  0.2243  0.6965  0.2535
   52MOL   C88246884   5.992   5.333   3.886 -0.4381 -0.2848  0.5783
   52MOL   C88346885   5.949   5.227   3.971 -0.2446  0.4957  0.4616
   52MOL   C88446886   5.907   5.102   3.913  0.4265 -0.3125  0.0696
   52MOL   O88546887   6.027   5.449   3.950 -0.6075  0.0203 -0.3084
   52MOL   H88646888   6.025   3.705   3.593 -2.5348  0.9803 -1.2184
   52MOL   H88746889   5.823   3.832   3.656  0.7955 -1.6219 -0.8112
   52MOL   H88846890   6.062   4.171   3.762  0.2132  0.4571 -1.2418
   52MOL   H88946891   6.253   4.067   3.679  0.3159 -0.6433 -0.6167
   52MOL   H89046892   5.615   4.314   3.817  0.5877 -0.9019  0.4724
   52MOL   H89146893   5.576   4.526   3.700 -1.4633 -0.4316 -3.0124
   52MOL   H89246894   5.921   4.440   3.443  0.3662  0.1190 -0.3589
   52MOL   H89346895   5.915   4.211   3.517 -0.4899 -1.1297 -0.3466
   52MOL   H89446896   5.907   4.620   3.714  0.8223 -1.5300 -1.1654
   52MOL   H89546897   5.976   4.822   3.836  1.6587 -2.2927 -2.4408
   52MOL   H89646898   5.799   5.075   3.536 -0.4462  1.5983  2.1712
   52MOL   H89746899   5.729   4.874   3.404  0.9724 -0.9773  0.0418
   52MOL   H89846900   5.995   5.192   3.590  0.6684  0.3449  0.1813
   52MOL   H89946901   6.043   5.405   3.682  3.7212 -1.5437 -0.3068
   52MOL   H90046902   5.942   5.244   4.078 -0.4148  3.1882  0.0648
   52MOL   H90146903   5.852   5.035   3.977 -0.6381  1.3503  0.9342
   52MOL   H90246904   6.060   5.519   3.896  1.6925 -0.9381 -0.1873
   53MOL     C146905   4.307   5.689   0.513 -0.1318 -0.0784  0.3418
   53MOL     C246906   4.305   5.764   0.390  0.3513  0.0365 -0.0214
   53MOL     C346907   4.201   5.749   0.299  0.4544 -0.7351  1.1276
   53MOL     C446908   4.091   5.669   0.338 -0.0219  0.4234  0.2006
   53MOL     C546909   4.083   5.605   0.468 -0.4881 -0.1969 -0.1363
   53MOL     C646910   4.197   5.609   0.552  0.1861  0.0528  0.0362
   53MOL     S746911   3.959   5.648   0.231  0.0073  0.1808  0.0304
   53MOL     O846912   3.950   5.504   0.195 -0.3907  0.0322 -0.0309
   53MOL     O946913   3.960   5.745   0.119 -0.0922  0.3245 -0.5570
   53MOL    C1046914   3.813   5.683   0.331  0.4088  0.4492 -0.3273
   53MOL    C1146915   3.691   5.620   0.298  0.0345  0.6386 -0.5014
   53MOL    C1246916   3.582   5.643   0.382 -0.2285 -0.2751 -0.6201
   53MOL    C1346917   3.584   5.737   0.478  0.6845 -0.0772  0.3347
   53MOL    C1446918   3.703   5.813   0.506  1.4129  0.1218 -0.5954
   53MOL    C1546919   3.816   5.778   0.436 -0.7459 -0.3438  0.8055
   53MOL    O1646920   3.463   5.777   0.536 -0.1582  0.1004 -0.0931
   53MOL    C1746921   3.405   5.885   0.481  0.0693  0.1117 -0.0977
   53MOL    C1846922   3.337   5.866   0.356  0.7954 -0.2338  0.0057
   53MOL    C1946923   3.306   5.982   0.284  0.0036  0.0449  0.4065
   53MOL    C2046924   3.339   6.110   0.330  0.4690  0.7384  0.2207
   53MOL    C2146925   3.397   6.125   0.459 -0.6885  0.1870 -0.1466
   53MOL    C2246926   3.432   6.007   0.534  0.6229  0.3180 -0.5896
   53MOL    C2346927   3.327   6.232   0.244  0.4451  0.5712  0.3260
   53MOL    C2446928   3.229   6.229   0.140  0.3888  0.2287  0.3463
   53MOL    C2546929   3.219   6.338   0.043 -0.5959 -0.4002  0.1578
   53MOL    C2646930   3.313   6.444   0.054 -0.1420  0.2653 -0.8984
   53MOL    C2746931   3.398   6.455   0.168  0.4986 -0.2037 -0.1172
   53MOL    C2846932   3.397   6.352   0.265  0.5703  0.2026 -0.1567
   53MOL    O2946933   3.319   6.539   8.329 -0.5704  0.1001 -0.0780
   53MOL    H3046934   4.390   5.827   0.368  1.7974 -1.0742  2.1757
   53MOL    H3146935   4.195   5.795   0.202  0.8890 -3.6513 -0.3503
   53MOL    H3246936   3.996   5.549   0.499 -0.9609  0.5127 -0.1600
   53MOL    H3346937   4.209   5.556   0.645  1.0729  0.2409  0.0364
   53MOL    H3446938   3.688   5.542   0.224  1.3892  0.9785 -0.9158
   53MOL    H3546939   3.491   5.594   0.351  0.0937 -1.2930  0.0146
   53MOL    H3646940   3.695   5.903   0.565  0.3530 -0.4278  0.1119
   53MOL    H3746941   3.905   5.838   0.450 -1.1377  0.7858 -1.3786
   53MOL    H3846942   3.315   5.767   0.319 -0.9366  0.7356 -1.6178
   53MOL    H3946943   3.254   5.970   0.190 -2.5616  0.9936  1.6473
   53MOL    H4046944   3.426   6.218   0.504 -0.2104 -0.6107  1.2228
   53MOL    H4146945   3.481   6.014   0.630  0.1949  3.3518 -0.5388
   53MOL    H4246946   3.156   6.149   0.141  0.1164  0.4750  0.3992
   53MOL    H4346947   3.157   6.341   8.321 -0.3736  1.6929  0.0402
   53MOL    H4446948   3.466   6.537   0.188  0.6766  0.1780 -2.2356
   53MOL    H4546949   3.446   6.374   0.359  1.2476  2.4716 -1.0227
   53MOL    H4646950   4.391   5.711   0.578 -0.4798  0.8004  0.5075
   53MOL    C4746951   3.439   6.565   8.269  0.2811 -0.0142  0.2626
   53MOL    C4846952   3.500   6.687   8.311 -0.7015  0.1750 -0.6400
   53MOL    C4946953   3.629   6.727   8.259 -0.1280  0.5824  0.2565
   53MOL    C5046954   3.678   6.648   8.161  0.3761 -0.1648  0.3397
   53MOL    C5146955   3.612   6.529   8.117 -1.2475  0.5522  0.4772
   53MOL    C5246956   3.490   6.489   8.173 -0.2832 -0.3850  0.4270
   53MOL    S5346957   3.836   6.697   8.081  0.1855  0.0061  0.0003
   53MOL    O5446958   3.815   6.687   7.935 -0.0249  0.3731  0.1463
   53MOL    O5546959   3.940   6.608   8.137  0.1642 -0.4029  0.2577
   53MOL    C5646960   3.873   6.871   8.124 -0.3775 -0.1477  0.4509
   53MOL    C5746961   3.983   6.902   8.207  0.1684  0.9947 -0.0545
   53MOL    C5846962   4.009   7.026   8.254 -0.7695  0.4746 -0.0282
   53MOL    C5946963   3.924   7.128   8.212  0.2917  0.0948  0.4827
   53MOL    C6046964   3.813   7.105   8.129  0.1108 -0.0052  0.2648
   53MOL    C6146965   3.787   6.978   8.087  0.5206  0.0380 -0.1102
   53MOL    O6246966   3.956   7.254   8.245  0.2450 -0.2625  0.5959
   53MOL    C6346967   3.946   7.295   0.014  0.3438  0.0975 -0.5631
   53MOL    C6446968   3.813   7.298   0.070 -0.3946 -0.2601 -0.4394
   53MOL    C6546969   3.799   7.340   0.205  0.3812 -0.9325  0.3116
   53MOL    C6646970   3.914   7.389   0.280  0.5805 -0.1674  0.2081
   53MOL    C6746971   4.040   7.393   0.216  0.6190 -0.2186 -0.0703
   53MOL    C6846972   4.051   7.347   0.081  0.2378 -0.2807  0.5289
   53MOL    C6946973   3.891   7.449   0.413  0.5053 -0.1218 -0.0397
   53MOL    C7046974   3.825   7.373   0.512  0.4079 -0.6077  0.3365
   53MOL    C7146975   3.773   7.437   0.623  0.0716  0.5059 -0.2000
   53MOL    C7246976   3.789   7.574   0.654  0.0710 -0.4925  0.5916
   53MOL    C7346977   3.872   7.651   0.561  0.4819  0.0440 -0.1862
   53MOL    C7446978   3.923   7.585   0.446 -0.6830  0.1952 -0.1391
   53MOL    O7546979   3.743   7.613   0.781 -0.1237  0.0427 -0.3209
   53MOL    H7646980   3.454   6.743   0.025 -3.6079  1.0978 -2.8558
   53MOL    H7746981   3.682   6.813   8.298  2.6887 -0.4269 -1.2159
   53MOL    H7846982   3.654   6.481   8.029 -1.9591  1.0614 -0.1499
   53MOL    H7946983   3.443   6.399   8.135 -0.7173 -0.5384  1.3290
   53MOL    H8046984   4.052   6.823   8.230  0.1753  1.0000 -0.0562
   53MOL    H8146985   4.099   7.029   8.313 -1.4869 -1.2785  1.1904
   53MOL    H8246986   3.755   7.189   8.094  0.8820  0.5368  0.2781
   53MOL    H8346987   3.697   6.956   8.031  0.9796 -4.2268  0.6026
   53MOL    H8446988   3.729   7.263   0.013  1.0201 -0.6356 -2.3250
   53MOL    H8546989   3.702   7.339   0.253  1.0756  0.1305  1.8052
   53MOL    H8646990   4.129   7.433   0.262 -0.6987  2.5797  0.0774
   53MOL    H8746991   4.150   7.353   0.038  0.3016  0.9509  0.8253
   53MOL    H8846992   3.807   7.267   0.499  0.9524 -0.5868 -0.6099
   53MOL    H8946993   3.715   7.379   0.693  0.8505 -1.9603 -1.5557
   53MOL    H9046994   3.888   7.754   0.586 -2.6629  0.4439  0.4207
   53MOL    H9146995   3.964   7.650   0.370  1.6893  0.2656  1.1468
   53MOL    C9246996   3.611   7.664   0.794  0.4404 -0.1112 -0.2815
   53MOL    C9346997   3.549   7.745   0.693  0.1549  0.2743  0.4484
   53MOL    C9446998   3.421   7.794   0.707  0.7854 -0.3522  0.3692
   53MOL    C9546999   3.344   7.772   0.825  0.3662 -0.0434  0.6330
   53MOL    C9647000   3.409   7.705   0.932 -0.0411  0.0337 -0.0864
   53MOL    C9747001   3.537   7.647   0.916 -0.4340 -0.6893 -0.8137
   53MOL    S9847002   3.176   7.837   0.825  0.1634  0.3783 -0.0664
   53MOL    O9947003   3.126   7.890   0.695  0.0536  0.1336 -0.0567
   53MOL   O10047004   3.184   7.924   0.942  0.3628  0.0475 -0.1866
   53MOL   C10147005   3.057   7.709   0.869  0.1474  0.3792  0.3442
   53MOL   C10247006   3.097   7.584   0.922  0.0551  0.3091  0.4200
   53MOL   C10347007   2.993   7.500   0.968  0.2130 -0.6661 -0.0237
   53MOL   C10447008   2.855   7.535   0.952  0.3557 -0.9524  0.5382
   53MOL   C10547009   2.821   7.653   0.876 -0.1178  0.2254 -0.1761
   53MOL   C10647010   2.922   7.740   0.838  1.1142 -0.0770 -0.0343
   53MOL   O10747011   2.743   7.462   0.993  0.1895 -0.3739 -0.0762
   53MOL   C10847012   2.774   7.344   1.051 -0.4538 -0.9868  0.0269
   53MOL   C10947013   2.753   7.218   0.990 -0.5291  0.2308  0.3922
   53MOL   C11047014   2.772   7.104   1.067 -0.2939  0.1932  0.3024
   53MOL   C11147015   2.831   7.111   1.199  0.2716  0.9020 -0.4419
   53MOL   C11247016   2.849   7.238   1.253  0.2700 -1.1484  0.2847
   53MOL   C11347017   2.824   7.352   1.182  0.0579 -0.5177  0.3302
   53MOL   C11447018   2.857   6.988   1.277 -0.0605  0.1983 -0.0402
   53MOL   C11547019   2.789   6.866   1.249 -0.1986 -0.0955 -0.2810
   53MOL   C11647020   2.831   6.745   1.312  0.0873 -0.6058  0.2624
   53MOL   C11747021   2.940   6.740   1.399  0.4222  0.3381 -0.9206
   53MOL   C11847022   2.995   6.861   1.436  0.2578 -0.0108  0.1772
   53MOL   C11947023   2.960   6.979   1.375 -0.7868 -0.0673  0.3905
   53MOL   O12047024   2.988   6.622   1.450  0.2006 -0.5887 -0.3170
   53MOL   H12147025   3.596   7.759   0.597  0.9621  0.4618  0.8710
   53MOL   H12247026   3.382   7.829   0.612  2.7939  0.1780 -0.3012
   53MOL   H12347027   3.371   7.707   1.033  2.2091  0.1112  0.7907
   53MOL   H12447028   3.576   7.595   1.002 -1.9169  0.7912  0.7933
   53MOL   H12547029   3.202   7.563   0.940 -0.6385 -3.1910  0.7046
   53MOL   H12647030   3.017   7.411   1.026  0.2327  0.2203  1.3638
   53MOL   H12747031   2.721   7.682   0.848  0.0927  1.9786  0.8343
   53MOL   H12847032   2.898   7.833   0.788  2.2458 -0.1215 -0.7032
   53MOL   H12947033   2.707   7.197   0.895 -1.1916  0.5464  0.6356
   53MOL   H13047034   2.749   7.016   1.009  0.7727  0.7190 -0.9578
   53MOL   H13147035   2.873   7.253   1.357 -1.0289 -3.7810  1.0056
   53MOL   H13247036   2.838   7.449   1.229  0.0827 -0.9621  1.2482
   53MOL   H13347037   2.705   6.864   1.180  0.7696 -1.4219 -1.4431
   53MOL   H13447038   2.783   6.650   1.293 -0.8776 -0.3909  1.5366
   53MOL   H13547039   3.073   6.853   1.511  0.5537  0.0097 -0.1252
   53MOL   H13647040   3.007   7.073   1.399 -0.5314  0.2049 -1.1419
   53MOL   C13747041   2.954   6.594   1.575 -0.1633  0.4287  0.2841
   53MOL   C13847042   3.050   6.566   1.669  0.0103  0.5368 -0.2590
   53MOL   C13947043   3.017   6.544   1.805 -0.1660 -0.6670 -0.7404
   53MOL   C14047044   2.884   6.551   1.844 -0.3753  0.1469 -0.2482
   53MOL   C14147045   2.788   6.594   1.749  0.0403  0.2839 -0.0293
   53MOL   C14247046   2.819   6.600   1.613 -0.2947  0.0529 -0.2890
   53MOL   S14347047   2.849   6.538   2.010  0.2717  0.0856 -0.1909
   53MOL   O14447048   2.912   6.414   2.058 -0.3077 -0.2747 -0.1285
   53MOL   O14547049   2.701   6.549   2.019  0.6052  0.1740 -0.0997
   53MOL   C14647050   2.922   6.670   2.092 -0.0823 -0.2926  0.1448
   53MOL   C14747051   2.850   6.792   2.099 -0.6103 -0.0790  0.4755
   53MOL   C14847052   2.914   6.898   2.160  0.0158 -0.3077 -0.5191
   53MOL   C14947053   3.038   6.877   2.227 -0.3630 -0.0771  0.8551
   53MOL   C15047054   3.105   6.754   2.225 -0.1381 -0.0115  0.3899
   53MOL   C15147055   3.048   6.651   2.149  0.1641  0.7181 -0.0889
   53MOL   O15247056   3.099   6.985   2.290  0.3836 -0.0703 -0.0912
   53MOL   C15347057   3.157   7.085   2.216 -0.2445  0.3734 -0.6642
   53MOL   C15447058   3.222   7.055   2.095 -0.4464 -0.2743 -0.2193
   53MOL   C15547059   3.290   7.159   2.027  0.1054 -0.0873 -0.0404
   53MOL   C15647060   3.293   7.295   2.081  0.9431 -0.4753 -0.1598
   53MOL   C15747061   3.229   7.317   2.203  0.1210 -0.8807 -0.2515
   53MOL   C15847062   3.161   7.217   2.265 -0.4968 -0.0091  0.1885
   53MOL   C15947063   3.357   7.400   2.007 -0.3100 -0.1499 -0.0683
   53MOL   C16047064   3.292   7.515   1.964  0.4170 -0.0874  0.0648
   53MOL   C16147065   3.363   7.613   1.892  0.7604  0.7328 -0.6221
   53MOL   C16247066   3.498   7.601   1.859  0.0101 -0.6750  0.7119
   53MOL   C16347067   3.566   7.484   1.902  0.2048 -0.3825  0.7456
   53MOL   C16447068   3.492   7.382   1.969  0.3392  0.1815 -0.3698
   53MOL   O16547069   3.567   7.697   1.792 -0.4978  0.1038 -0.3525
   53MOL   H16647070   3.155   6.560   1.642 -0.7923  0.2176 -3.5414
   53MOL   H16747071   3.097   6.532   1.876  0.6752  1.7669 -1.2168
   53MOL   H16847072   2.682   6.603   1.770 -0.2601  0.2492 -1.4576
   53MOL   H16947073   2.742   6.622   1.540  1.4795  2.2878 -1.5600
   53MOL   H17047074   2.756   6.801   2.046  1.0138 -0.8982 -2.7031
   53MOL   H17147075   2.873   6.998   2.161  1.3719  0.2650  1.9157
   53MOL   H17247076   3.197   6.736   2.279  0.1574 -0.3392 -0.2179
   53MOL   H17347077   3.087   6.550   2.155 -1.8616  0.0323  2.9939
   53MOL   H17447078   3.222   6.952   2.063 -2.6791 -1.2155  2.5535
   53MOL   H17547079   3.343   7.141   1.935 -2.1370  1.6877 -1.7573
   53MOL   H17647080   3.227   7.411   2.257 -2.3409 -0.9586 -0.1536
   53MOL   H17747081   3.108   7.222   2.359 -1.4861  1.0455 -0.4148
   53MOL   H17847082   3.185   7.523   1.978  0.2143  0.3290 -1.6710
   53MOL   H17947083   3.309   7.700   1.858  1.0755  1.7059  1.3245
   53MOL   H18047084   3.671   7.482   1.875 -0.8178 -1.0474 -3.5059
   53MOL   H18147085   3.545   7.291   1.993 -1.3431 -0.0530  2.6791
   53MOL   C18247086   3.658   7.775   1.869  0.4126 -0.5552  0.4238
   53MOL   C18347087   3.653   7.771   2.011  0.7322  0.1084  0.1269
   53MOL   C18447088   3.737   7.851   2.088  0.5923 -0.4382 -0.5160
   53MOL   C18547089   3.825   7.939   2.024 -0.0499 -0.0082  0.6923
   53MOL   C18647090   3.831   7.946   1.883 -0.1327 -0.2701  0.6946
   53MOL   C18747091   3.746   7.865   1.808  0.2196  0.0100  0.0540
   53MOL   S18847092   3.924   8.053   2.125 -0.1974  0.4031  0.0744
   53MOL   O18947093   3.977   8.158   2.036  0.0460 -0.4903  0.3345
   53MOL   O19047094   4.009   7.973   2.213  0.3023  0.1207 -0.0438
   53MOL   C19147095   3.809   8.139   2.240 -0.1262 -0.2087 -0.5587
   53MOL   C19247096   3.693   8.203   2.197  0.2678 -0.3441 -0.4729
   53MOL   C19347097   3.620   8.279   2.290  0.5576 -0.2204 -0.3513
   53MOL   C19447098   3.658   8.300   2.422 -0.2164 -0.2928  0.1745
   53MOL   C19547099   3.776   8.240   2.458  0.4409  0.7219  0.0089
   53MOL   C19647100   3.854   8.159   2.372  0.5370 -0.0699  0.4318
   53MOL   O19747101   3.586   0.011   2.510  0.7166 -0.1336 -0.7696
   53MOL   C19847102   3.491   8.312   2.585 -1.4205  0.4559 -0.1457
   53MOL   C19947103   3.412   8.212   2.537  0.2703  0.3851  0.1654
   53MOL   C20047104   3.311   8.155   2.613  0.0991  0.8879 -0.1929
   53MOL   C20147105   3.294   8.179   2.750  0.1236 -0.8681 -0.3533
   53MOL   C20247106   3.377   8.283   2.805 -0.2152 -0.1010 -0.2899
   53MOL   C20347107   3.478   8.344   2.724 -0.2037 -0.4513 -0.7583
   53MOL   C20447108   3.202   8.099   2.827 -0.3042 -0.3105  0.4128
   53MOL   C20547109   3.227   7.961   2.813 -0.0085 -0.3338 -0.2233
   53MOL   C20647110   3.162   7.869   2.897  0.1811 -0.6657  0.3895
   53MOL   C20747111   3.060   7.918   2.985  0.0145  0.2783  0.5220
   53MOL   C20847112   3.027   8.054   2.985 -0.4357  0.1803 -0.4571
   53MOL   C20947113   3.103   8.148   2.912  1.1951 -0.2382  0.0103
   53MOL   O21047114   2.988   7.822   3.056  0.0604 -0.1687  0.0215
   53MOL   H21147115   3.579   7.705   2.055 -1.6140  1.2875 -1.9660
   53MOL   H21247116   3.741   7.853   2.196 -0.3741 -1.3758 -0.4528
   53MOL   H21347117   3.905   8.008   1.835 -2.0147  1.8263  0.3869
   53MOL   H21447118   3.750   7.871   1.700  0.7502  0.8872  0.1169
   53MOL   H21547119   3.658   8.193   2.095 -1.9553  0.6964  0.1445
   53MOL   H21647120   3.528   8.327   2.262 -0.4288 -0.2184  2.7197
   53MOL   H21747121   3.819   8.254   2.557  3.1184  0.7867 -1.1187
   53MOL   H21847122   3.951   8.122   2.401  0.8703  0.5582  0.1111
   53MOL   H21947123   3.425   8.176   2.436  0.2969 -0.8082  0.5880
   53MOL   H22047124   3.261   8.080   2.554 -0.0513  1.3911 -0.7003
   53MOL   H22147125   3.367   8.309   2.909  3.1289 -0.9843  0.2904
   53MOL   H22247126   3.532   0.062   2.765  0.1136  0.1785 -2.4292
   53MOL   H22347127   3.300   7.921   2.745  0.0016 -2.9211  1.2164
   53MOL   H22447128   3.195   7.767   2.884  0.6669 -0.5015  0.2955
   53MOL   H22547129   2.946   8.085   3.050  0.8618 -1.7197  2.1529
   53MOL   H22647130   3.078   8.253   2.919 -1.3589 -0.7770 -0.7832
   53MOL   C22747131   3.046   7.746   3.156  0.4331 -0.0643 -0.0685
   53MOL   C22847132   3.117   7.816   3.260  0.4056 -0.2042 -0.2006
   53MOL   C22947133   3.184   7.742   3.356  0.6026 -0.4652  0.2089
   53MOL   C23047134   3.159   7.598   3.361 -0.1047 -0.0762  0.4167
   53MOL   C23147135   3.084   7.534   3.262  0.2994  0.2239  0.1041
   53MOL   C23247136   3.023   7.610   3.157 -0.0774 -0.2102  0.9079
   53MOL   S23347137   3.262   7.499   3.469  0.1692 -0.0979  0.0931
   53MOL   O23447138   3.386   7.570   3.497 -0.2225  0.1365  0.4181
   53MOL   O23547139   3.267   7.364   3.408 -0.4747  0.1185 -0.2783
   53MOL   C23647140   3.182   7.483   3.622  0.5153  0.3787 -0.5329
   53MOL   C23747141   3.118   7.357   3.654 -0.6120 -0.6776  0.7743
   53MOL   C23847142   3.074   7.334   3.782 -0.0334 -0.2506  0.3605
   53MOL   C23947143   3.071   7.433   3.882  0.1687  0.0593 -0.1162
   53MOL   C24047144   3.130   7.558   3.852 -0.8795 -0.2367  0.8199
   53MOL   C24147145   3.186   7.581   3.725 -0.4079 -0.3992  0.0752
   53MOL   O24247146   3.026   7.390   4.004  0.0667  0.4179  0.1822
   53MOL   C24347147   2.901   7.420   4.044 -0.8666 -0.2519  0.1690
   53MOL   C24447148   2.882   7.526   4.131  0.4455 -0.7664 -0.3327
   53MOL   C24547149   2.756   7.554   4.182  0.6821 -0.1636 -0.3094
   53MOL   C24647150   2.647   7.475   4.150 -0.6757 -0.6708 -0.6205
   53MOL   C24747151   2.670   7.373   4.053  0.3493 -0.2472  0.4860
   53MOL   C24847152   2.793   7.340   4.003 -0.3226 -0.1581 -0.1639
   53MOL   C24947153   2.516   7.504   4.213  0.3700  0.8275  0.3936
   53MOL   C25047154   2.393   7.472   4.146  0.0866  0.3961 -0.3580
   53MOL   C25147155   2.267   7.496   4.208 -0.6787 -0.0127  0.8576
   53MOL   C25247156   2.267   7.531   4.345  0.7265  0.4012  0.5633
   53MOL   C25347157   2.388   7.567   4.405 -0.1676  0.8632  0.4354
   53MOL   C25447158   2.509   7.550   4.343  0.1858  1.1420 -0.4352
   53MOL   O25547159   2.150   7.551   4.412 -0.0014 -0.1491 -0.2669
   53MOL   H25647160   3.118   7.924   3.266  0.1730  0.0571 -3.6864
   53MOL   H25747161   3.247   7.778   3.436  1.3054 -1.6779  0.2296
   53MOL   H25847162   3.076   7.426   3.265 -0.2538  0.2760  3.8537
   53MOL   H25947163   2.962   7.567   3.079  1.4911  1.3655 -1.2744
   53MOL   H26047164   3.124   7.268   3.592 -1.6748  0.2103 -0.6509
   53MOL   H26147165   3.032   7.239   3.809  1.4735 -0.8021  0.8563
   53MOL   H26247166   3.134   7.638   3.925 -0.5052  0.0871  0.4463
   53MOL   H26347167   3.236   7.676   3.717  0.9006 -1.0624  0.1486
   53MOL   H26447168   2.968   7.579   4.171 -1.2903 -0.2075  2.8002
   53MOL   H26547169   2.760   7.623   4.265 -1.0009 -1.6240  1.0247
   53MOL   H26647170   2.582   7.314   4.031  0.2229 -0.0158  0.3755
   53MOL   H26747171   2.811   7.257   3.937  1.9093 -0.7199  1.0925
   53MOL   H26847172   2.397   7.449   4.040 -0.5760  0.1075 -0.3244
   53MOL   H26947173   2.173   7.468   4.161 -0.4359  1.7247 -0.7056
   53MOL   H27047174   2.398   7.616   4.501  0.0951  0.5098  0.5906
   53MOL   H27147175   2.600   7.567   4.400  0.7793 -2.2738 -0.2616
   53MOL   C27247176   2.081   7.438   4.452  0.6654 -0.1012  0.1315
   53MOL   C27347177   2.100   7.401   4.585  0.2671  0.5050  0.2408
   53MOL   C27447178   2.034   7.283   4.626 -0.6894  0.4167  0.2671
   53MOL   C27547179   1.950   7.211   4.538 -0.4329  0.7328  0.2815
   53MOL   C27647180   1.927   7.256   4.406  0.1352  0.0382  0.1008
   53MOL   C27747181   1.982   7.380   4.368 -0.6439  0.9017  0.0823
   53MOL   S27847182   1.888   7.045   4.581  0.3801 -0.2938  0.0395
   53MOL   O27947183   1.791   7.052   4.689  0.3221 -0.1524  0.6876
   53MOL   O28047184   2.001   6.950   4.587 -0.0973  0.0403  0.1629
   53MOL   C28147185   1.805   6.982   4.434 -0.2775 -0.1089 -0.3268
   53MOL   C28247186   1.876   6.912   4.332 -0.1559  0.4155  0.0538
   53MOL   C28347187   1.810   6.867   4.215 -0.3056 -0.2546  0.0621
   53MOL   C28447188   1.671   6.895   4.203  0.2239  0.1482 -0.6205
   53MOL   C28547189   1.603   6.971   4.298  0.3958  0.1613  0.0597
   53MOL   C28647190   1.667   7.008   4.415  0.1204 -0.2449  0.2128
   53MOL   O28747191   1.604   6.855   4.089 -0.1468 -0.0624  0.5898
   53MOL   C28847192   1.619   6.920   3.967 -0.3087 -0.2705 -0.1518
   53MOL   C28947193   1.633   6.849   3.850 -0.0030  0.3707 -0.4574
   53MOL   C29047194   1.622   6.905   3.724  0.2219 -0.5246 -0.1871
   53MOL   C29147195   1.601   7.044   3.715 -0.4772 -0.2286 -0.2209
   53MOL   C29247196   1.613   7.122   3.832  0.1020  0.3630 -0.7179
   53MOL   C29347197   1.614   7.062   3.963  0.4561  0.0479  0.1887
   53MOL   C29447198   1.576   7.113   3.584  0.3841 -0.2295 -0.6536
   53MOL   C29547199   1.650   7.069   3.472 -0.9249  0.0701  0.4989
   53MOL   C29647200   1.624   7.126   3.352  0.9966  0.7044 -0.2575
   53MOL   C29747201   1.527   7.223   3.334  0.3056  0.3777  0.1022
   53MOL   C29847202   1.456   7.266   3.448 -0.2910 -0.3609  0.1230
   53MOL   C29947203   1.476   7.212   3.572 -0.0795 -0.4340  0.2137
   53MOL   O30047204   1.495   7.287   3.216 -0.0945 -0.2859 -0.1548
   53MOL   H30147205   2.169   7.457   4.647  0.4569  0.4974  0.0371
   53MOL   H30247206   2.043   7.245   4.726  1.0923  0.2497  0.0481
   53MOL   H30347207   1.863   7.193   4.345  0.7024 -0.3090 -0.1405
   53MOL   H30447208   1.955   7.415   4.269  3.1328  1.4602 -0.8301
   53MOL   H30547209   1.981   6.889   4.339  0.4823  3.5862  1.6829
   53MOL   H30647210   1.863   6.818   4.135  0.7734  3.4708 -1.6047
   53MOL   H30747211   1.501   7.000   4.278 -0.8371 -1.0500  4.1243
   53MOL   H30847212   1.615   7.076   4.481  2.7248  1.2083  0.8573
   53MOL   H30947213   1.656   6.746   3.871 -2.5633 -0.4234 -1.3468
   53MOL   H31047214   1.625   6.844   3.635 -1.8343 -1.7790  0.5674
   53MOL   H31147215   1.620   7.229   3.825  1.7956  0.2609 -0.8202
   53MOL   H31247216   1.596   7.129   4.045 -0.0586  1.1733 -0.8263
   53MOL   H31347217   1.720   6.987   3.473 -0.7718  0.0769 -2.8503
   53MOL   H31447218   1.676   7.090   3.264  2.1237  0.1335  0.6229
   53MOL   H31547219   1.390   7.351   3.443 -1.1838 -1.0092  0.7443
   53MOL   H31647220   1.421   7.238   3.662 -0.4805 -3.4427  0.9069
   53MOL   C31747221   1.558   7.262   3.095 -0.2625  0.4300  0.3923
   53MOL   C31847222   1.547   7.142   3.017  0.4262 -0.0578  0.6127
   53MOL   C31947223   1.604   7.130   2.891  1.3140  0.3798 -0.5478
   53MOL   C32047224   1.691   7.233   2.846 -0.0385 -0.1630  0.6868
   53MOL   C32147225   1.714   7.348   2.922 -0.6638  0.5342  0.4422
   53MOL   C32247226   1.647   7.362   3.046  0.5317 -0.2211  0.3015
   53MOL   S32347227   1.777   7.225   2.678 -0.1159 -0.1482 -0.2706
   53MOL   O32447228   1.749   7.344   2.601 -0.4012  0.0376  0.2198
   53MOL   O32547229   1.745   7.093   2.621 -0.0656  0.5881  0.2296
   53MOL   C32647230   1.955   7.220   2.713 -0.6775  0.8870  0.0174
   53MOL   C32747231   2.042   7.277   2.621  0.3920 -0.5147 -0.0884
   53MOL   C32847232   2.180   7.280   2.655  0.6567  0.1698 -0.2580
   53MOL   C32947233   2.224   7.226   2.776  0.1460 -0.4277 -0.0163
   53MOL   C33047234   2.131   7.160   2.862 -0.6795  0.5826 -0.1805
   53MOL   C33147235   1.992   7.161   2.833 -0.3004 -0.4705 -1.0238
   53MOL   O33247236   2.357   7.235   2.817 -0.4809 -0.0585  0.9378
   53MOL   C33347237   2.413   7.352   2.855 -0.0505 -0.7791 -0.4405
   53MOL   C33447238   2.374   7.404   2.980 -0.9526 -0.2842  0.0828
   53MOL   C33547239   2.412   7.535   3.019  0.6206  0.2588 -0.0446
   53MOL   C33647240   2.498   7.606   2.929  0.1833 -0.4420  0.1284
   53MOL   C33747241   2.549   7.541   2.813 -0.4672 -0.6208 -0.5030
   53MOL   C33847242   2.499   7.420   2.769  0.2267  0.0234 -0.0081
   53MOL   C33947243   2.527   7.748   2.961  1.1270 -0.1559 -0.0795
   53MOL   C34047244   2.658   7.798   2.961 -0.2170 -0.7805 -0.0739
   53MOL   C34147245   2.674   7.937   2.980 -0.3738 -0.5603  0.4939
   53MOL   C34247246   2.568   8.018   3.023 -0.1516  0.2544 -0.1860
   53MOL   C34347247   2.436   7.969   3.028  0.1730  0.4534 -0.6999
   53MOL   C34447248   2.418   7.828   2.998  0.3568  0.5133 -0.1695
   53MOL   O34547249   2.589   8.148   3.064  0.0413 -0.3556  0.3170
   53MOL   H34647250   1.487   7.063   3.059  0.6737 -0.6432 -0.1241
   53MOL   H34747251   1.579   7.043   2.832  2.0887  1.3200 -2.3099
   53MOL   H34847252   1.778   7.428   2.888  1.2952  0.1705  3.1441
   53MOL   H34947253   1.666   7.457   3.094  2.5251  0.5742 -1.9645
   53MOL   H35047254   2.011   7.325   2.529 -1.8250 -0.2033  0.7944
   53MOL   H35147255   2.248   7.329   2.586  0.4480  0.6955 -0.0962
   53MOL   H35247256   2.173   7.097   2.939  3.3887  0.8642 -2.0508
   53MOL   H35347257   1.918   7.123   2.901 -1.1320  0.3906 -1.4294
   53MOL   H35447258   2.306   7.345   3.040 -1.4626  1.4123  1.2369
   53MOL   H35547259   2.371   7.576   3.110 -1.8786  0.0911 -1.0600
   53MOL   H35647260   2.608   7.605   2.749 -0.1649  0.1119  0.4892
   53MOL   H35747261   2.530   7.377   2.675  1.2385 -1.1541  0.8544
   53MOL   H35847262   2.743   7.737   2.934 -1.4667 -1.5597 -2.4415
   53MOL   H35947263   2.773   7.977   2.995 -0.3353 -0.4884  0.0284
   53MOL   H36047264   2.348   8.029   3.045 -1.4342 -1.8292 -0.8276
   53MOL   H36147265   2.319   7.784   2.995  1.5580 -2.3505  0.5540
   53MOL   C36247266   2.700   8.170   3.143  0.9768 -0.1256  0.7996
   53MOL   C36347267   2.776   8.283   3.104  0.9192  0.0175  0.3510
   53MOL   C36447268   2.892   8.316   3.169  0.1837 -0.1192  0.9238
   53MOL   C36547269   2.930   8.248   3.281 -0.5320 -0.9505  0.1612
   53MOL   C36647270   2.851   8.134   3.329  0.1278 -0.7029 -0.7945
   53MOL   C36747271   2.734   8.096   3.260 -0.5990  0.0190  0.1809
   53MOL   S36847272   3.099   8.270   3.345  0.2468 -0.5921 -0.2698
   53MOL   O36947273   3.168   8.351   3.238  0.2427 -0.6484 -0.0557
   53MOL   O37047274   3.152   8.145   3.392  0.1736 -0.0448  0.0667
   53MOL   C37147275   3.083   0.001   3.502  0.6892  0.5281 -0.0571
   53MOL   C37247276   3.186   8.347   3.593 -0.2412 -0.4554  0.1294
   53MOL   C37347277   3.182   0.061   3.713 -0.1383 -0.4157  0.7047
   53MOL   C37447278   3.082   0.158   3.733 -0.0059 -0.1573 -0.2803
   53MOL   C37547279   2.978   0.173   3.635  0.0138  0.3999  0.3855
   53MOL   C37647280   2.971   0.091   3.523 -0.7543  0.0724 -0.4641
   53MOL   O37747281   3.087   0.231   3.852 -0.3241  0.0018  0.2528
   53MOL   C37847282   3.081   0.365   3.833 -0.0730  0.1944 -0.2590
   53MOL   C37947283   2.969   0.432   3.885  0.2099 -0.4273 -0.0719
   53MOL   C38047284   2.957   0.575   3.874 -0.3784  0.1439  0.5285
   53MOL   C38147285   3.058   0.646   3.801  0.6857  0.5545 -0.0035
   53MOL   C38247286   3.168   0.573   3.738 -0.0213  0.7461  0.3321
   53MOL   C38347287   3.183   0.432   3.755  0.3316 -0.0787  0.2203
   53MOL   C38447288   3.044   0.793   3.792 -0.2419  0.8385 -1.1122
   53MOL   C38547289   3.028   0.853   3.664  0.2109 -0.5262  0.6422
   53MOL   C38647290   2.998   0.995   3.655  0.4258 -0.3658  0.2264
   53MOL   C38747291   2.985   1.076   3.768 -0.7764 -0.0371 -0.8672
   53MOL   C38847292   3.001   1.018   3.892 -0.4679  0.1200 -0.0020
   53MOL   C38947293   3.025   0.879   3.906 -0.7334  0.5126  0.1476
   53MOL   O39047294   2.939   1.207   3.766 -0.6900 -0.0760 -0.1599
   53MOL   H39147295   2.739   8.340   3.021  0.1035 -0.1315  0.6059
   53MOL   H39247296   2.942   0.041   3.138  1.4528 -0.5186  1.7520
   53MOL   H39347297   2.880   8.066   3.407 -0.3276  0.0949  0.0902
   53MOL   H39447298   2.686   8.007   3.298 -0.8777  0.4378  0.8288
   53MOL   H39547299   3.273   8.289   3.569  0.1458 -0.0510  0.5421
   53MOL   H39647300   3.261   0.077   3.784  1.0221  2.3031 -1.1281
   53MOL   H39747301   2.900   0.247   3.647  1.0093  1.4801  0.3355
   53MOL   H39847302   2.893   0.121   3.455 -0.6878  0.5781 -0.3216
   53MOL   H39947303   2.898   0.383   3.949 -1.4487  1.7004 -0.2325
   53MOL   H40047304   2.882   0.637   3.920  0.7849  1.9960  0.0047
   53MOL   H40147305   3.242   0.625   3.679  0.9923 -1.6289 -0.5105
   53MOL   H40247306   3.262   0.388   3.698 -0.7693  0.3330 -1.6578
   53MOL   H40347307   3.013   0.789   3.578  0.6038 -0.7826  0.7651
   53MOL   H40447308   2.975   1.032   3.556  0.0626 -1.6583 -0.1806
   53MOL   H40547309   2.981   1.076   3.981 -0.6195  0.8619 -0.5105
   53MOL   H40647310   3.019   0.834   4.004  0.3820 -1.8013 -0.7933
   53MOL   C40747311   2.994   1.298   3.685 -0.0830  0.2506  0.6599
   53MOL   C40847312   3.126   1.285   3.646  0.2773 -0.3858  0.3467
   53MOL   C40947313   3.190   1.375   3.562 -0.2982 -0.4379 -0.0374
   53MOL   C41047314   3.125   1.493   3.521  0.2436  0.0339  0.3033
   53MOL   C41147315   2.990   1.506   3.552  0.3423 -0.6091 -0.1737
   53MOL   C41247316   2.925   1.412   3.638 -0.6317  0.0644 -0.1915
   53MOL   S41347317   3.208   1.606   3.409 -0.4291 -0.3598 -0.0737
   53MOL   O41447318   3.329   1.663   3.467 -0.1697 -0.1274 -0.5892
   53MOL   O41547319   3.104   1.702   3.368  0.7541  0.3957 -0.7000
   53MOL   C41647320   3.263   1.497   3.271 -0.4745 -0.1875  0.1436
   53MOL   C41747321   3.394   1.500   3.225  0.1224 -0.5115  0.0797
   53MOL   C41847322   3.441   1.402   3.137 -0.0293 -0.9739 -1.0130
   53MOL   C41947323   3.360   1.296   3.093  0.5283  0.4331  0.9142
   53MOL   C42047324   3.225   1.301   3.127  0.8594  0.3859 -0.2657
   53MOL   C42147325   3.176   1.401   3.219  0.5447 -0.1010  0.1173
   53MOL   O42247326   3.389   1.205   2.998 -0.0950  0.0502 -0.5648
   53MOL   C42347327   3.425   1.243   2.878  0.2755 -0.0883 -0.2583
   53MOL   C42447328   3.335   1.290   2.788 -0.7270  0.0793 -0.4296
   53MOL   C42547329   3.377   1.326   2.661 -0.3863  0.2718  0.3959
   53MOL   C42647330   3.511   1.303   2.615 -0.6055  0.7674 -0.7758
   53MOL   C42747331   3.602   1.261   2.708 -0.4935 -0.3721 -0.8795
   53MOL   C42847332   3.561   1.228   2.842 -0.3089  0.2253 -0.0645
   53MOL   C42947333   3.534   1.318   2.469  0.4575 -0.2862 -0.0751
   53MOL   C43047334   3.643   1.399   2.425  0.1157 -0.1308  0.0622
   53MOL   C43147335   3.673   1.408   2.284  0.1424  0.2220 -0.3132
   53MOL   C43247336   3.592   1.337   2.194  0.5274 -0.1791  0.0518
   53MOL   C43347337   3.483   1.260   2.237 -0.1627 -0.0048  0.3890
   53MOL   C43447338   3.447   1.254   2.374 -0.7775 -0.1415  0.1496
   53MOL   O43547339   3.622   1.352   2.069 -0.0817  0.0090  0.3339
   53MOL   H43647340   3.187   1.201   3.677  2.3684  0.6707 -0.7640
   53MOL   H43747341   3.286   1.347   3.521 -0.0098 -1.0804  1.0385
   53MOL   H43847342   2.930   1.590   3.518 -0.0508 -1.3175 -1.2879
   53MOL   H43947343   2.824   1.437   3.665 -1.3896 -0.8798 -2.1145
   53MOL   H44047344   3.468   1.562   3.275  0.2019 -2.4108  2.4220
   53MOL   H44147345   3.545   1.413   3.110  0.5065 -2.6775  0.2632
   53MOL   H44247346   3.171   1.221   3.078  0.4844  1.0852 -0.9983
   53MOL   H44347347   3.077   1.399   3.263  0.6361  1.2736  0.3984
   53MOL   H44447348   3.235   1.301   2.827 -0.3618 -0.6798  0.7577
   53MOL   H44547349   3.297   1.359   2.597 -1.0040  0.3439  1.1948
   53MOL   H44647350   3.706   1.252   2.679  0.5878 -0.0037  2.5726
   53MOL   H44747351   3.631   1.192   2.915 -2.3222 -0.0508  1.7841
   53MOL   H44847352   3.700   1.459   2.494  1.9538  0.8566 -2.2572
   53MOL   H44947353   3.759   1.465   2.251  0.4655  0.6026  1.1374
   53MOL   H45047354   3.425   1.196   2.173  0.2870  0.2004 -0.2283
   53MOL   H45147355   3.361   1.197   2.406 -1.4490  1.4567  1.2616
   53MOL   C45247356   3.556   1.447   1.991 -0.6206  0.2858 -0.5705
   53MOL   C45347357   3.481   1.557   2.045 -0.3293  0.0776 -0.1048
   53MOL   C45447358   3.420   1.645   1.960  1.0269 -0.0877  0.3853
   53MOL   C45547359   3.430   1.635   1.817 -0.5895  0.3048 -0.2052
   53MOL   C45647360   3.508   1.528   1.763  0.0265  0.5517 -0.0847
   53MOL   C45747361   3.569   1.436   1.850  0.9472  0.7508  0.6021
   53MOL   S45847362   3.340   1.745   1.692 -0.0093  0.2340  0.3490
   53MOL   O45947363   3.414   1.738   1.563 -0.2293 -0.2937  0.2766
   53MOL   O46047364   3.333   1.879   1.760 -0.1485 -0.9148  0.0754
   53MOL   C46147365   3.173   1.677   1.674  0.0474  0.6674 -0.1309
   53MOL   C46247366   3.057   1.754   1.689 -0.0405  0.1831  1.0571
   53MOL   C46347367   2.933   1.683   1.684  0.0578  0.8274  0.6137
   53MOL   C46447368   2.924   1.542   1.657 -0.2774 -0.2336 -0.0077
   53MOL   C46547369   3.045   1.471   1.640 -0.2571  0.3399  0.2075
   53MOL   C46647370   3.167   1.537   1.648 -0.5127 -0.5935 -0.9076
   53MOL   O46747371   2.802   1.476   1.648 -0.3824  0.2422  0.0728
   53MOL   C46847372   2.796   1.339   1.646 -0.2446  0.3577 -0.3138
   53MOL   C46947373   2.795   1.265   1.525  0.0404 -0.3316  0.3594
   53MOL   C47047374   2.787   1.127   1.529  0.0100  0.2512 -0.5396
   53MOL   C47147375   2.779   1.048   1.647  0.6870 -0.3118  0.1781
   53MOL   C47247376   2.769   1.117   1.770  0.4239  0.0714  0.2592
   53MOL   C47347377   2.782   1.258   1.767  0.4225  0.1305  0.6898
   53MOL   C47447378   2.770   0.903   1.637  0.2054 -0.0270 -0.1107
   53MOL   C47547379   2.700   0.842   1.530 -0.0224 -0.1545 -0.4260
   53MOL   C47647380   2.685   0.703   1.527 -0.0656 -0.5869  0.3411
   53MOL   C47747381   2.751   0.626   1.628 -0.0221 -0.0627  0.5948
   53MOL   C47847382   2.825   0.681   1.731  0.2505  0.1048  0.4596
   53MOL   C47947383   2.833   0.822   1.739  0.5443  0.3871  0.2940
   53MOL   O48047384   2.741   0.489   1.619  0.0246 -0.0895 -0.0864
   53MOL   H48147385   3.457   1.575   2.149 -2.4616  0.9340 -0.7258
   53MOL   H48247386   3.371   1.733   1.999  0.9571  0.7147 -1.4761
   53MOL   H48347387   3.496   1.509   1.657 -0.2437  1.0194 -0.1365
   53MOL   H48447388   3.615   1.347   1.807 -1.7877 -1.2927  1.7323
   53MOL   H48547389   3.054   1.861   1.697 -1.3794  0.4894 -2.6111
   53MOL   H48647390   2.845   1.744   1.694 -0.3757  0.8051 -2.4670
   53MOL   H48747391   3.049   1.364   1.625  1.3768  0.4415 -0.2158
   53MOL   H48847392   3.254   1.475   1.632  0.6895  1.0397 -0.7285
   53MOL   H48947393   2.811   1.316   1.431  0.2829 -0.4309  0.3474
   53MOL   H49047394   2.798   1.075   1.434  0.7684 -1.2828  0.3671
   53MOL   H49147395   2.760   1.062   1.862 -1.8576  1.3749  0.8525
   53MOL   H49247396   2.759   1.310   1.859 -4.3405 -2.4233  1.1334
   53MOL   H49347397   2.636   0.901   1.467  0.9248  1.6281  0.2677
   53MOL   H49447398   2.634   0.651   1.448  1.1860 -2.2671  0.6119
   53MOL   H49547399   2.886   0.619   1.795  2.1583  0.1340 -1.2638
   53MOL   H49647400   2.880   0.865   1.826  1.8329 -1.7172  0.6471
   53MOL   C49747401   2.635   0.429   1.683  0.1044 -0.8090  0.2287
   53MOL   C49847402   2.651   0.375   1.809 -0.1280 -0.5622 -0.8781
   53MOL   C49947403   2.542   0.323   1.876  0.4305 -0.1479  0.2752
   53MOL   C50047404   2.416   0.319   1.808 -0.5653 -0.0638 -0.2503
   53MOL   C50147405   2.404   0.362   1.678 -0.5645 -1.1265  0.4236
   53MOL   C50247406   2.512   0.423   1.613 -0.2920 -0.7978 -0.4034
   53MOL   S50347407   2.267   0.284   1.905 -0.0499 -0.3743  0.0977
   53MOL   O50447408   2.305   0.223   2.034 -0.5012  0.3549  0.5174
   53MOL   O50547409   2.186   0.208   1.807 -0.4641 -0.3931 -0.2199
   53MOL   C50647410   2.188   0.436   1.941  0.3638  0.4580  0.6850
   53MOL   C50747411   2.258   0.559   1.930 -0.3393  0.5002 -0.2844
   53MOL   C50847412   2.187   0.674   1.951 -0.3056 -0.3714  0.2547
   53MOL   C50947413   2.049   0.675   1.990 -0.1921 -0.9189 -0.4471
   53MOL   C51047414   1.982   0.549   2.008 -0.1590  0.4564  0.7669
   53MOL   C51147415   2.055   0.429   1.979 -0.4356 -0.6755  0.1669
   53MOL   O51247416   1.981   0.790   2.005 -0.0962  0.3767  0.9259
   53MOL   C51347417   1.965   0.833   2.131 -0.2730  0.1487 -0.4215
   53MOL   C51447418   1.841   0.848   2.191  0.3433 -0.3053  0.1522
   53MOL   C51547419   1.832   0.886   2.324  0.0963 -0.1788  0.1483
   53MOL   C51647420   1.951   0.902   2.404 -0.4649  0.8701  0.3579
   53MOL   C51747421   2.076   0.890   2.344 -0.7935 -0.0630 -0.2545
   53MOL   C51847422   2.088   0.859   2.209  0.2081  0.3224  0.7211
   53MOL   C51947423   1.932   0.930   2.552 -0.4744  0.8097  0.4446
   53MOL   C52047424   1.927   0.819   2.641 -0.6037 -0.2605  0.0701
   53MOL   C52147425   1.917   0.839   2.778 -0.3276  0.6213 -0.0892
   53MOL   C52247426   1.902   0.969   2.833 -0.2743  0.1670 -0.4838
   53MOL   C52347427   1.912   1.083   2.750 -0.4863 -0.7940 -0.4208
   53MOL   C52447428   1.918   1.060   2.613  0.2653 -0.0181  0.1246
   53MOL   O52547429   1.889   0.985   2.968  0.8433  0.1610 -0.2488
   53MOL   H52647430   2.744   0.394   1.860 -0.8566  1.6970 -0.3619
   53MOL   H52747431   2.554   0.279   1.974  0.7573 -1.0002 -0.1379
   53MOL   H52847432   2.307   0.357   1.631 -0.8767  0.7587  0.8440
   53MOL   H52947433   2.496   0.459   1.513 -0.4288  1.8514  0.5304
   53MOL   H53047434   2.357   0.564   1.888 -0.0402  0.8918  0.4495
   53MOL   H53147435   2.244   0.764   1.936  1.7064 -1.8270 -1.1751
   53MOL   H53247436   1.882   0.531   2.043 -0.8840 -1.6839 -2.1974
   53MOL   H53347437   2.002   0.335   1.987 -0.2432 -1.0071 -2.1757
   53MOL   H53447438   1.751   0.850   2.131  0.2261  2.2286  0.3940
   53MOL   H53547439   1.739   0.909   2.373  0.4464 -1.0294  1.2126
   53MOL   H53647440   2.167   0.908   2.399 -0.7892 -3.2350  0.8730
   53MOL   H53747441   2.187   0.844   2.169  0.9718  0.9698  2.3195
   53MOL   H53847442   1.931   0.718   2.604  0.4152 -0.0287 -0.4701
   53MOL   H53947443   1.929   0.756   2.846 -0.8229  1.5127  1.1137
   53MOL   H54047444   1.896   1.184   2.784  4.3105 -0.6593  1.9600
   53MOL   H54147445   1.900   1.153   2.561 -1.1755 -0.1480  0.3864
   53MOL   C54247446   1.755   0.997   3.006  0.4881 -0.9991 -0.2325
   53MOL   C54347447   1.676   0.885   3.040 -0.1607  0.3026 -0.1048
   53MOL   C54447448   1.543   0.898   3.073  0.1592 -0.1617  0.0697
   53MOL   C54547449   1.484   1.024   3.065  0.2246 -0.3912 -0.4162
   53MOL   C54647450   1.563   1.137   3.042 -0.3608  0.1086 -0.6391
   53MOL   C54747451   1.699   1.124   3.007  0.8847  0.0004 -0.4005
   53MOL   S54847452   1.304   1.043   3.107 -0.2645  0.2684 -0.0714
   53MOL   O54947453   1.234   0.924   3.054 -0.1830 -0.5392 -0.0180
   53MOL   O55047454   1.266   1.176   3.058 -0.0938 -0.2902 -0.1134
   53MOL   C55147455   1.301   1.047   3.283 -0.7280  0.4725 -0.0825
   53MOL   C55247456   1.188   1.000   3.351  0.3469 -0.2570  0.7260
   53MOL   C55347457   1.185   0.993   3.490 -0.3546 -0.2135  0.1955
   53MOL   C55447458   1.303   1.036   3.558 -0.1502  0.3555 -0.3892
   53MOL   C55547459   1.420   1.078   3.494  0.2010 -0.6556 -0.6501
   53MOL   C55647460   1.413   1.092   3.356 -0.3405  0.0146  0.6400
   53MOL   O55747461   1.317   1.019   3.694  0.4936 -0.8586 -1.2387
   53MOL   C55847462   1.282   1.126   3.776 -0.1450  0.1782  0.0659
   53MOL   C55947463   1.160   1.133   3.837  0.5595  0.8485  0.0315
   53MOL   C56047464   1.129   1.236   3.923  0.0936  0.6926  0.6779
   53MOL   C56147465   1.217   1.341   3.938 -0.1202 -0.1913  0.2144
   53MOL   C56247466   1.345   1.334   3.881 -0.4469 -0.8267  0.6489
   53MOL   C56347467   1.376   1.225   3.797 -0.1460 -0.1217 -0.6453
   53MOL   C56447468   1.175   1.458   4.010  0.3730  0.6241 -0.2491
   53MOL   C56547469   1.042   1.515   4.020 -0.7273 -0.0086  0.9144
   53MOL   C56647470   1.013   1.626   4.103 -0.7142 -0.5980  0.3831
   53MOL   C56747471   1.116   1.691   4.172 -0.0570 -0.0483 -0.0381
   53MOL   C56847472   1.248   1.647   4.159 -0.2271  0.2674  0.9070
   53MOL   C56947473   1.276   1.531   4.084 -0.7777 -0.3878 -0.9282
   53MOL   O57047474   1.095   1.805   4.242  0.1145  0.1296  0.2685
   53MOL   H57147475   1.717   0.786   3.034 -0.4617  0.1715  0.0014
   53MOL   H57247476   1.484   0.813   3.106  1.3907 -0.0420  2.6865
   53MOL   H57347477   1.517   1.234   3.047 -1.1268 -0.3668  3.1921
   53MOL   H57447478   1.759   1.202   2.962 -1.4073  2.4700  0.6903
   53MOL   H57547479   1.101   0.976   3.291  1.0233  1.1003 -0.8454
   53MOL   H57647480   1.095   0.956   3.537 -0.8658 -1.9575 -2.0835
   53MOL   H57747481   1.508   1.097   3.555  0.1392 -2.9573  0.2195
   53MOL   H57847482   1.501   1.129   3.305 -1.2834  0.4054 -0.7470
   53MOL   H57947483   1.083   1.062   3.814 -0.4551  2.3889 -1.4373
   53MOL   H58047484   1.032   1.245   3.969 -0.4816 -1.1703 -0.1273
   53MOL   H58147485   1.417   1.414   3.890  0.2487 -0.9714 -2.8478
   53MOL   H58247486   1.472   1.215   3.748  0.1070  2.5476 -0.7614
   53MOL   H58347487   0.969   1.476   3.951  1.9068 -0.1444 -1.9169
   53MOL   H58447488   0.911   1.661   4.100 -0.7780 -0.8443 -0.5659
   53MOL   H58547489   1.329   1.699   4.207 -0.6399  0.7154  1.1186
   53MOL   H58647490   1.381   1.507   4.080 -0.1463  1.3947  2.8794
   53MOL   C58747491   1.001   1.805   4.344 -0.0871  0.2162 -0.2873
   53MOL   C58847492   0.869   1.858   4.316 -0.4876 -0.0652 -0.8935
   53MOL   C58947493   0.770   1.851   4.410 -0.4312 -0.3538 -0.3640
   53MOL   C59047494   0.790   1.786   4.532  0.0621 -0.8748  0.4494
   53MOL   C59147495   0.918   1.733   4.558  0.0906  0.3995 -0.3444
   53MOL   C59247496   1.031   1.752   4.472  0.2417  0.0584  0.3013
   53MOL   S59347497   0.661   1.773   4.655  0.1090  0.4844  0.5303
   53MOL   O59447498   0.641   1.905   4.715 -0.4061  0.1340  0.2063
   53MOL   O59547499   0.687   1.661   4.750  0.3787 -0.0103 -0.1736
   53MOL   C59647500   0.518   1.730   4.565  0.1154  0.0447  0.1351
   53MOL   C59747501   0.394   1.786   4.599 -0.1533  0.2428  0.4571
   53MOL   C59847502   0.275   1.738   4.533  0.1467 -0.2599  0.8161
   53MOL   C59947503   0.282   1.646   4.428 -0.8052  0.2110 -0.2249
   53MOL   C60047504   0.407   1.598   4.387  0.4746  0.8365 -0.1718
   53MOL   C60147505   0.528   1.634   4.460  0.1689 -0.5061  0.7246
   53MOL   O60247506   0.168   1.606   4.365 -0.0899  0.2100  0.0861
   53MOL   C60347507   0.085   1.534   4.446  0.0306 -0.3117 -0.6604
   53MOL   C60447508   8.324   1.577   4.498 -0.6340  0.4274 -0.1667
   53MOL   C60547509   8.247   1.498   4.593 -1.1441 -0.1201  0.4386
   53MOL   C60647510   8.307   1.389   4.659 -0.4006 -0.1630  0.0208
   53MOL   C60747511   0.065   1.348   4.603 -0.5552  0.2455 -0.5942
   53MOL   C60847512   0.136   1.412   4.495  0.5107  0.4954 -0.3233
   53MOL   C60947513   8.258   1.330   4.788  1.1393 -0.0534 -0.3876
   53MOL   C61047514   8.127   1.355   4.823  0.4106 -0.1900  0.0746
   53MOL   C61147515   8.077   1.313   4.944 -0.1227 -0.2157 -0.0783
   53MOL   C61247516   8.159   1.244   5.038  0.0676 -0.1284  0.0727
   53MOL   C61347517   8.293   1.216   4.998  0.5315  0.2540  0.0753
   53MOL   C61447518   8.345   1.257   4.874 -0.6606 -0.6749  0.2318
   53MOL   O61547519   8.111   1.202   5.158 -0.1612  0.0898  0.4661
   53MOL   H61647520   0.850   1.901   4.219  1.0061 -0.4335 -1.3660
   53MOL   H61747521   0.677   1.898   4.382 -1.2818 -1.7689  0.0795
   53MOL   H61847522   0.927   1.691   4.657  0.2684  0.3512 -0.3805
   53MOL   H61947523   1.129   1.721   4.504  0.2505  1.5341  1.7565
   53MOL   H62047524   0.384   1.852   4.684  1.0449 -0.1776  0.9412
   53MOL   H62147525   0.178   1.775   4.566 -0.6701 -0.3541 -1.4095
   53MOL   H62247526   0.404   1.529   4.303 -0.3657  0.9313 -0.2247
   53MOL   H62347527   0.616   1.575   4.438 -0.0680 -1.0532  1.2369
   53MOL   H62447528   8.282   1.668   4.457  1.4053  0.1981 -2.9894
   53MOL   H62547529   8.163   1.549   4.638 -1.3318 -2.7943  3.2414
   53MOL   H62647530   0.123   1.267   4.645  1.0914  2.2281  1.0579
   53MOL   H62747531   0.231   1.372   4.461  0.7350  1.2754 -0.6414
   53MOL   H62847532   8.058   1.409   4.759  0.9213  0.2861 -0.0752
   53MOL   H62947533   7.973   1.328   4.971 -0.0074 -0.8788  0.7620
   53MOL   H63047534   8.359   1.167   5.068  1.5807  2.3312  0.5840
   53MOL   H63147535   0.085   1.243   4.855 -0.2942  0.0262  1.6809
   53MOL   C63247536   7.977   1.200   5.179  0.2099 -0.0215 -0.0833
   53MOL   C63347537   7.898   1.101   5.108 -0.6963  0.3668  0.0535
   53MOL   C63447538   7.763   1.110   5.134  0.5861  0.2193  0.2752
   53MOL   C63547539   7.702   1.205   5.221 -0.5457  0.8825 -1.0932
   53MOL   C63647540   7.781   1.294   5.294 -0.3400 -0.0820 -0.3827
   53MOL   C63747541   7.925   1.295   5.273  0.0492 -0.0207  0.8384
   53MOL   S63847542   7.527   1.207   5.248  0.2790  0.2273 -0.0592
   53MOL   O63947543   7.464   1.167   5.119  0.2077 -0.1812 -0.5471
   53MOL   O64047544   7.484   1.327   5.321 -0.5247 -0.5519 -0.1306
   53MOL   C64147545   7.492   1.064   5.357  0.1774  0.0536 -0.4608
   53MOL   C64247546   7.368   1.058   5.426 -0.1131 -0.5626  0.6918
   53MOL   C64347547   7.335   0.948   5.500 -0.6499  0.3381 -0.1363
   53MOL   C64447548   7.421   0.840   5.512 -0.8327 -0.0713  0.3441
   53MOL   C64547549   7.553   0.849   5.459  0.3492 -0.2428  0.1765
   53MOL   C64647550   7.589   0.962   5.380  0.1066 -0.1202 -0.3058
   53MOL   O64747551   7.388   0.734   5.595 -0.0107  0.4532  0.0520
   53MOL   C64847552   7.450   0.609   5.579  0.1119 -0.0458 -0.6621
   53MOL   C64947553   7.559   0.579   5.655 -0.3000 -0.4940 -0.1404
   53MOL   C65047554   7.618   0.454   5.655 -0.4898 -0.1874  0.5112
   53MOL   C65147555   7.575   0.360   5.556  0.5219  0.3842  0.1079
   53MOL   C65247556   7.468   0.392   5.475 -0.1517 -0.5596  0.5012
   53MOL   C65347557   7.407   0.522   5.479 -0.1291  0.5106  0.6198
   53MOL   C65447558   7.635   0.228   5.553 -0.2225 -0.2115 -0.5989
   53MOL   C65547559   7.772   0.203   5.585 -0.1296  1.2417 -0.0416
   53MOL   C65647560   7.828   0.068   5.568  0.0531 -0.5933 -0.4598
   53MOL   C65747561   7.742   8.326   5.536 -0.1214  0.3125 -0.0298
   53MOL   C65847562   7.609   8.354   5.514  0.1122  1.2231 -0.3973
   53MOL   C65947563   7.557   0.116   5.526 -0.4329  0.4166  1.0984
   53MOL   O66047564   7.795   8.195   5.529  0.1655  0.1648 -0.5612
   53MOL   H66147565   7.930   1.024   5.040 -3.3571 -0.3625 -0.4250
   53MOL   H66247566   7.695   1.039   5.090 -0.0162  0.0035  1.5375
   53MOL   H66347567   7.730   1.363   5.360 -1.1155  0.0565 -1.1159
   53MOL   H66447568   7.987   1.367   5.324 -1.0336  0.5852  1.3224
   53MOL   H66547569   7.293   1.134   5.413 -3.5574 -3.4600  2.6267
   53MOL   H66647570   7.241   0.934   5.551  0.3446 -0.4518  1.5592
   53MOL   H66747571   7.625   0.773   5.486  2.0300  0.4911 -2.1204
   53MOL   H66847572   7.681   0.955   5.325 -0.7959 -1.9627 -1.6530
   53MOL   H66947573   7.601   0.653   5.721  0.9044 -2.2520  1.1051
   53MOL   H67047574   7.698   0.424   5.721 -1.7448 -1.1371  1.6103
   53MOL   H67147575   7.434   0.324   5.397  1.4861 -0.2101 -0.5407
   53MOL   H67247576   7.338   0.553   5.402  1.1098  1.1337 -0.2674
   53MOL   H67347577   7.842   0.278   5.620  1.0433 -0.1539  0.6879
   53MOL   H67447578   7.932   0.044   5.584  0.2261  1.5604  1.9895
   53MOL   H67547579   7.548   8.270   5.485 -0.1974  1.0444  0.7850
   53MOL   H67647580   7.450   0.118   5.517 -0.3851 -0.3439  0.2219
   53MOL   C67747581   7.807   8.131   5.410  0.3849 -0.0999  0.2612
   53MOL   C67847582   7.890   8.194   5.321 -0.1017 -0.9166 -0.2609
   53MOL   C67947583   7.906   8.147   5.188  0.0147 -0.8755 -0.0418
   53MOL   C68047584   7.838   8.030   5.147  0.4376 -0.1307  1.3126
   53MOL   C68147585   7.754   7.965   5.237 -0.2289  0.3967  0.1451
   53MOL   C68247586   7.736   8.016   5.366 -0.3683 -0.2273 -0.4085
   53MOL   S68347587   7.864   7.964   4.985 -0.2863  0.3022  0.3219
   53MOL   O68447588   7.879   8.075   4.889 -0.2515 -0.5122 -0.0923
   53MOL   O68547589   7.761   7.860   4.959 -0.3504  0.4280 -0.3280
   53MOL   C68647590   8.025   7.879   4.973 -0.4019  0.5533  0.6014
   53MOL   C68747591   8.033   7.743   4.971 -0.3832  0.2878 -0.2991
   53MOL   C68847592   8.157   7.678   4.964  0.2550 -0.1603  0.4399
   53MOL   C68947593   8.275   7.755   4.952 -0.6133  0.2258  0.4833
   53MOL   C69047594   8.269   7.901   4.950 -0.0385  0.2277  0.1452
   53MOL   C69147595   8.145   7.961   4.964  1.7544  0.6862 -0.4440
   53MOL   O69247596   0.035   7.696   4.948  0.0570  0.1026  0.4077
   53MOL   C69347597   0.052   7.567   4.918 -0.1108 -0.1315  0.5968
   53MOL   C69447598   0.073   7.474   5.020  0.0914  1.1838 -0.5827
   53MOL   C69547599   0.070   7.335   4.989  0.4249  0.0333  0.5921
   53MOL   C69647600   0.058   7.294   4.853  0.9131  0.2656  0.6258
   53MOL   C69747601   0.041   7.395   4.753  0.5540  0.0751 -0.8803
   53MOL   C69847602   0.025   7.525   4.789  0.2635 -0.1656 -0.2503
   53MOL   C69947603   0.070   7.150   4.811 -0.2457  0.2684  0.3635
   53MOL   C70047604   0.005   7.098   4.697  0.6165 -0.7394 -0.5099
   53MOL   C70147605   0.018   6.966   4.657 -0.1495  0.2172 -0.0852
   53MOL   C70247606   0.111   6.884   4.725 -0.2941 -0.1277  0.9056
   53MOL   C70347607   0.175   6.930   4.840 -0.1255 -0.2035 -0.0567
   53MOL   C70447608   0.160   7.062   4.880 -0.1647  0.3628  0.2061
   53MOL   O70547609   0.135   6.758   4.678  0.4749  0.2256  0.8037
   53MOL   H70647610   7.927   8.290   5.355 -1.3699 -0.8455  0.9610
   53MOL   H70747611   7.966   8.206   5.120  0.7611 -0.8321  0.6448
   53MOL   H70847612   7.695   7.884   5.197  0.9902  1.1079 -3.2296
   53MOL   H70947613   7.658   7.971   5.426 -0.0547 -1.2732 -0.7773
   53MOL   H71047614   7.938   7.694   4.984 -0.3063 -0.0652 -1.0418
   53MOL   H71147615   8.149   7.571   4.957 -0.3116 -0.1020  0.1310
   53MOL   H71247616   8.364   7.952   4.941  1.3372 -2.0185  1.4703
   53MOL   H71347617   8.142   8.069   4.957  0.7597  0.6620 -0.4490
   53MOL   H71447618   0.075   7.511   5.122  1.6426  2.1168 -0.9298
   53MOL   H71547619   0.087   7.273   5.076 -0.0150 -0.2427  0.4821
   53MOL   H71647620   0.014   7.369   4.652 -1.8492 -1.4874  0.1065
   53MOL   H71747621   8.363   7.600   4.716 -2.2019 -0.6743  0.1321
   53MOL   H71847622   8.306   7.162   4.639  0.3841 -0.9170 -0.4466
   53MOL   H71947623   8.321   6.941   4.572 -0.0058 -0.6708  0.0598
   53MOL   H72047624   0.221   6.854   4.902  0.4017 -0.4562 -0.7519
   53MOL   H72147625   0.212   7.089   4.971  0.3579 -1.0535  0.3318
   53MOL   C72247626   0.256   6.736   4.616  0.2177 -0.3428  0.4851
   53MOL   C72347627   0.291   6.795   4.492  0.4801 -0.2907 -1.0496
   53MOL   C72447628   0.413   6.776   4.434 -0.5354 -0.4539 -0.1079
   53MOL   C72547629   0.506   6.686   4.494  0.3765 -0.6771 -0.6219
   53MOL   C72647630   0.474   6.632   4.620  0.5544 -0.5394 -0.3080
   53MOL   C72747631   0.350   6.658   4.681 -0.8403  0.2027 -0.3021
   53MOL   S72847632   0.658   6.646   4.413  0.0890 -0.1171  0.0090
   53MOL   O72947633   0.639   6.651   4.264  0.3856 -0.0004  0.0447
   53MOL   O73047634   0.714   6.521   4.469  1.2228  0.1702 -0.3742
   53MOL   C73147635   0.782   6.769   4.458 -0.6190 -0.3896 -0.7314
   53MOL   C73247636   0.889   6.732   4.538  0.6518  0.0266 -0.8769
   53MOL   C73347637   0.987   6.825   4.583  0.6118  0.4893  0.4625
   53MOL   C73447638   0.968   6.958   4.543  0.0778 -0.2326 -0.8783
   53MOL   C73547639   0.861   7.004   4.460 -1.0398 -0.0282  0.1993
   53MOL   C73647640   0.771   6.905   4.418 -0.1900  0.1260  0.2176
   53MOL   O73747641   1.056   7.050   4.597  0.0061 -0.3279  0.9165
   53MOL   C73847642   1.082   7.165   4.527 -0.6087 -0.4830 -0.0701
   53MOL   C73947643   1.052   7.292   4.579 -0.5803 -0.0454  0.3493
   53MOL   C74047644   1.072   7.407   4.503  0.3968 -0.5485  0.4862
   53MOL   C74147645   1.139   7.407   4.375  0.3854  0.1497  0.3314
   53MOL   C74247646   1.175   7.280   4.332  0.3742 -0.1630  0.3525
   53MOL   C74347647   1.154   7.162   4.404 -0.1262  0.0443  0.0762
   53MOL   C74447648   1.173   7.533   4.306 -0.1285  0.2437  0.4246
   53MOL   C74547649   1.298   7.556   4.249 -0.0295  0.3752 -0.3097
   53MOL   C74647650   1.326   7.678   4.185  0.1754  0.2316  0.5039
   53MOL   C74747651   1.229   7.783   4.181  0.4089  0.3657 -0.5132
   53MOL   C74847652   1.101   7.758   4.237  0.0730 -0.2664 -0.1696
   53MOL   C74947653   1.072   7.636   4.294  0.3621  0.3124 -0.1172
   53MOL   O75047654   1.250   7.911   4.126  0.2891  0.2662  0.1900
   53MOL   H75147655   0.211   6.856   4.453 -0.7979 -1.9297 -1.0337
   53MOL   H75247656   0.439   6.818   4.338 -0.3557 -0.3180 -0.0005
   53MOL   H75347657   0.540   6.556   4.661 -0.5462 -1.4051 -0.0956
   53MOL   H75447658   0.315   6.617   4.774 -2.3864  0.1451 -0.8825
   53MOL   H75547659   0.890   6.627   4.564 -0.9154 -0.3571 -2.2808
   53MOL   H75647660   1.071   6.797   4.643  0.4562  0.4001  0.6384
   53MOL   H75747661   0.841   7.099   4.414  0.6447  0.9060  1.3291
   53MOL   H75847662   0.674   6.935   4.380  0.0703  1.6088  0.6702
   53MOL   H75947663   0.996   7.303   4.670 -2.7957 -0.6849 -0.8857
   53MOL   H76047664   1.044   7.502   4.548  0.7520 -0.7893  1.2276
   53MOL   H76147665   1.223   7.272   4.235 -0.7864 -1.2228 -0.1498
   53MOL   H76247666   1.179   7.063   4.367 -2.8998 -1.3148  1.6408
   53MOL   H76347667   1.373   7.480   4.265 -1.1703 -0.9103 -1.0540
   53MOL   H76447668   1.419   7.694   4.132  0.0493  0.7008  0.4225
   53MOL   H76547669   1.032   7.841   4.244 -0.2496 -0.5935  0.4903
   53MOL   H76647670   0.976   7.613   4.336 -0.9897  1.1787 -2.6596
   53MOL   C76747671   1.288   8.014   4.210  0.0096  0.3127  0.4461
   53MOL   C76847672   1.195   8.116   4.242  0.4342 -0.0917 -0.1747
   53MOL   C76947673   1.228   8.218   4.331  0.1980  0.6025  0.0612
   53MOL   C77047674   1.354   8.221   4.392  0.2237 -0.1284  0.2202
   53MOL   C77147675   1.447   8.121   4.356  0.3303  0.2731  0.2200
   53MOL   C77247676   1.413   8.015   4.269  0.0680  0.6810  0.0456
   53MOL   S77347677   1.399   8.354   4.504 -0.0129  0.4104 -0.1001
   53MOL   O77447678   1.284   0.081   4.514 -0.0576 -0.9270 -0.5576
   53MOL   O77547679   1.527   0.043   4.458 -0.3084 -0.6950 -0.9979
   53MOL   C77647680   1.431   8.269   4.660  0.0763  0.3546 -0.5418
   53MOL   C77747681   1.557   8.217   4.690 -0.4412  1.0424  0.6764
   53MOL   C77847682   1.571   8.144   4.809  0.0614 -0.9148 -0.4698
   53MOL   C77947683   1.460   8.133   4.896 -0.1039  0.2648  0.0222
   53MOL   C78047684   1.340   8.197   4.871 -0.3669  0.3615 -0.2929
   53MOL   C78147685   1.323   8.264   4.748  0.7515 -0.4033 -0.1001
   53MOL   O78247686   1.473   8.050   5.007  0.1901  0.3373  0.6223
   53MOL   C78347687   1.470   8.109   5.129 -0.0844  0.1621  0.6425
   53MOL   C78447688   1.564   8.205   5.162 -0.0372 -0.0225  0.9201
   53MOL   C78547689   1.548   8.274   5.288  0.6673  0.1271 -0.1309
   53MOL   C78647690   1.438   8.242   5.370  0.0830  0.6638 -0.8301
   53MOL   C78747691   1.339   8.147   5.326 -0.7154 -0.8228  0.1559
   53MOL   C78847692   1.352   8.090   5.201  0.4578 -0.5531 -0.3538
   53MOL   C78947693   1.409   8.303   5.499 -0.3687  0.1347 -0.7895
   53MOL   C79047694   1.413   8.229   5.617  0.2922 -0.3348 -0.3721
   53MOL   C79147695   1.401   8.290   5.749 -0.4620 -0.0059 -0.4578
   53MOL   C79247696   1.381   0.069   5.760 -0.3894  0.1534  0.0556
   53MOL   C79347697   1.378   0.140   5.638 -0.3904  0.0207  0.1737
   53MOL   C79447698   1.386   0.078   5.513 -0.0429 -0.0197 -0.2002
   53MOL   O79547699   1.385   0.137   5.882  0.0996 -0.6272  0.4258
   53MOL   H79647700   1.099   8.114   4.191  1.8097  3.4319 -3.1386
   53MOL   H79747701   1.169   8.306   4.350 -1.3897 -0.2814 -0.6542
   53MOL   H79847702   1.544   8.120   4.404  0.5524 -0.5060 -0.2427
   53MOL   H79947703   1.486   7.937   4.257  0.0309  0.8487 -1.3533
   53MOL   H80047704   1.635   8.233   4.617 -0.8141  0.3566  0.1174
   53MOL   H80147705   1.668   8.111   4.844 -0.9158 -2.3675  0.9327
   53MOL   H80247706   1.262   8.183   4.945 -0.0994 -0.9650 -0.2405
   53MOL   H80347707   1.233   8.316   4.717  1.1023  0.4363  0.2784
   53MOL   H80447708   1.652   8.227   5.104 -0.3993 -0.7887  0.0578
   53MOL   H80547709   1.632   8.339   5.308 -1.9705  3.7658 -0.1385
   53MOL   H80647710   1.250   8.121   5.381 -1.6050  0.7470 -0.4938
   53MOL   H80747711   1.269   8.029   5.170  0.6824 -1.1909  0.2730
   53MOL   H80847712   1.431   8.123   5.619  0.9710 -0.2181  2.2803
   53MOL   H80947713   1.415   8.224   5.834 -0.2919 -0.4571 -0.8346
   53MOL   H81047714   1.383   0.248   5.641 -3.1991  0.1439  3.3013
   53MOL   H81147715   1.387   0.140   5.425 -3.4601 -0.0956 -0.3704
   53MOL   C81247716   1.455   0.253   5.887  0.0342  0.5202 -0.4219
   53MOL   C81347717   1.589   0.259   5.848  0.6825  0.2006  0.7318
   53MOL   C81447718   1.664   0.379   5.855 -0.0539 -0.0433  0.8422
   53MOL   C81547719   1.594   0.496   5.892 -0.0157 -0.0725  0.0890
   53MOL   C81647720   1.461   0.489   5.924  0.3055  0.8286 -0.0751
   53MOL   C81747721   1.391   0.367   5.933  0.1887 -0.1796  0.3281
   53MOL   S81847722   1.687   0.655   5.906 -0.2211  0.4617 -0.7526
   53MOL   O81947723   1.832   0.625   5.902 -0.1844  0.1750 -0.4992
   53MOL   O82047724   1.634   0.730   6.018 -0.1440 -0.1596 -0.5098
   53MOL   C82147725   1.637   0.754   5.762  0.1786  0.2412  0.7144
   53MOL   C82247726   1.690   0.878   5.743  0.1299  0.2677  0.2320
   53MOL   C82347727   1.659   0.954   5.631 -0.5910 -0.7083  0.6161
   53MOL   C82447728   1.579   0.899   5.525 -0.1219  0.5056  0.5083
   53MOL   C82547729   1.539   0.761   5.538  0.1757 -0.2671 -1.0128
   53MOL   C82647730   1.565   0.687   5.655 -0.5907  0.0647  0.1799
   53MOL   O82747731   1.529   0.969   5.417 -0.6365  0.0313  0.3572
   53MOL   C82847732   1.436   1.063   5.433 -0.0220  0.1040 -0.2247
   53MOL   C82947733   1.414   1.133   5.554 -0.0537  0.0911  0.7089
   53MOL   C83047734   1.312   1.232   5.572 -0.1426  0.0620  0.9437
   53MOL   C83147735   1.230   1.264   5.463 -0.1877 -1.0587 -0.5564
   53MOL   C83247736   1.251   1.198   5.342 -0.2314  0.4358  0.4780
   53MOL   C83347737   1.353   1.095   5.323  0.1976  0.5537 -0.3719
   53MOL   C83447738   1.110   1.353   5.484 -0.6511  0.2629 -0.4652
   53MOL   C83547739   1.047   1.423   5.380  0.3198  0.4514  0.2517
   53MOL   C83647740   0.930   1.502   5.400 -0.1955  0.0749 -0.6067
   53MOL   C83747741   0.871   1.493   5.526  0.5639  0.1481 -0.7727
   53MOL   C83847742   0.932   1.420   5.630  0.2898 -0.4471  0.4372
   53MOL   C83947743   1.054   1.347   5.610  0.4042 -0.3362 -1.0470
   53MOL   O84047744   0.756   1.561   5.560 -0.3398  0.2880  0.2903
   53MOL   H84147745   1.640   0.170   5.815  0.5691  0.1904  0.5814
   53MOL   H84247746   1.770   0.371   5.836 -0.3267 -1.8898  0.0494
   53MOL   H84347747   1.411   0.580   5.952 -1.3226 -0.1412  0.2306
   53MOL   H84447748   1.292   0.370   5.976 -0.7711  2.9296 -1.9092
   53MOL   H84547749   1.758   0.921   5.814  1.7224 -0.9756 -0.5100
   53MOL   H84647750   1.696   1.056   5.625  1.7804 -1.4110  2.2611
   53MOL   H84747751   1.482   0.714   5.459 -0.6716 -1.7057  0.4012
   53MOL   H84847752   1.530   0.585   5.656 -0.5793  0.0681  1.0069
   53MOL   H84947753   1.477   1.126   5.642  2.3103  1.0941 -0.8710
   53MOL   H85047754   1.303   1.281   5.668 -3.7833 -1.2621  1.3364
   53MOL   H85147755   1.185   1.218   5.259 -0.1753 -2.3050 -0.2745
   53MOL   H85247756   1.359   1.039   5.231  1.8911 -3.3429  1.9713
   53MOL   H85347757   1.096   1.419   5.285  1.1267  0.4065  0.6655
   53MOL   H85447758   0.885   1.558   5.319 -0.7681  0.3950 -0.0718
   53MOL   H85547759   0.878   1.426   5.724 -3.1785 -0.0664 -1.4912
   53MOL   H85647760   1.093   1.293   5.694 -1.0492  0.7372  0.3469
   53MOL   C85747761   0.644   1.499   5.538  0.3333  0.8891 -0.5634
   53MOL   C85847762   0.588   1.429   5.650 -0.2876 -0.1943  0.2304
   53MOL   C85947763   0.477   1.340   5.635  0.5262 -0.3119 -0.3382
   53MOL   C86047764   0.425   1.315   5.504 -0.0813 -0.0010  0.2003
   53MOL   C86147765   0.483   1.371   5.389 -0.0127 -0.2533 -0.1556
   53MOL   C86247766   0.588   1.466   5.405 -0.7270  0.2687 -0.0069
   53MOL   S86347767   0.296   1.196   5.483  0.1355 -0.1025 -0.2043
   53MOL   O86447768   0.203   1.247   5.384 -0.2615 -0.0831 -0.9587
   53MOL   O86547769   0.254   1.140   5.613 -0.3752  0.2339  0.0150
   53MOL   C86647770   0.379   1.058   5.400 -0.1775 -0.0690  0.2128
   53MOL   C86747771   0.356   1.039   5.261 -0.8901  0.2041  0.4267
   53MOL   C86847772   0.418   0.930   5.200  0.3938 -0.1800 -0.3970
   53MOL   C86947773   0.503   0.840   5.264 -0.1443  0.4713 -0.7064
   53MOL   C87047774   0.513   0.859   5.401  0.3111 -0.6864 -0.4742
   53MOL   C87147775   0.456   0.967   5.470  0.3622  0.9893 -0.0429
   53MOL   O87247776   0.562   0.721   5.212  0.0064  0.2483  0.2615
   53MOL   C87347777   0.653   0.739   5.113 -0.0013  0.3850  0.5007
   53MOL   C87447778   0.787   0.752   5.143  0.2536 -0.3994 -0.1880
   53MOL   C87547779   0.879   0.769   5.038  0.3349 -1.3526 -0.1178
   53MOL   C87647780   0.834   0.754   4.905 -0.6296 -0.2668  0.4413
   53MOL   C87747781   0.697   0.726   4.882 -0.2798 -0.1840 -0.6942
   53MOL   C87847782   0.609   0.727   4.989  0.3372 -0.5132 -0.4241
   53MOL   C87947783   0.928   0.768   4.788  0.8236 -0.0307  0.4425
   53MOL   C88047784   1.042   0.680   4.771  0.6887 -0.4338  0.2272
   53MOL   C88147785   1.131   0.699   4.666 -0.0208  0.6282 -0.6147
   53MOL   C88247786   1.116   0.809   4.582 -0.5786 -0.2243 -0.9733
   53MOL   C88347787   1.011   0.896   4.595  0.1208  0.3558  0.3497
   53MOL   C88447788   0.913   0.879   4.695 -1.0383 -0.5217 -0.6261
   53MOL   O88547789   1.212   0.824   4.482  0.0064  0.1509 -0.5692
   53MOL   H88647790   0.623   1.449   5.751 -1.3022 -1.4405  0.8364
   53MOL   H88747791   0.431   1.294   5.721 -1.8419 -0.9586 -1.8781
   53MOL   H88847792   0.441   1.357   5.291 -2.8129  0.4398  0.8803
   53MOL   H88947793   0.628   1.500   5.310 -0.9495 -2.0108 -0.9595
   53MOL   H89047794   0.284   1.100   5.209 -1.4276  0.0180  0.9510
   53MOL   H89147795   0.397   0.907   5.096 -0.2951  0.6327 -0.4354
   53MOL   H89247796   0.571   0.788   5.458  1.1967 -0.8827 -1.6104
   53MOL   H89347797   0.455   0.977   5.578 -0.2174  1.4056 -0.0799
   53MOL   H89447798   0.817   0.757   5.247 -1.3637  0.9954  0.2318
   53MOL   H89547799   0.985   0.777   5.057  0.3539 -0.4586 -0.5523
   53MOL   H89647800   0.657   0.712   4.783  1.8323 -2.1695 -1.3176
   53MOL   H89747801   0.503   0.709   4.977  0.7365 -2.2956 -1.6035
   53MOL   H89847802   1.055   0.598   4.840  0.3880 -0.8612 -0.2158
   53MOL   H89947803   1.218   0.636   4.652  0.3369  1.1828 -0.8941
   53MOL   H90047804   1.011   0.986   4.535 -0.9311  0.1341 -0.0010
   53MOL   H90147805   0.830   0.948   4.702  0.0643  0.8695 -0.8958
   53MOL   H90247806   1.232   0.746   4.432  0.6075  0.3504 -0.6412
   54MOL     C147807   0.615   4.823   1.640 -0.8334 -0.4823 -0.1515
   54MOL     C247808   0.538   4.741   1.723 -0.9171  0.0948 -0.1156
   54MOL     C347809   0.495   4.621   1.671  0.4131  0.7898 -0.5990
   54MOL     C447810   0.526   4.584   1.540  0.7815 -0.2578 -0.3251
   54MOL     C547811   0.598   4.667   1.455 -0.2032 -1.1241 -0.0612
   54MOL     C647812   0.651   4.788   1.507  0.4139  0.2697  0.0827
   54MOL     S747813   0.451   4.441   1.476  0.0270 -0.3772 -0.2722
   54MOL     O847814   0.375   4.476   1.357 -0.4261  0.3221  0.5506
   54MOL     O947815   0.390   4.371   1.590 -0.3219 -0.5631  0.3010
   54MOL    C1047816   0.586   4.342   1.414 -0.1204  0.5455 -0.4273
   54MOL    C1147817   0.723   4.362   1.451  0.1938 -0.2998  0.1011
   54MOL    C1247818   0.826   4.282   1.398 -0.0326  0.0350  0.3733
   54MOL    C1347819   0.795   4.171   1.311 -0.2826 -0.3907  0.1625
   54MOL    C1447820   0.653   4.150   1.280 -0.6371  0.4188  0.2543
   54MOL    C1547821   0.553   4.233   1.334  0.1204  0.1765 -0.4114
   54MOL    O1647822   0.893   4.099   1.243  0.1224 -0.0645 -0.0915
   54MOL    C1747823   0.941   3.986   1.309 -0.3512  0.6214 -0.0094
   54MOL    C1847824   1.030   3.997   1.423  0.0325  0.3535  0.7195
   54MOL    C1947825   1.076   3.886   1.501 -0.1840 -0.0308  0.6952
   54MOL    C2047826   1.025   3.761   1.467  0.0006  0.6881 -0.4785
   54MOL    C2147827   0.939   3.743   1.356  0.7717  0.5353 -0.4337
   54MOL    C2247828   0.900   3.852   1.278 -0.2427 -0.4076 -0.0332
   54MOL    C2347829   1.083   3.648   1.545  0.0471 -0.4870 -0.4364
   54MOL    C2447830   1.124   3.664   1.680 -0.6223 -0.6146 -0.1843
   54MOL    C2547831   1.177   3.559   1.756 -0.0849 -0.0280 -0.5570
   54MOL    C2647832   1.177   3.428   1.700  0.0554 -0.4114  0.2971
   54MOL    C2747833   1.149   3.411   1.565 -0.6904  0.1112  0.0010
   54MOL    C2847834   1.099   3.518   1.490  0.4513 -0.2283 -0.0370
   54MOL    O2947835   1.202   3.320   1.783  0.2278 -0.6990 -0.1787
   54MOL    H3047836   0.501   4.777   1.818 -0.8467  1.4874 -0.6076
   54MOL    H3147837   0.436   4.554   1.732 -0.1522  2.7103  1.0468
   54MOL    H3247838   0.593   4.646   1.349  0.3699  1.5618 -0.6501
   54MOL    H3347839   0.699   4.857   1.439 -1.4316  0.0763 -1.4711
   54MOL    H3447840   0.752   4.448   1.510 -1.8401 -0.6167  1.6430
   54MOL    H3547841   0.930   4.297   1.420  0.8880 -4.1928 -0.6264
   54MOL    H3647842   0.616   4.072   1.215 -0.9755  0.5179  0.3282
   54MOL    H3747843   0.450   4.225   1.302  0.4050 -0.0488 -1.2723
   54MOL    H3847844   1.060   4.096   1.453  3.6962 -0.5005  0.0938
   54MOL    H3947845   1.148   3.896   1.581 -1.5533 -0.5723  2.0075
   54MOL    H4047846   0.904   3.643   1.333 -1.8677  0.7776  2.2980
   54MOL    H4147847   0.843   3.829   1.190 -0.3676 -0.7673  0.1408
   54MOL    H4247848   1.115   3.760   1.729 -0.2321 -0.8493  0.3604
   54MOL    H4347849   1.213   3.576   1.856  0.5586 -0.1018 -0.7715
   54MOL    H4447850   1.158   3.313   1.522  0.0215  0.9214 -1.7189
   54MOL    H4547851   1.085   3.516   1.383 -0.7970 -0.0972  0.1214
   54MOL    H4647852   0.645   4.921   1.675  0.4770 -0.4772 -1.2255
   54MOL    C4747853   1.320   3.255   1.767 -0.7500 -0.2655 -0.3978
   54MOL    C4847854   1.315   3.116   1.804  0.3592  0.3122 -0.8190
   54MOL    C4947855   1.439   3.049   1.803  0.6093  0.3327  0.1757
   54MOL    C5047856   1.560   3.115   1.765  0.5566  0.2319  0.3635
   54MOL    C5147857   1.561   3.250   1.730  0.3518  0.0708  0.1607
   54MOL    C5247858   1.445   3.325   1.738 -0.1147 -0.5406 -0.4823
   54MOL    S5347859   1.706   3.020   1.749  0.4514  0.2580  0.1125
   54MOL    O5447860   1.778   3.062   1.633 -0.4506 -0.0898  0.5562
   54MOL    O5547861   1.666   2.878   1.766  0.2024 -0.8093 -0.1964
   54MOL    C5647862   1.812   3.066   1.880 -0.1291  0.5801 -0.1942
   54MOL    C5747863   1.757   3.098   2.004 -0.2566 -0.3771 -0.1385
   54MOL    C5847864   1.844   3.143   2.105  0.3529 -0.2057  0.6370
   54MOL    C5947865   1.984   3.136   2.092  0.0237  0.1430  0.7416
   54MOL    C6047866   2.035   3.105   1.966 -0.5256  0.5323  0.1905
   54MOL    C6147867   1.948   3.067   1.855 -0.5132  0.4365 -0.3348
   54MOL    O6247868   2.067   3.169   2.198 -0.1190 -0.1155  0.8418
   54MOL    C6347869   2.076   3.072   2.286  0.1109  1.1338  0.2681
   54MOL    C6447870   2.158   2.964   2.255 -0.8189 -0.1504 -0.3100
   54MOL    C6547871   2.164   2.854   2.343 -0.3581  0.0739 -0.1399
   54MOL    C6647872   2.081   2.839   2.455 -0.8592  0.3584 -0.1289
   54MOL    C6747873   1.999   2.950   2.484  0.6753 -0.6669 -0.4581
   54MOL    C6847874   1.994   3.064   2.401  0.1144 -0.1908 -0.6928
   54MOL    C6947875   2.073   2.715   2.534 -0.7050 -0.3971 -0.0367
   54MOL    C7047876   2.048   2.590   2.473 -0.2819  0.0498  0.1998
   54MOL    C7147877   2.030   2.471   2.548 -0.7873 -0.2096  0.1514
   54MOL    C7247878   2.046   2.475   2.684  0.8340 -0.2623 -0.3329
   54MOL    C7347879   2.078   2.595   2.747 -0.2953  0.1146 -0.0053
   54MOL    C7447880   2.092   2.715   2.673 -0.8473  0.2331 -0.1761
   54MOL    O7547881   2.024   2.360   2.756  0.2515 -0.0286 -0.6528
   54MOL    H7647882   1.218   3.071   1.816 -0.1298  1.7076  0.6939
   54MOL    H7747883   1.441   2.943   1.819 -0.7418  0.9406  5.0257
   54MOL    H7847884   1.652   3.300   1.702  0.2253  0.0115 -0.3528
   54MOL    H7947885   1.443   3.431   1.719 -0.9870 -0.0774  1.9013
   54MOL    H8047886   1.653   3.078   2.021 -0.9984  2.3362 -1.2202
   54MOL    H8147887   1.804   3.176   2.200  0.6287  1.2602  0.2701
   54MOL    H8247888   2.140   3.124   1.952 -0.2108 -0.3580  1.3334
   54MOL    H8347889   1.994   3.055   1.758 -0.1298  1.0124 -0.2264
   54MOL    H8447890   2.216   2.960   2.164 -1.5894  0.7384 -0.8462
   54MOL    H8547891   2.238   2.778   2.324  1.0258  0.9116  1.7718
   54MOL    H8647892   1.928   2.956   2.564 -1.5910  0.8054 -2.4977
   54MOL    H8747893   1.924   3.145   2.410 -2.3699 -2.1201 -2.0583
   54MOL    H8847894   2.033   2.594   2.366 -1.2754  2.8471  0.3879
   54MOL    H8947895   1.997   2.379   2.502 -0.7352  0.8131 -1.9802
   54MOL    H9047896   2.097   2.585   2.853 -0.4281  1.9301  0.2069
   54MOL    H9147897   2.120   2.802   2.729 -0.6666 -0.8372  1.4169
   54MOL    C9247898   1.897   2.336   2.787  0.3102  0.6632  0.5471
   54MOL    C9347899   1.825   2.241   2.706 -0.5848 -0.2004  0.5137
   54MOL    C9447900   1.692   2.212   2.733  0.1059  0.0488  0.0191
   54MOL    C9547901   1.624   2.284   2.838  1.0395  0.1468 -0.3975
   54MOL    C9647902   1.693   2.370   2.923  0.4960  0.2456  0.3581
   54MOL    C9747903   1.831   2.388   2.902 -0.1139 -0.3049  0.1193
   54MOL    S9847904   1.443   2.250   2.883 -0.4483  0.2614  0.5118
   54MOL    O9947905   1.433   2.266   3.030 -0.8073 -0.0004 -0.5100
   54MOL   O10047906   1.408   2.127   2.813  0.4030  0.3286 -0.0883
   54MOL   C10147907   1.355   2.378   2.798 -0.2863  0.4035  0.2207
   54MOL   C10247908   1.255   2.447   2.866 -0.1108  0.1938  0.4241
   54MOL   C10347909   1.174   2.540   2.794 -0.0655  0.7797  0.4527
   54MOL   C10447910   1.195   2.562   2.661  0.3519 -0.1288  1.5288
   54MOL   C10547911   1.293   2.489   2.587 -0.6160 -0.0003 -0.3962
   54MOL   C10647912   1.372   2.394   2.657  0.2108 -0.2200  0.0799
   54MOL   O10747913   1.114   2.655   2.592 -0.1442  0.6557 -0.6601
   54MOL   C10847914   1.151   2.786   2.603 -0.2841  0.3168  0.5525
   54MOL   C10947915   1.272   2.829   2.665 -0.0586 -0.9012  0.0901
   54MOL   C11047916   1.301   2.967   2.676 -0.1476  0.3265  0.9520
   54MOL   C11147917   1.211   3.066   2.625 -0.2765  0.3950  0.9644
   54MOL   C11247918   1.090   3.021   2.571 -0.1462 -0.0703 -0.3223
   54MOL   C11347919   1.061   2.885   2.563 -0.4932  0.2199 -0.2959
   54MOL   C11447920   1.248   3.206   2.621 -0.5209 -0.3431 -0.2558
   54MOL   C11547921   1.172   3.322   2.649  0.3827 -0.3613 -0.6932
   54MOL   C11647922   1.218   3.454   2.633 -0.1233 -0.1951  0.1431
   54MOL   C11747923   1.352   3.476   2.589 -0.6491 -0.2860  0.1479
   54MOL   C11847924   1.435   3.364   2.575  0.4604  0.0865 -0.4218
   54MOL   C11947925   1.384   3.235   2.594  0.4379  0.2110  0.7647
   54MOL   O12047926   1.404   3.602   2.562 -0.2250 -0.1888  0.4785
   54MOL   H12147927   1.878   2.194   2.624  0.1023  0.7593  0.3852
   54MOL   H12247928   1.647   2.140   2.666  0.4763  0.2723 -0.4821
   54MOL   H12347929   1.652   2.411   3.014 -0.5227 -1.2162  0.5691
   54MOL   H12447930   1.889   2.454   2.965 -1.5105  0.3240  0.7682
   54MOL   H12547931   1.248   2.436   2.974 -1.4183  0.0845  0.3341
   54MOL   H12647932   1.105   2.596   2.855  2.8430  4.1734  0.7607
   54MOL   H12747933   1.317   2.513   2.484 -0.0443 -1.5067 -0.6167
   54MOL   H12847934   1.451   2.338   2.609  0.2234 -0.7837  0.7396
   54MOL   H12947935   1.347   2.761   2.703  1.4219  1.0325  0.7175
   54MOL   H13047936   1.385   2.992   2.740 -0.0337  0.8256  0.6136
   54MOL   H13147937   1.016   3.093   2.538 -2.5330  0.0468  4.7139
   54MOL   H13247938   0.965   2.864   2.519  0.0609 -1.2138 -0.8586
   54MOL   H13347939   1.072   3.304   2.688  1.9902 -2.4681  2.6983
   54MOL   H13447940   1.151   3.538   2.644  1.0260  1.3338 -3.5856
   54MOL   H13547941   1.537   3.377   2.540  0.4496  1.0856 -0.0795
   54MOL   H13647942   1.446   3.151   2.566  2.1713  1.5957  0.3881
   54MOL   C13747943   1.364   3.708   2.647 -1.2209  0.0078  0.2998
   54MOL   C13847944   1.394   3.705   2.787  0.2060 -0.1089  0.9861
   54MOL   C13947945   1.344   3.807   2.869 -0.3724  0.0189 -0.1852
   54MOL   C14047946   1.280   3.917   2.816 -0.3233 -0.0640  0.1599
   54MOL   C14147947   1.257   3.925   2.680  0.0191 -0.0350  0.6575
   54MOL   C14247948   1.301   3.826   2.591 -0.6533  0.3135 -0.0641
   54MOL   S14347949   1.200   4.040   2.921 -0.2994  0.0203 -0.0605
   54MOL   O14447950   1.150   3.974   3.043 -0.2529  0.0163 -0.0511
   54MOL   O14547951   1.108   4.120   2.839 -0.2202  0.5560  0.0600
   54MOL   C14647952   1.326   4.153   2.968 -0.3804 -0.0737 -0.1452
   54MOL   C14747953   1.406   4.214   2.866 -0.4378  0.3310 -1.0426
   54MOL   C14847954   1.497   4.317   2.904  0.3139  0.4794 -0.0823
   54MOL   C14947955   1.521   4.333   3.046 -0.9081  0.0822 -0.5519
   54MOL   C15047956   1.440   4.271   3.143  0.0700 -0.0800  0.5025
   54MOL   C15147957   1.347   4.178   3.105  0.3831 -0.7674  0.1009
   54MOL   O15247958   1.622   4.408   3.098  0.2800  0.1610  0.3275
   54MOL   C15347959   1.684   4.514   3.030  0.0268  0.1858 -0.2094
   54MOL   C15447960   1.791   4.489   2.941  0.6245 -0.6205  1.3748
   54MOL   C15547961   1.865   4.600   2.889  0.2771 -0.6413  0.2232
   54MOL   C15647962   1.853   4.730   2.942 -0.7407  0.2135  0.2457
   54MOL   C15747963   1.747   4.752   3.036 -0.5379  0.2938 -0.5576
   54MOL   C15847964   1.658   4.647   3.065  0.0272 -0.5888 -0.2706
   54MOL   C15947965   1.944   4.842   2.907  0.3306 -0.7048 -1.0472
   54MOL   C16047966   1.984   4.862   2.776 -0.0363 -0.4679  1.0159
   54MOL   C16147967   2.083   4.958   2.745  0.4146 -0.2381 -0.3176
   54MOL   C16247968   2.143   5.034   2.845 -0.2288 -0.8168 -0.8803
   54MOL   C16347969   2.103   5.017   2.983  0.6276  0.2214  0.1132
   54MOL   C16447970   2.000   4.923   3.011 -0.2318 -0.5200 -0.4359
   54MOL   O16547971   2.234   5.132   2.812 -0.0187 -0.3197 -0.3881
   54MOL   H16647972   1.422   3.612   2.833  0.9064  0.2868  1.3689
   54MOL   H16747973   1.349   3.787   2.975 -1.3982  1.1887  0.0930
   54MOL   H16847974   1.202   4.010   2.642 -0.6410 -0.4277  0.7309
   54MOL   H16947975   1.280   3.841   2.486 -0.9498 -1.3865 -0.2552
   54MOL   H17047976   1.373   4.194   2.765 -4.7524  2.2354 -0.0930
   54MOL   H17147977   1.538   4.379   2.826 -0.1092  0.8750  0.0073
   54MOL   H17247978   1.458   4.291   3.247 -0.2125 -3.0252  1.1376
   54MOL   H17347979   1.291   4.124   3.180 -0.4104 -0.5327 -0.3226
   54MOL   H17447980   1.807   4.385   2.919 -0.2288 -0.7349  1.2746
   54MOL   H17547981   1.939   4.590   2.811  0.4843 -0.3290  0.3763
   54MOL   H17647982   1.731   4.843   3.091  0.2929 -0.3952  0.8583
   54MOL   H17747983   1.574   4.666   3.129 -0.4103 -0.0760 -0.9801
   54MOL   H17847984   1.942   4.784   2.714  1.0066 -1.1305  1.1113
   54MOL   H17947985   2.108   4.976   2.642  1.5073  2.1954  0.3620
   54MOL   H18047986   2.150   5.072   3.062  2.3455  1.0045 -1.4297
   54MOL   H18147987   1.972   4.910   3.114 -1.2074 -1.4992 -0.8201
   54MOL   C18247988   2.198   5.264   2.811  0.8282 -0.3787 -0.1378
   54MOL   C18347989   2.297   5.354   2.842 -0.4316 -0.1240  0.0251
   54MOL   C18447990   2.261   5.491   2.861  0.2157 -0.7285 -0.5097
   54MOL   C18547991   2.126   5.531   2.833  0.2804 -0.8758 -0.3983
   54MOL   C18647992   2.026   5.435   2.799  0.0194  0.4551 -0.0701
   54MOL   C18747993   2.066   5.305   2.781  0.6554 -0.6197 -0.2862
   54MOL   S18847994   2.088   5.699   2.796 -0.0581 -0.1161  0.4311
   54MOL   O18947995   2.000   5.751   2.900  0.1771 -0.3249 -0.7203
   54MOL   O19047996   2.057   5.722   2.655 -0.1867 -0.4559 -0.4224
   54MOL   C19147997   2.246   5.787   2.802  0.4367  0.1409 -0.1720
   54MOL   C19247998   2.263   5.877   2.904  1.0901  1.5620  0.2484
   54MOL   C19347999   2.373   5.956   2.911 -0.2251  0.4090 -1.3003
   54MOL   C19448000   2.478   5.942   2.817  0.0873  0.8088  0.1025
   54MOL   C19548001   2.459   5.848   2.710  0.1191 -0.4743 -0.2062
   54MOL   C19648002   2.342   5.772   2.703  0.7685 -0.1499 -0.0120
   54MOL   O19748003   2.590   6.029   2.816  0.1189  0.4691  0.2962
   54MOL   C19848004   2.709   5.991   2.872 -0.5427  0.7418 -0.0860
   54MOL   C19948005   2.708   5.938   2.999 -0.6828  0.2244 -0.0553
   54MOL   C20048006   2.834   5.906   3.060 -0.2281 -0.1352  0.0624
   54MOL   C20148007   2.956   5.937   2.996 -0.5131  1.4175  0.8181
   54MOL   C20248008   2.953   5.991   2.863 -0.1458  0.2831 -0.2089
   54MOL   C20348009   2.827   6.011   2.802 -1.2883 -0.3316 -0.1825
   54MOL   C20448010   3.073   5.924   3.074  0.0384  0.2735  0.3045
   54MOL   C20548011   3.172   6.027   3.079  0.8663 -0.1197  0.2249
   54MOL   C20648012   3.284   6.016   3.164  0.2370 -0.1797 -0.5708
   54MOL   C20748013   3.307   5.899   3.243  0.7929  0.2172 -0.8170
   54MOL   C20848014   3.205   5.798   3.242 -0.3760  0.1241 -0.0419
   54MOL   C20948015   3.089   5.814   3.162  0.0739  0.0890 -0.5402
   54MOL   O21048016   3.404   5.891   3.335 -0.2010  0.7065 -0.3141
   54MOL   H21148017   2.400   5.323   2.844 -0.5427 -0.5016 -0.0807
   54MOL   H21248018   2.331   5.573   2.865 -1.1520  0.4267  0.8226
   54MOL   H21348019   1.925   5.466   2.774 -0.6583 -1.6776 -0.0523
   54MOL   H21448020   1.996   5.227   2.756  1.3073 -1.0717 -0.6973
   54MOL   H21548021   2.184   5.887   2.978  0.0017  0.5023 -0.7594
   54MOL   H21648022   2.377   6.019   2.998  2.9680 -0.4034 -0.7878
   54MOL   H21748023   2.531   5.834   2.631 -0.2414  0.9464 -0.8019
   54MOL   H21848024   2.332   5.703   2.621  0.5023  0.8850 -0.8572
   54MOL   H21948025   2.614   5.932   3.052 -0.3894 -0.1817  0.4279
   54MOL   H22048026   2.833   5.874   3.163 -1.9629 -1.4859 -0.3407
   54MOL   H22148027   3.040   6.026   2.809  1.7368  0.0109  2.5532
   54MOL   H22248028   2.820   6.056   2.704 -0.2373  1.0229  0.3438
   54MOL   H22348029   3.155   6.115   3.018 -0.6616 -0.3796  0.2578
   54MOL   H22448030   3.368   6.084   3.160  0.0888  0.1969  2.0700
   54MOL   H22548031   3.211   5.714   3.309  1.0502  1.2610  1.2896
   54MOL   H22648032   3.027   5.725   3.163 -2.1027  1.5535  3.2937
   54MOL   C22748033   3.405   5.988   3.431 -0.5065  0.6999  0.5630
   54MOL   C22848034   3.528   6.054   3.456  0.7645  0.3310 -0.1439
   54MOL   C22948035   3.536   6.153   3.556  0.3806  0.3673 -0.6436
   54MOL   C23048036   3.415   6.193   3.627 -0.2260  0.2508 -0.8648
   54MOL   C23148037   3.296   6.120   3.603 -0.1945 -0.4174 -0.7331
   54MOL   C23248038   3.289   6.023   3.508 -0.0356  0.6382 -0.3419
   54MOL   S23348039   3.412   6.319   3.762  0.2146  0.1124  0.4833
   54MOL   O23448040   3.426   6.257   3.897  0.2319 -0.1579  0.1426
   54MOL   O23548041   3.300   6.404   3.735 -0.4107 -0.0755  0.3332
   54MOL   C23648042   3.556   6.426   3.736  0.0304  0.0207 -0.0693
   54MOL   C23748043   3.565   6.537   3.649 -0.7059  0.3607 -0.3294
   54MOL   C23848044   3.682   6.612   3.632  0.5023 -0.6832 -0.0672
   54MOL   C23948045   3.802   6.569   3.694 -0.2807  0.9788  1.1328
   54MOL   C24048046   3.790   6.465   3.787  0.0046  0.4954  0.6713
   54MOL   C24148047   3.669   6.393   3.799  0.4370  0.0118 -1.0249
   54MOL   O24248048   3.925   6.624   3.653 -0.4707 -0.2216  0.2563
   54MOL   C24348049   3.922   6.752   3.610  0.1050 -0.1713  0.0901
   54MOL   C24448050   3.941   6.763   3.467 -0.2138 -0.2382 -0.4102
   54MOL   C24548051   3.924   6.886   3.408 -0.3246 -0.2361 -0.1792
   54MOL   C24648052   3.897   7.004   3.480  0.1210 -0.5229 -0.0474
   54MOL   C24748053   3.879   6.986   3.619 -0.1678 -0.6179  0.2291
   54MOL   C24848054   3.894   6.862   3.686  1.1222 -0.6669  0.4506
   54MOL   C24948055   3.864   7.128   3.413  0.5880 -0.3356  0.9099
   54MOL   C25048056   3.927   7.168   3.296 -0.4283  0.0944  0.2078
   54MOL   C25148057   3.890   7.284   3.225  0.4333  0.6776 -0.7041
   54MOL   C25248058   3.778   7.355   3.274 -0.7578  0.5598 -0.1413
   54MOL   C25348059   3.711   7.318   3.393 -0.3544 -0.4580  0.2824
   54MOL   C25448060   3.753   7.202   3.457  0.8917  0.5275  0.0495
   54MOL   O25548061   3.736   7.467   3.200  0.4694 -0.2176  0.2801
   54MOL   H25648062   3.620   6.022   3.409  0.5544  0.7544 -0.8528
   54MOL   H25748063   3.627   6.207   3.577  0.7429 -0.4030 -0.2243
   54MOL   H25848064   3.208   6.137   3.664  1.2454  1.4124  0.9072
   54MOL   H25948065   3.193   5.975   3.493  0.2965 -0.6252  1.4192
   54MOL   H26048066   3.471   6.578   3.613 -1.1099  0.3263  0.6594
   54MOL   H26148067   3.678   6.698   3.568  0.1801 -0.7352 -0.1168
   54MOL   H26248068   3.879   6.427   3.836 -0.6128 -1.8798 -0.0098
   54MOL   H26348069   3.670   6.308   3.865 -0.6191  0.2929 -0.6527
   54MOL   H26448070   3.950   6.675   3.406  0.6149 -1.0054  0.8044
   54MOL   H26548071   3.921   6.885   3.300  1.6220  1.4381 -0.2830
   54MOL   H26648072   3.851   7.074   3.675 -0.1623 -0.2270 -0.3849
   54MOL   H26748073   3.889   6.855   3.793  0.1732 -1.0524  0.3878
   54MOL   H26848074   4.011   7.110   3.262 -0.1596  1.6054 -1.8340
   54MOL   H26948075   3.933   7.309   3.128  0.2903  1.5443 -0.5549
   54MOL   H27048076   3.619   7.368   3.421 -2.1836 -2.5520 -1.7503
   54MOL   H27148077   3.697   7.175   3.545  1.1356 -0.4863 -0.1036
   54MOL   C27248078   3.649   7.456   3.097  0.9692  0.3309  0.5829
   54MOL   C27348079   3.517   7.462   3.130  0.1925 -0.9676  0.0629
   54MOL   C27448080   3.425   7.468   3.021  0.2657  0.1722 -0.3319
   54MOL   C27548081   3.460   7.462   2.888  0.3441  0.4552  0.4146
   54MOL   C27648082   3.599   7.447   2.862  0.2661  0.3419  0.4762
   54MOL   C27748083   3.693   7.447   2.964  0.3158 -0.0335 -0.6757
   54MOL   S27848084   3.339   7.439   2.755 -0.0100 -0.0557 -0.2517
   54MOL   O27948085   3.399   7.489   2.630  0.0456 -0.5087 -0.3774
   54MOL   O28048086   3.208   7.493   2.804  0.2313  0.9863  0.3015
   54MOL   C28148087   3.326   7.261   2.729 -0.0446 -0.0686 -0.2594
   54MOL   C28248088   3.292   7.176   2.838 -0.4620 -0.1173  0.0295
   54MOL   C28348089   3.255   7.040   2.811 -0.8452  0.2495  0.2898
   54MOL   C28448090   3.254   6.992   2.678  0.1621 -0.1770  1.0622
   54MOL   C28548091   3.305   7.076   2.574  0.3398 -0.2898 -0.5409
   54MOL   C28648092   3.336   7.212   2.597 -0.4721 -0.5618 -0.0230
   54MOL   O28748093   3.210   6.868   2.634 -0.4300  0.0591  0.0953
   54MOL   C28848094   3.080   6.843   2.670  0.0950 -0.5201 -0.0100
   54MOL   C28948095   3.054   6.775   2.791 -0.4602 -0.1519  0.3004
   54MOL   C29048096   2.915   6.776   2.837  1.2382 -0.6193 -0.0462
   54MOL   C29148097   2.809   6.825   2.749 -0.1650  0.3407  0.6392
   54MOL   C29248098   2.842   6.866   2.619 -0.3819 -0.7792  0.6650
   54MOL   C29348099   2.976   6.886   2.581 -0.1410  0.7584 -0.3039
   54MOL   C29448100   2.669   6.825   2.796 -0.3533  0.0305  0.5677
   54MOL   C29548101   2.628   6.743   2.901  0.1263 -0.0110 -0.0844
   54MOL   C29648102   2.500   6.757   2.958  0.0021 -0.1143 -0.5556
   54MOL   C29748103   2.404   6.844   2.910 -0.8688 -0.0807 -0.2660
   54MOL   C29848104   2.435   6.906   2.789  0.4306 -0.6809  0.5751
   54MOL   C29948105   2.563   6.894   2.727 -0.5528 -0.5255 -0.5962
   54MOL   O30048106   2.277   6.844   2.956  0.0618 -0.2923  0.5311
   54MOL   H30148107   3.485   7.468   3.233  3.0182 -2.1659  1.0390
   54MOL   H30248108   3.324   7.491   3.054  0.1685 -0.5064 -0.1504
   54MOL   H30348109   3.635   7.443   2.760  0.1805  1.1927  0.4114
   54MOL   H30448110   3.800   7.438   2.948  0.2317 -1.1661 -0.6962
   54MOL   H30548111   3.279   7.213   2.938  1.7512  0.9661 -0.0550
   54MOL   H30648112   3.224   6.972   2.890  1.3638 -0.5988  0.4607
   54MOL   H30748113   3.284   7.045   2.473 -1.7972 -0.5452 -0.0498
   54MOL   H30848114   3.350   7.281   2.515  0.3992  1.1975  1.5574
   54MOL   H30948115   3.144   6.738   2.839  0.6903  1.0786 -0.8691
   54MOL   H31048116   2.899   6.737   2.936 -1.5293  0.2888 -0.0859
   54MOL   H31148117   2.770   6.886   2.541 -0.8861 -0.3319  1.2420
   54MOL   H31248118   2.999   6.932   2.485 -2.4656 -0.6146 -1.5649
   54MOL   H31348119   2.691   6.666   2.943 -0.7830 -0.4454  0.4801
   54MOL   H31448120   2.475   6.707   3.051 -0.2415  0.1198 -0.4931
   54MOL   H31548121   2.352   6.964   2.752  1.7111  0.5872 -0.3824
   54MOL   H31648122   2.583   6.941   2.632  0.4249 -1.8382 -1.0521
   54MOL   C31748123   2.241   6.890   3.082  0.0093 -0.1451  0.4249
   54MOL   C31848124   2.121   6.857   3.130 -0.5709  0.6188  0.0108
   54MOL   C31948125   2.082   6.900   3.260 -0.4395 -0.5660  0.8610
   54MOL   C32048126   2.162   6.994   3.330  0.1188 -0.2220 -0.3313
   54MOL   C32148127   2.283   7.026   3.283 -0.0350 -0.6673 -0.5558
   54MOL   C32248128   2.327   6.972   3.158  0.4665  0.2373 -0.1705
   54MOL   S32348129   2.091   7.052   3.484  0.7508 -0.3872  0.5825
   54MOL   O32448130   1.949   7.097   3.455  0.3483 -0.5036  0.0931
   54MOL   O32548131   2.182   7.154   3.546  0.3460  0.1188  0.1145
   54MOL   C32648132   2.082   6.902   3.592 -0.7468 -0.3561 -0.1393
   54MOL   C32748133   1.983   6.893   3.689  0.2088 -0.6744 -0.0738
   54MOL   C32848134   1.981   6.774   3.771 -0.3150  0.6569 -0.5867
   54MOL   C32948135   2.085   6.677   3.767 -0.2829  0.0245 -0.6789
   54MOL   C33048136   2.183   6.682   3.667 -0.0646  0.5447  0.5813
   54MOL   C33148137   2.182   6.798   3.586 -0.5005  0.5783 -0.1728
   54MOL   O33248138   2.077   6.569   3.850 -0.4768 -0.4638 -0.2784
   54MOL   C33348139   2.060   6.586   3.985  0.4748  0.3793  0.3328
   54MOL   C33448140   1.961   6.503   4.054  0.5070 -0.0956 -0.0649
   54MOL   C33548141   1.943   6.513   4.192  0.5167 -0.3178  0.2629
   54MOL   C33648142   2.028   6.592   4.269  0.7323  0.0159 -0.2011
   54MOL   C33748143   2.126   6.671   4.201 -0.0704 -0.2732  0.2472
   54MOL   C33848144   2.140   6.675   4.061 -0.1139  0.4050 -0.1376
   54MOL   C33948145   2.000   6.606   4.416  0.3004 -0.4549 -0.6046
   54MOL   C34048146   1.875   6.573   4.477 -0.4078  0.1109 -0.4138
   54MOL   C34148147   1.869   6.568   4.616 -0.0818 -0.1667 -0.2328
   54MOL   C34248148   1.976   6.611   4.698 -0.8109 -0.1036 -0.2066
   54MOL   C34348149   2.096   6.657   4.646 -0.0870 -0.2435  0.0891
   54MOL   C34448150   2.107   6.650   4.504 -0.5846 -0.3200  0.1642
   54MOL   O34548151   1.969   6.614   4.836 -0.4079  0.4181  0.2264
   54MOL   H34648152   2.055   6.791   3.076  1.5064 -1.4179 -0.1549
   54MOL   H34748153   1.985   6.869   3.296 -0.6625 -4.1383 -2.4531
   54MOL   H34848154   2.353   7.087   3.339  1.4215 -0.8896 -2.0965
   54MOL   H34948155   2.429   6.993   3.130 -0.0989  2.5153 -0.6387
   54MOL   H35048156   1.908   6.970   3.697  0.0204 -0.8801  0.1759
   54MOL   H35148157   1.900   6.758   3.841 -0.1000  0.4496 -0.3888
   54MOL   H35248158   2.254   6.602   3.652  0.0884  0.3019  2.4682
   54MOL   H35348159   2.266   6.822   3.523  0.2566 -1.5037  0.0271
   54MOL   H35448160   1.907   6.428   3.998 -0.2858  1.2371 -1.1316
   54MOL   H35548161   1.863   6.450   4.228 -0.5654 -0.5890 -2.4879
   54MOL   H35648162   2.178   6.746   4.258 -3.1745  1.6543  0.6875
   54MOL   H35748163   2.226   6.725   4.018  0.9447 -1.5278 -0.3051
   54MOL   H35848164   1.790   6.543   4.418 -1.8758  0.0461  1.6659
   54MOL   H35948165   1.787   6.532   4.677 -1.4629  2.7257 -0.2542
   54MOL   H36048166   2.176   6.686   4.713  0.7638 -1.8757 -0.1918
   54MOL   H36148167   2.199   6.692   4.466 -0.5047 -0.4763  0.1817
   54MOL   C36248168   1.968   6.735   4.896  0.2711 -0.3833  0.3418
   54MOL   C36348169   1.859   6.821   4.901 -0.5684  0.0013 -0.0482
   54MOL   C36448170   1.879   6.948   4.962  0.1709 -0.3847  0.3530
   54MOL   C36548171   2.001   6.992   5.020  0.5148 -0.3876  0.5852
   54MOL   C36648172   2.115   6.912   5.003  0.2157  0.3255 -1.0774
   54MOL   C36748173   2.094   6.778   4.953 -0.2334  0.7111 -0.3439
   54MOL   S36848174   2.028   7.155   5.091  0.0656  0.7055  0.2308
   54MOL   O36948175   1.997   7.263   4.995  0.3367  0.0975  0.2880
   54MOL   O37048176   2.155   7.149   5.165  0.2093  0.4573 -0.3369
   54MOL   C37148177   1.901   7.155   5.220 -0.5467  0.4226  0.3117
   54MOL   C37248178   1.892   7.055   5.312 -0.8063 -0.1556  0.2887
   54MOL   C37348179   1.796   7.041   5.413 -0.3391 -0.2824  0.1755
   54MOL   C37448180   1.689   7.136   5.410  0.2983  0.1441 -0.1661
   54MOL   C37548181   1.691   7.239   5.313 -0.2110  0.6720 -0.0305
   54MOL   C37648182   1.801   7.253   5.227  0.7245  0.1736  0.1809
   54MOL   O37748183   1.582   7.132   5.498  0.3041  0.1338 -0.4020
   54MOL   C37848184   1.477   7.053   5.468 -0.5677 -0.4207 -0.1325
   54MOL   C37948185   1.357   7.112   5.448  0.2950  0.1325 -0.7586
   54MOL   C38048186   1.242   7.034   5.420 -0.5930  0.1184  0.2102
   54MOL   C38148187   1.248   6.895   5.403 -0.3367  0.7424  0.2633
   54MOL   C38248188   1.374   6.837   5.424 -0.0447  0.6130  0.0491
   54MOL   C38348189   1.489   6.911   5.457 -0.2502 -0.3325  0.7211
   54MOL   C38448190   1.133   6.820   5.344  0.1971  0.2774  0.6977
   54MOL   C38548191   1.158   6.725   5.246  0.6031  0.2997  0.3577
   54MOL   C38648192   1.057   6.644   5.185  0.6239  0.0071  0.0597
   54MOL   C38748193   0.925   6.674   5.222 -0.7225  0.4115 -0.1744
   54MOL   C38848194   0.892   6.773   5.320  0.4477 -0.7047 -0.1411
   54MOL   C38948195   1.001   6.842   5.381  0.2755  0.2793 -0.7124
   54MOL   O39048196   0.827   6.602   5.152  0.0228  0.4763 -0.3699
   54MOL   H39148197   1.760   6.795   4.867  0.1475 -1.3341 -1.1392
   54MOL   H39248198   1.798   7.018   4.960  0.3467 -0.0749  2.3069
   54MOL   H39348199   2.212   6.951   5.031  0.7882 -0.4286 -1.9806
   54MOL   H39448200   2.181   6.713   4.951 -1.4897 -1.0938  1.7382
   54MOL   H39548201   1.976   6.987   5.309 -1.2479 -0.8500  2.6717
   54MOL   H39648202   1.811   6.958   5.481 -0.7507  0.1248  0.7669
   54MOL   H39748203   1.615   7.315   5.303 -0.5305  0.1734 -1.6312
   54MOL   H39848204   1.805   7.336   5.157 -0.0135 -0.2233 -0.3297
   54MOL   H39948205   1.350   7.220   5.454 -0.2000 -0.0211  1.9339
   54MOL   H40048206   1.144   7.081   5.412 -0.6155 -0.3141 -2.6462
   54MOL   H40148207   1.389   6.733   5.396 -0.2027  0.9490 -1.2986
   54MOL   H40248208   1.590   6.873   5.458 -0.5520 -1.1325  2.0155
   54MOL   H40348209   1.259   6.693   5.224  0.4206  0.2581 -0.4068
   54MOL   H40448210   1.074   6.571   5.108 -1.2473  0.7012 -1.0665
   54MOL   H40548211   0.792   6.798   5.352  0.1956 -0.0710 -1.3861
   54MOL   H40648212   0.973   6.909   5.461 -1.4178  0.1785 -1.2005
   54MOL   C40748213   0.784   6.477   5.201 -0.0106 -0.6431  0.1378
   54MOL   C40848214   0.734   6.470   5.333  0.7289  0.9277  0.0298
   54MOL   C40948215   0.681   6.352   5.384 -0.7663  0.2124 -0.9994
   54MOL   C41048216   0.674   6.239   5.305  0.2981 -0.1621 -0.6346
   54MOL   C41148217   0.730   6.238   5.172  0.1172 -0.8556  0.5878
   54MOL   C41248218   0.783   6.359   5.121  0.5767  0.6424  0.8887
   54MOL   S41348219   0.593   6.101   5.365  0.1189 -0.0378 -0.0293
   54MOL   O41448220   0.451   6.111   5.333 -0.0936 -0.0053  0.0692
   54MOL   O41548221   0.635   6.091   5.509  0.0503 -0.1347 -0.1679
   54MOL   C41648222   0.671   5.956   5.289 -0.1656  0.0703  1.0041
   54MOL   C41748223   0.779   5.892   5.357  0.1285  0.3824 -0.0349
   54MOL   C41848224   0.847   5.789   5.299  0.5033 -0.1834 -0.3652
   54MOL   C41948225   0.809   5.737   5.173 -0.0340 -0.3873 -0.0308
   54MOL   C42048226   0.690   5.788   5.107 -1.0946  0.0203 -0.4191
   54MOL   C42148227   0.623   5.900   5.165  0.2064 -0.7329  0.0990
   54MOL   O42248228   0.890   5.639   5.120 -0.1139 -0.0697 -0.2248
   54MOL   C42348229   0.984   5.685   5.032  0.0011 -0.0089  0.6429
   54MOL   C42448230   1.107   5.750   5.073 -0.4019  0.0289 -0.5118
   54MOL   C42548231   1.207   5.778   4.981  0.6161 -0.3927  0.0479
   54MOL   C42648232   1.194   5.742   4.841 -0.7920 -0.2832 -0.1541
   54MOL   C42748233   1.074   5.684   4.804 -0.2144  0.2106  0.2333
   54MOL   C42848234   0.970   5.662   4.897  0.0046  0.0467  0.1227
   54MOL   C42948235   1.305   5.733   4.748 -0.3793 -0.5940 -0.4999
   54MOL   C43048236   1.287   5.748   4.614 -0.2706  0.2484 -0.6122
   54MOL   C43148237   1.396   5.743   4.523  0.4395 -0.5142  0.1095
   54MOL   C43248238   1.524   5.706   4.565 -0.3886  0.6646  0.3429
   54MOL   C43348239   1.542   5.678   4.699 -0.2038 -0.4153  0.1831
   54MOL   C43448240   1.435   5.692   4.791  0.1748  0.5137  0.8898
   54MOL   O43548241   1.628   5.687   4.474  0.1074  0.0473 -0.6211
   54MOL   H43648242   0.728   6.563   5.388 -0.1620  1.2391 -0.5776
   54MOL   H43748243   0.620   6.359   5.473  1.2564 -0.3663  0.4703
   54MOL   H43848244   0.734   6.148   5.112 -0.3234 -1.1000  0.9222
   54MOL   H43948245   0.813   6.369   5.018  0.4007 -0.5877  0.7076
   54MOL   H44048246   0.811   5.924   5.455 -3.2663  0.6618  1.0392
   54MOL   H44148247   0.935   5.759   5.355 -0.4780  1.1515  1.9519
   54MOL   H44248248   0.666   5.745   5.011  1.6181  0.7162 -1.4397
   54MOL   H44348249   0.541   5.947   5.114  1.9625  3.2780  0.7937
   54MOL   H44448250   1.121   5.766   5.179 -1.0797  0.9707 -0.5618
   54MOL   H44548251   1.302   5.802   5.025  0.2320  1.8407 -0.2472
   54MOL   H44648252   1.059   5.652   4.702  1.1475 -0.1336  0.1341
   54MOL   H44748253   0.888   5.606   4.855 -0.1397  1.4730 -1.5871
   54MOL   H44848254   1.188   5.761   4.576 -0.6895  1.0959  0.7276
   54MOL   H44948255   1.371   5.748   4.418  1.1430 -0.5989 -0.0665
   54MOL   H45048256   1.638   5.655   4.743  0.1233  2.6644  1.2061
   54MOL   H45148257   1.451   5.678   4.897 -0.1148 -1.4030  0.6986
   54MOL   C45248258   1.703   5.794   4.458 -0.2896  0.0007  0.0087
   54MOL   C45348259   1.832   5.813   4.518 -0.4025 -0.4538  0.8268
   54MOL   C45448260   1.905   5.931   4.486 -0.3691 -0.4412 -0.3264
   54MOL   C45548261   1.856   6.025   4.394  0.2024 -0.1233 -0.2312
   54MOL   C45648262   1.731   6.003   4.337 -0.5835 -0.7281 -0.4896
   54MOL   C45748263   1.652   5.890   4.372 -0.2885 -0.1944  1.0948
   54MOL   S45848264   1.943   6.185   4.354 -0.0635 -0.3990 -0.0381
   54MOL   O45948265   1.882   6.291   4.430 -0.3216  0.4093 -0.1209
   54MOL   O46048266   1.930   6.193   4.208  0.8051  0.3574  0.6486
   54MOL   C46148267   2.118   6.177   4.383 -0.2133  0.6363 -0.7327
   54MOL   C46248268   2.202   6.123   4.279 -0.4568  0.6170 -0.3461
   54MOL   C46348269   2.341   6.135   4.300 -0.1465 -0.1377 -0.3956
   54MOL   C46448270   2.397   6.185   4.421 -0.5504 -0.2347  0.3030
   54MOL   C46548271   2.310   6.231   4.519  0.3607  0.1685 -0.2351
   54MOL   C46648272   2.168   6.237   4.500 -0.8549  0.2385 -0.2743
   54MOL   O46748273   2.533   6.195   4.431 -0.3301  0.7480  0.5527
   54MOL   C46848274   2.596   6.197   4.551  0.4415 -0.2341 -0.1513
   54MOL   C46948275   2.601   6.094   4.640 -0.6013  0.4937  0.2809
   54MOL   C47048276   2.669   6.105   4.759  0.4966  0.0647  0.0984
   54MOL   C47148277   2.747   6.216   4.792  0.2253  0.9795 -0.4307
   54MOL   C47248278   2.759   6.313   4.692  0.2322 -0.4529 -0.1960
   54MOL   C47348279   2.682   6.304   4.579 -0.4158  0.2828 -0.5000
   54MOL   C47448280   2.826   6.217   4.918 -0.6826 -0.0958  0.3973
   54MOL   C47548281   2.966   6.250   4.917  0.1273  1.4931  0.0654
   54MOL   C47648282   3.047   6.239   5.032  0.3932 -0.1412 -0.2182
   54MOL   C47748283   2.993   6.189   5.150 -0.0596 -0.3582 -0.1906
   54MOL   C47848284   2.857   6.155   5.156 -0.1213  0.4295 -0.9954
   54MOL   C47948285   2.779   6.173   5.040  0.1765 -0.4354 -0.7479
   54MOL   O48048286   3.073   6.160   5.262 -0.1215  0.9784  0.2203
   54MOL   H48148287   1.874   5.730   4.573 -0.9777 -0.3962  1.3531
   54MOL   H48248288   1.996   5.936   4.543 -1.2179  1.3222  0.9449
   54MOL   H48348289   1.692   6.074   4.266 -1.6057  0.1960  0.9605
   54MOL   H48448290   1.554   5.884   4.328 -0.5228  0.9915  1.4430
   54MOL   H48548291   2.156   6.110   4.182  0.4847 -1.6678 -0.5168
   54MOL   H48648292   2.412   6.096   4.229  0.9856  0.4660  0.3786
   54MOL   H48748293   2.348   6.272   4.611 -0.7825 -0.6977  0.6390
   54MOL   H48848294   2.116   6.282   4.583 -0.5976 -1.6321  0.9313
   54MOL   H48948295   2.549   6.001   4.624 -1.1475  0.6108  1.3973
   54MOL   H49048296   2.659   6.020   4.825 -0.0861  0.6024  0.7068
   54MOL   H49148297   2.824   6.398   4.707 -0.5757  0.3348 -1.2031
   54MOL   H49248298   2.695   6.386   4.509  3.9930  0.2147  0.1491
   54MOL   H49348299   3.011   6.271   4.821 -1.3404 -1.4511 -1.3255
   54MOL   H49448300   3.151   6.267   5.025 -0.0116  2.2914  2.5686
   54MOL   H49548301   2.811   6.121   5.248  0.3300 -0.7840 -1.2198
   54MOL   H49648302   2.674   6.145   5.044  0.2048 -0.8633 -2.6154
   54MOL   C49748303   3.157   6.261   5.302  0.7244  0.1238 -0.3437
   54MOL   C49848304   3.283   6.221   5.352 -0.1759  0.2148 -0.0608
   54MOL   C49948305   3.375   6.313   5.400  0.1829 -0.6224  0.2634
   54MOL   C50048306   3.350   6.452   5.403  0.1810 -0.5990 -0.6163
   54MOL   C50148307   3.217   6.487   5.365  0.6648 -0.8534 -0.3267
   54MOL   C50248308   3.124   6.400   5.309  0.2962 -0.0353 -1.2379
   54MOL   S50348309   3.466   6.579   5.455 -0.1291  0.0096 -0.1842
   54MOL   O50448310   3.600   6.519   5.450  0.1760 -0.0615 -0.5471
   54MOL   O50548311   3.421   6.639   5.579  0.0857  0.3450 -0.4885
   54MOL   C50648312   3.457   6.698   5.322  0.1892  0.2164 -0.8157
   54MOL   C50748313   3.451   6.643   5.195 -0.5127  0.4525 -0.6406
   54MOL   C50848314   3.446   6.727   5.080  0.6408 -0.4685  0.0961
   54MOL   C50948315   3.446   6.868   5.097 -0.4148  0.6477  0.0181
   54MOL   C51048316   3.439   6.924   5.231  0.0108  0.4061  1.0673
   54MOL   C51148317   3.452   6.839   5.341  0.3360 -0.1511 -0.6307
   54MOL   O51248318   3.456   6.952   4.990  0.0635  0.2532  0.0496
   54MOL   C51348319   3.345   6.969   4.910  0.6521  0.0306 -0.1499
   54MOL   C51448320   3.356   6.923   4.780  0.3032 -0.1788  0.3530
   54MOL   C51548321   3.245   6.943   4.696 -0.0582 -0.4126 -0.3254
   54MOL   C51648322   3.127   7.002   4.739  0.1568  0.2975 -0.1955
   54MOL   C51748323   3.114   7.044   4.875  0.3211  0.4307  0.7909
   54MOL   C51848324   3.220   7.011   4.962  0.3032 -0.5293  0.4117
   54MOL   C51948325   3.021   7.018   4.634 -0.0830 -0.1998 -1.1302
   54MOL   C52048326   3.000   6.914   4.538 -0.3101  0.1826  0.1050
   54MOL   C52148327   2.915   6.931   4.428 -0.2136  0.5430 -0.4474
   54MOL   C52248328   2.832   7.041   4.413  0.7688 -0.6567 -0.0912
   54MOL   C52348329   2.848   7.148   4.512  0.2102 -0.1185  0.3969
   54MOL   C52448330   2.937   7.134   4.624 -0.2567 -0.0295 -0.4739
   54MOL   O52548331   2.754   7.056   4.301  0.3595 -0.0991 -0.2678
   54MOL   H52648332   3.298   6.115   5.345  3.1145  0.4590  2.0554
   54MOL   H52748333   3.469   6.279   5.440 -0.1065 -1.9798 -0.1500
   54MOL   H52848334   3.188   6.589   5.343  0.5057 -1.1716 -1.5904
   54MOL   H52948335   3.030   6.437   5.269  0.3336  1.5644  0.1047
   54MOL   H53048336   3.461   6.537   5.177  0.1790  0.3870  0.1047
   54MOL   H53148337   3.443   6.686   4.980 -1.8590  2.2335 -1.0088
   54MOL   H53248338   3.439   7.032   5.243  1.4760  0.4779  0.4478
   54MOL   H53348339   3.447   6.875   5.442  3.4922 -2.0704  0.2787
   54MOL   H53448340   3.452   6.888   4.745  0.9148  1.7368  0.0518
   54MOL   H53548341   3.257   6.914   4.592 -2.9763  2.3428 -1.5158
   54MOL   H53648342   3.029   7.094   4.918 -0.5252  2.7878 -3.3198
   54MOL   H53748343   3.207   7.035   5.066  1.3341 -1.0509  0.6674
   54MOL   H53848344   3.055   6.823   4.551 -1.0547  0.2758  4.5079
   54MOL   H53948345   2.908   6.846   4.362 -2.9529 -0.0981  0.6109
   54MOL   H54048346   2.793   7.241   4.502 -0.8809 -0.9008 -1.0788
   54MOL   H54148347   2.949   7.216   4.693 -0.9823  1.0913 -1.6444
   54MOL   C54248348   2.806   7.027   4.174  0.3908  0.6128  0.2214
   54MOL   C54348349   2.742   6.938   4.087 -0.2167  0.3251  0.6639
   54MOL   C54448350   2.811   6.899   3.969  1.2140  0.1320  1.0400
   54MOL   C54548351   2.938   6.957   3.936 -0.5601  0.8546  0.2596
   54MOL   C54648352   2.997   7.051   4.021 -0.0425 -0.3744  0.3155
   54MOL   C54748353   2.928   7.083   4.141  0.8113 -0.4439  0.5895
   54MOL   S54848354   3.037   6.890   3.804  0.3366 -0.0393  0.2029
   54MOL   O54948355   3.111   7.004   3.736  0.2096 -0.4952  0.0293
   54MOL   O55048356   2.949   6.799   3.730  0.0320  0.2446  0.1837
   54MOL   C55148357   3.163   6.802   3.891 -0.1547  0.4658  0.1524
   54MOL   C55248358   3.130   6.730   4.014 -0.3650  0.4475 -0.5009
   54MOL   C55348359   3.223   6.681   4.104 -0.5841  0.5444 -0.5320
   54MOL   C55448360   3.363   6.694   4.075  0.8892  0.6109  0.1240
   54MOL   C55548361   3.394   6.758   3.948 -0.2499  0.0646 -0.7906
   54MOL   C55648362   3.299   6.812   3.860 -0.2295 -0.1665 -0.8782
   54MOL   O55748363   3.449   6.659   4.174  0.0433 -0.1115 -0.4311
   54MOL   C55848364   3.579   6.712   4.171 -1.0546  0.5291 -0.0601
   54MOL   C55948365   3.678   6.646   4.097 -0.5691  0.2483  0.4442
   54MOL   C56048366   3.804   6.710   4.084  0.7800  0.1433  0.0629
   54MOL   C56148367   3.832   6.830   4.149 -0.1031  0.4258  0.1673
   54MOL   C56248368   3.741   6.885   4.244 -0.0979 -0.1885  0.0123
   54MOL   C56348369   3.616   6.821   4.250 -0.3909  0.1957  0.2488
   54MOL   C56448370   3.961   6.892   4.134  0.2055  0.0637 -0.8273
   54MOL   C56548371   3.960   7.017   4.065 -0.1759  0.3706 -0.7812
   54MOL   C56648372   4.082   7.079   4.021  0.4745  0.3084  0.2021
   54MOL   C56748373   4.204   7.010   4.047  0.1083 -0.7126 -0.6781
   54MOL   C56848374   4.202   6.890   4.129  0.7168 -0.2209  0.3717
   54MOL   C56948375   4.081   6.829   4.164 -0.3863  0.0914 -0.7945
   54MOL   O57048376   4.320   7.049   3.982  0.3988  0.2294 -0.0938
   54MOL   H57148377   2.649   6.899   4.126 -0.4732  0.3205  0.0547
   54MOL   H57248378   2.762   6.825   3.908  0.6470  2.6021 -1.5966
   54MOL   H57348379   3.091   7.096   3.994  0.2057 -1.4313 -0.5632
   54MOL   H57448380   2.970   7.160   4.204  1.9094  1.6343 -2.6023
   54MOL   H57548381   3.025   6.704   4.022  0.1011 -1.6207 -0.6898
   54MOL   H57648382   3.195   6.621   4.189  1.7030 -0.0098 -0.1361
   54MOL   H57748383   3.498   6.777   3.926 -0.4572  0.6072 -1.2789
   54MOL   H57848384   3.336   6.853   3.767  0.0673 -2.4587 -1.8023
   54MOL   H57948385   3.641   6.548   4.068  2.1791 -0.2488 -1.5686
   54MOL   H58048386   3.875   6.658   4.021 -0.5621 -1.3145 -0.2986
   54MOL   H58148387   3.763   6.976   4.298  1.7050 -0.8917  0.4837
   54MOL   H58248388   3.545   6.863   4.320  0.1326 -0.5660  1.2468
   54MOL   H58348389   3.865   7.054   4.030 -0.9847 -0.7022  0.2258
   54MOL   H58448390   4.086   7.163   3.954 -1.0333  0.5409  0.3984
   54MOL   H58548391   4.293   6.833   4.141  0.7581 -0.3148 -0.3594
   54MOL   H58648392   4.076   6.728   4.203 -0.0988  1.1685  2.1150
   54MOL   C58748393   4.324   7.003   3.850 -0.1729 -0.1297  0.5170
   54MOL   C58848394   4.266   7.076   3.742  0.1519 -0.1984 -0.2910
   54MOL   C58948395   4.258   7.022   3.615 -0.2845 -0.6320  0.8430
   54MOL   C59048396   4.307   6.897   3.593 -0.4689 -0.3512 -0.3338
   54MOL   C59148397   4.359   6.821   3.699  0.2967  0.1274  0.0206
   54MOL   C59248398   4.373   6.874   3.829  0.4354  0.0959  0.1492
   54MOL   S59348399   4.300   6.829   3.420  0.2880  0.1498 -0.1295
   54MOL   O59448400   4.233   6.929   3.337  0.2698  0.1503 -0.6340
   54MOL   O59548401   4.249   6.691   3.434 -0.0459 -0.1196  0.1127
   54MOL   C59648402   4.467   6.831   3.366  0.1904  0.8246  0.2351
   54MOL   C59748403   4.539   6.707   3.362  1.1819 -0.2984  0.0510
   54MOL   C59848404   4.674   6.714   3.331 -0.1237 -0.3628  0.4630
   54MOL   C59948405   4.743   6.834   3.294 -0.2762 -0.4855 -0.9434
   54MOL   C60048406   4.669   6.958   3.295  0.2466  0.0393 -0.0722
   54MOL   C60148407   4.532   6.950   3.337 -0.1793 -0.4897  0.5012
   54MOL   O60248408   4.875   6.842   3.272  0.3091  0.4676  0.2058
   54MOL   C60348409   4.944   6.732   3.218 -0.1378  1.0367 -0.4041
   54MOL   C60448410   4.921   6.686   3.089 -0.4743 -0.2919  0.1906
   54MOL   C60548411   4.995   6.572   3.038  0.6961  1.5180  0.4380
   54MOL   C60648412   5.085   6.499   3.117  0.0188  0.0674  0.0906
   54MOL   C60748413   5.108   6.550   3.247  0.0966 -0.8858  0.2198
   54MOL   C60848414   5.046   6.670   3.294  0.3275 -0.3758 -0.0685
   54MOL   C60948415   5.163   6.383   3.064  0.3743  0.0368 -0.0621
   54MOL   C61048416   5.293   6.349   3.111 -0.5002 -0.1861  0.1939
   54MOL   C61148417   5.352   6.224   3.075 -0.3565 -0.7712  0.2413
   54MOL   C61248418   5.285   6.141   2.981  0.1802  0.2515  0.2875
   54MOL   C61348419   5.154   6.177   2.935 -0.9523  0.4587  0.1682
   54MOL   C61448420   5.094   6.297   2.979 -0.3767 -0.1356  0.4617
   54MOL   O61548421   5.333   6.014   2.957  0.0964 -0.1828 -0.0123
   54MOL   H61648422   4.224   7.174   3.761 -0.3069 -0.2907 -0.8156
   54MOL   H61748423   4.209   7.076   3.535  0.9833 -0.2900  0.2788
   54MOL   H61848424   4.386   6.721   3.671  4.1280  0.1494  3.1385
   54MOL   H61948425   4.414   6.815   3.910 -2.3902  1.1982  2.4304
   54MOL   H62048426   4.502   6.608   3.388  0.0282  0.3552  0.9489
   54MOL   H62148427   4.729   6.621   3.329  1.2022  0.3862  1.7757
   54MOL   H62248428   4.720   7.049   3.268  0.4924 -0.2856 -0.7322
   54MOL   H62348429   4.477   7.040   3.359  0.9325  0.1862  0.5565
   54MOL   H62448430   4.847   6.740   3.032 -1.3656  0.8252  2.3652
   54MOL   H62548431   4.988   6.545   2.934  0.3428 -1.8724  1.2586
   54MOL   H62648432   5.185   6.505   3.308  0.0832  1.1266  1.7900
   54MOL   H62748433   5.074   6.715   3.388  1.7185  3.6573 -2.2877
   54MOL   H62848434   5.344   6.411   3.183 -2.0264  1.4193 -0.0688
   54MOL   H62948435   5.441   6.190   3.126  1.4423  0.4832 -1.9886
   54MOL   H63048436   5.114   6.121   2.852 -0.4184 -0.5208  0.5596
   54MOL   H63148437   4.994   6.326   2.950 -0.4555 -0.4763  0.3809
   54MOL   C63248438   5.318   5.956   2.837 -0.4145 -0.2854 -0.0856
   54MOL   C63348439   5.429   5.973   2.745 -0.5946 -0.0644 -0.3596
   54MOL   C63448440   5.423   5.909   2.619 -0.0122  0.0841  0.0533
   54MOL   C63548441   5.311   5.833   2.574 -0.5338  0.9721  0.1985
   54MOL   C63648442   5.206   5.812   2.664  0.5749 -0.7640  0.4376
   54MOL   C63748443   5.207   5.880   2.791 -0.6036  0.6398 -0.6479
   54MOL   S63848444   5.294   5.779   2.404 -0.3454 -0.0245  0.6230
   54MOL   O63948445   5.200   5.672   2.402  0.7412 -0.5946 -0.6746
   54MOL   O64048446   5.429   5.752   2.350 -0.1301  0.3463  0.3714
   54MOL   C64148447   5.235   5.912   2.318  0.0439 -0.6367  0.0638
   54MOL   C64248448   5.098   5.942   2.304  0.5439  0.2573  0.1624
   54MOL   C64348449   5.058   6.064   2.237  0.0103 -0.1078 -0.6240
   54MOL   C64448450   5.153   6.146   2.175 -1.1405  0.2681  0.8644
   54MOL   C64548451   5.292   6.105   2.187  0.5058 -0.6234 -0.2183
   54MOL   C64648452   5.329   5.994   2.259 -0.3148 -0.3944 -0.0162
   54MOL   O64748453   5.112   6.266   2.123  0.0434  0.1309  0.2598
   54MOL   C64848454   5.198   6.372   2.144  0.5284  0.7122 -0.0718
   54MOL   C64948455   5.243   6.411   2.271 -0.5627  0.1580  1.1286
   54MOL   C65048456   5.325   6.522   2.282 -0.1194  0.5673  0.4212
   54MOL   C65148457   5.364   6.601   2.166  0.4710  0.3182 -0.2071
   54MOL   C65248458   5.315   6.564   2.039  0.4817  0.2379  0.1673
   54MOL   C65348459   5.235   6.446   2.028  0.6164  0.3530  0.0342
   54MOL   C65448460   5.461   6.710   2.171 -0.5221 -0.1065 -0.1210
   54MOL   C65548461   5.591   6.688   2.214 -0.5088  0.8081  0.0161
   54MOL   C65648462   5.685   6.787   2.201 -0.1355  0.2247  0.0110
   54MOL   C65748463   5.649   6.916   2.143 -0.6492  0.3316 -0.1378
   54MOL   C65848464   5.518   6.936   2.103  0.1583 -0.1446 -0.1099
   54MOL   C65948465   5.424   6.836   2.117  0.5372 -0.4043 -0.9049
   54MOL   O66048466   5.742   7.016   2.136  0.1992  0.0250  0.4550
   54MOL   H66148467   5.521   6.020   2.776 -0.7603 -0.7201  1.1844
   54MOL   H66248468   5.500   5.936   2.549  0.0620 -0.6687 -0.1556
   54MOL   H66348469   5.126   5.750   2.628 -0.3037  0.4150  0.3228
   54MOL   H66448470   5.121   5.875   2.857 -0.9638  3.0452 -0.8690
   54MOL   H66548471   5.022   5.881   2.351  1.1671 -0.0935  0.7066
   54MOL   H66648472   4.951   6.075   2.244  0.2925  0.9594  2.9306
   54MOL   H66748473   5.372   6.162   2.143 -0.7192  1.3096 -0.0191
   54MOL   H66848474   5.436   5.986   2.272 -0.4761  0.2720  1.8878
   54MOL   H66948475   5.243   6.336   2.349 -0.7514 -0.0692  0.9110
   54MOL   H67048476   5.377   6.535   2.375  1.3273 -0.0514 -0.2792
   54MOL   H67148477   5.351   6.628   1.959  1.4483  0.1727  0.5449
   54MOL   H67248478   5.200   6.412   1.931  1.1674 -0.1994  0.0241
   54MOL   H67348479   5.627   6.593   2.251  0.1943  1.2630  0.5349
   54MOL   H67448480   5.787   6.770   2.234 -0.6416 -0.8554  1.0510
   54MOL   H67548481   5.493   7.036   2.069  0.8621  0.2982  0.6565
   54MOL   H67648482   5.324   6.859   2.086 -0.0270 -0.5322  0.7797
   54MOL   C67748483   5.762   7.098   2.241  0.0523 -0.2237 -0.1306
   54MOL   C67848484   5.781   7.233   2.214  0.1362  0.2182 -0.1934
   54MOL   C67948485   5.813   7.317   2.317 -0.7234 -0.0882 -0.5453
   54MOL   C68048486   5.826   7.273   2.450 -0.1040 -0.4292 -0.2911
   54MOL   C68148487   5.818   7.131   2.481 -0.6266  0.2401 -0.2349
   54MOL   C68248488   5.792   7.044   2.373  0.6366  0.3603  0.5443
   54MOL   S68348489   5.869   7.390   2.579 -0.3265 -0.2061 -0.1563
   54MOL   O68448490   5.803   7.514   2.545 -0.4644  0.3626 -0.3763
   54MOL   O68548491   6.017   7.386   2.590  0.4389  0.3771  0.2982
   54MOL   C68648492   5.801   7.341   2.739  1.0010 -0.6413 -0.7297
   54MOL   C68748493   5.875   7.295   2.849  0.6859  0.3585  0.1756
   54MOL   C68848494   5.810   7.253   2.970 -0.1257  0.1492 -0.3648
   54MOL   C68948495   5.670   7.271   2.980 -0.0135 -0.0049  0.2147
   54MOL   C69048496   5.600   7.338   2.878  0.7306 -0.8832 -0.0431
   54MOL   C69148497   5.660   7.356   2.749  0.8123 -0.5430  0.3003
   54MOL   O69248498   5.602   7.250   3.102  0.1666 -0.2172  0.4866
   54MOL   C69348499   5.560   7.125   3.150  0.1492  0.5671 -0.1769
   54MOL   C69448500   5.443   7.121   3.230 -0.5105 -0.2473 -0.5565
   54MOL   C69548501   5.407   7.000   3.294  0.4990  0.2491 -0.0884
   54MOL   C69648502   5.480   6.880   3.278  0.0499 -0.0543  0.1848
   54MOL   C69748503   5.581   6.880   3.182  0.1733  0.0173  0.2887
   54MOL   C69848504   5.618   7.003   3.113  0.7287 -0.2540  0.3107
   54MOL   C69948505   5.442   6.761   3.354 -0.3343 -0.1003  0.2104
   54MOL   C70048506   5.491   6.636   3.308  0.1687  0.2431  0.0003
   54MOL   C70148507   5.469   6.513   3.377 -0.5559  0.1889  0.5507
   54MOL   C70248508   5.390   6.517   3.489  0.3879 -0.9026 -0.3393
   54MOL   C70348509   5.340   6.638   3.534  0.5961  0.3472  0.1648
   54MOL   C70448510   5.369   6.762   3.475 -0.2901 -0.3440  0.5327
   54MOL   O70548511   5.351   6.396   3.549 -0.5401  0.3572  0.7763
   54MOL   H70648512   5.785   7.260   2.110  0.4272  1.1488  0.0530
   54MOL   H70748513   5.818   7.420   2.286  3.4702 -0.0658  0.0498
   54MOL   H70848514   5.831   7.081   2.576 -0.5109  0.6407 -0.0402
   54MOL   H70948515   5.797   6.936   2.385  2.5110  0.2669 -0.7650
   54MOL   H71048516   5.982   7.304   2.838  0.6977 -0.7047 -0.6992
   54MOL   H71148517   5.872   7.218   3.051  0.7112  0.9652 -0.6454
   54MOL   H71248518   5.500   7.371   2.901  1.3874  1.4329 -0.3548
   54MOL   H71348519   5.605   7.403   2.669  0.2249 -1.6156  0.0654
   54MOL   H71448520   5.393   7.213   3.258 -1.1087 -0.9005  0.5653
   54MOL   H71548521   5.326   7.002   3.366  1.4415  0.2139  0.9866
   54MOL   H71648522   5.637   6.790   3.159  3.2854  1.7680  0.8509
   54MOL   H71748523   5.700   7.006   3.042  0.8109 -2.3453  0.2783
   54MOL   H71848524   5.539   6.626   3.212  0.5247 -0.7181  0.2698
   54MOL   H71948525   5.510   6.424   3.332  0.3173  0.3340  1.0352
   54MOL   H72048526   5.286   6.635   3.627  0.0648 -0.2740 -0.1570
   54MOL   H72148527   5.330   6.854   3.516 -0.1219 -0.0484  0.0166
   54MOL   C72248528   5.361   6.379   3.685  0.0510  0.3089 -0.2806
   54MOL   C72348529   5.242   6.342   3.751 -0.3027 -0.8314 -0.8149
   54MOL   C72448530   5.249   6.322   3.886 -0.3881 -0.3826  0.1371
   54MOL   C72548531   5.368   6.337   3.961 -0.2516 -0.4695  0.0068
   54MOL   C72648532   5.486   6.378   3.894 -0.4846 -0.4412  0.1165
   54MOL   C72748533   5.484   6.393   3.752  0.8063 -0.0028  0.6646
   54MOL   S72848534   5.358   6.325   4.140 -0.2751 -0.1067  0.3007
   54MOL   O72948535   5.490   6.287   4.192 -0.2776 -0.0964 -0.3928
   54MOL   O73048536   5.242   6.237   4.171  0.0726 -0.1808 -0.3334
   54MOL   C73148537   5.322   6.490   4.194 -0.5179  0.4095  0.5984
   54MOL   C73248538   5.336   6.605   4.112  0.0787  0.3488 -0.1605
   54MOL   C73348539   5.323   6.737   4.168 -0.4951 -0.4108 -0.1071
   54MOL   C73448540   5.288   6.751   4.304  0.0632 -0.1394 -0.5234
   54MOL   C73548541   5.270   6.636   4.385  0.5751  0.4290  0.5055
   54MOL   C73648542   5.295   6.506   4.330 -0.1456 -0.8411  0.0814
   54MOL   O73748543   5.259   6.880   4.348  0.3329  0.1662 -0.1017
   54MOL   C73848544   5.239   6.905   4.480  0.1322  0.0857 -0.3376
   54MOL   C73948545   5.107   6.905   4.528  0.4513 -0.0339  0.3247
   54MOL   C74048546   5.069   6.936   4.661 -0.5375  0.4324 -0.1619
   54MOL   C74148547   5.173   6.959   4.758  0.1116 -0.1815 -0.3542
   54MOL   C74248548   5.311   6.951   4.714 -0.1432 -0.2485 -0.2140
   54MOL   C74348549   5.343   6.928   4.578 -0.3941 -0.0325 -0.3169
   54MOL   C74448550   5.138   6.980   4.895 -0.6720  0.3515  0.1570
   54MOL   C74548551   5.191   6.890   4.990  0.1413  0.3746  0.3971
   54MOL   C74648552   5.144   6.894   5.126 -0.0063 -0.1244 -0.1587
   54MOL   C74748553   5.061   6.999   5.168  0.3772 -0.1598  0.0269
   54MOL   C74848554   5.020   7.092   5.070 -1.0949 -0.3302  0.1408
   54MOL   C74948555   5.056   7.086   4.940  0.0030  0.3424  0.3853
   54MOL   O75048556   5.028   7.017   5.297 -0.5417 -0.2011 -0.3629
   54MOL   H75148557   5.153   6.320   3.693 -1.1836  1.6407 -0.4808
   54MOL   H75248558   5.158   6.299   3.940  0.3878 -0.7055  1.3307
   54MOL   H75348559   5.575   6.392   3.955  0.4102 -1.4218 -0.9413
   54MOL   H75448560   5.574   6.418   3.697 -1.5649  0.5369 -3.1344
   54MOL   H75548561   5.356   6.589   4.007 -0.2711  0.4477 -0.2411
   54MOL   H75648562   5.326   6.828   4.109  0.3011  0.2597  0.9439
   54MOL   H75748563   5.239   6.641   4.488 -1.2427 -2.1544  0.1349
   54MOL   H75848564   5.301   6.416   4.390 -0.5339 -1.9559 -1.4979
   54MOL   H75948565   5.032   6.885   4.453 -1.0056  0.2447  1.6781
   54MOL   H76048566   4.966   6.935   4.692 -0.9248  0.7072 -1.4345
   54MOL   H76148567   5.387   6.966   4.789 -2.8711 -0.9305  2.8237
   54MOL   H76248568   5.447   6.920   4.552 -0.2645  0.3112  0.0844
   54MOL   H76348569   5.249   6.805   4.957 -1.9865 -1.8893  2.3111
   54MOL   H76448570   5.169   6.815   5.196  0.5346  0.1113 -0.0863
   54MOL   H76548571   4.971   7.185   5.092 -0.9446 -0.3800  0.6977
   54MOL   H76648572   5.030   7.160   4.865  0.6572 -0.6255 -0.8037
   54MOL   C76748573   4.896   7.000   5.323 -0.1066 -0.2216  0.0974
   54MOL   C76848574   4.810   7.112   5.318  0.8379  0.1383 -0.7126
   54MOL   C76948575   4.671   7.090   5.345  0.7101  0.0956 -0.9468
   54MOL   C77048576   4.624   6.959   5.375 -0.1435  0.1162  0.0562
   54MOL   C77148577   4.708   6.847   5.371  0.3368 -0.2518 -0.4565
   54MOL   C77248578   4.847   6.868   5.343  0.0989 -0.3175 -0.3797
   54MOL   S77348579   4.445   6.946   5.379  0.3989 -0.2223  0.2578
   54MOL   O77448580   4.404   6.875   5.256 -0.2528  0.1823  0.2160
   54MOL   O77548581   4.389   7.081   5.405 -0.5549 -0.2742 -0.2701
   54MOL   C77648582   4.399   6.840   5.516  0.5076  0.4379 -0.6539
   54MOL   C77748583   4.267   6.790   5.504 -0.0891 -0.8325  0.3789
   54MOL   C77848584   4.222   6.708   5.608  0.5637 -0.3010 -0.7298
   54MOL   C77948585   4.304   6.677   5.722 -0.1156  0.3493 -0.1595
   54MOL   C78048586   4.433   6.728   5.725  0.3900  0.1012  0.1887
   54MOL   C78148587   4.475   6.816   5.630 -0.1104 -0.5771  0.4735
   54MOL   O78248588   4.262   6.591   5.819  0.3248  0.4269  0.0985
   54MOL   C78348589   4.256   6.455   5.787  0.5030  0.2558 -1.3075
   54MOL   C78448590   4.309   6.389   5.681 -0.6606  0.8822  0.1459
   54MOL   C78548591   4.265   6.261   5.638  0.3911 -0.0206  0.1044
   54MOL   C78648592   4.177   6.187   5.717  0.4068 -0.6780  0.2923
   54MOL   C78748593   4.122   6.255   5.830  0.2632  0.1476 -0.0176
   54MOL   C78848594   4.168   6.380   5.867 -0.7047  0.0690 -0.3195
   54MOL   C78948595   4.129   6.055   5.677 -0.0951  0.2989  0.1102
   54MOL   C79048596   4.101   5.948   5.768  0.6848 -0.1650  0.2348
   54MOL   C79148597   4.067   5.821   5.716 -0.0982 -0.1224 -0.3297
   54MOL   C79248598   4.049   5.800   5.580 -0.5752 -0.0900  0.4716
   54MOL   C79348599   4.060   5.908   5.489  0.0204  0.3344 -0.4368
   54MOL   C79448600   4.114   6.028   5.537  0.5701 -0.3213  0.3492
   54MOL   O79548601   4.010   5.678   5.543 -0.0606  0.4219  1.1724
   54MOL   H79648602   4.845   7.213   5.304 -1.0206  1.0020  0.7278
   54MOL   H79748603   4.602   7.173   5.338 -0.3593 -0.7448 -0.6312
   54MOL   H79848604   4.669   6.746   5.375  2.1115 -0.9212  0.6594
   54MOL   H79948605   4.914   6.783   5.333  1.0700  0.1166  2.0674
   54MOL   H80048606   4.208   6.808   5.415  1.0620  1.6573  0.0451
   54MOL   H80148607   4.124   6.666   5.594  1.1323 -1.2965 -1.7887
   54MOL   H80248608   4.507   6.690   5.794 -0.9907 -1.1931  0.9868
   54MOL   H80348609   4.569   6.868   5.642  0.4674 -1.4664 -0.1557
   54MOL   H80448610   4.377   6.438   5.613  2.0921 -0.7831  1.5756
   54MOL   H80548611   4.318   6.212   5.557 -2.3105 -0.9069 -1.1803
   54MOL   H80648612   4.054   6.208   5.899  1.7034 -0.8865  0.7353
   54MOL   H80748613   4.127   6.430   5.954 -1.0255 -1.5686  0.4989
   54MOL   H80848614   4.100   5.967   5.874 -0.1437 -1.0033  0.3892
   54MOL   H80948615   4.054   5.732   5.776  2.1802 -1.9956 -2.4948
   54MOL   H81048616   4.046   5.892   5.383 -0.4073 -0.1545 -0.3064
   54MOL   H81148617   4.132   6.103   5.462 -0.9478 -1.2116 -0.9209
   54MOL   C81248618   4.109   5.581   5.525  0.1269  0.7509  0.2516
   54MOL   C81348619   4.197   5.592   5.415 -0.2535 -1.0861 -0.8944
   54MOL   C81448620   4.299   5.498   5.403  0.0521 -0.3284  1.2593
   54MOL   C81548621   4.303   5.388   5.488  1.2442  0.2155 -0.6489
   54MOL   C81648622   4.207   5.367   5.590 -0.0485  1.3562 -0.5648
   54MOL   C81748623   4.109   5.465   5.608 -0.3786 -0.5753 -0.3435
   54MOL   S81848624   4.433   5.266   5.459  0.2569 -0.4197 -0.1790
   54MOL   O81948625   4.384   5.175   5.351 -0.0619  0.0317 -0.4896
   54MOL   O82048626   4.468   5.211   5.593 -0.2438 -0.1151  0.3835
   54MOL   C82148627   4.587   5.351   5.405  0.4483  0.2230 -0.2426
   54MOL   C82248628   4.673   5.405   5.501 -0.4816  0.6280 -0.1215
   54MOL   C82348629   4.793   5.471   5.459 -0.5264 -0.4267 -0.2753
   54MOL   C82448630   4.830   5.469   5.326  0.0109  0.2532 -0.5219
   54MOL   C82548631   4.745   5.419   5.229  0.1561  0.2230  0.1587
   54MOL   C82648632   4.615   5.371   5.271 -0.5381  0.5190 -0.3033
   54MOL   O82748633   4.946   5.528   5.301 -0.3509 -0.1216  1.0210
   54MOL   C82848634   4.932   5.664   5.262 -0.9208  0.0905 -0.1558
   54MOL   C82948635   4.947   5.769   5.358  0.1840 -0.7200  0.2303
   54MOL   C83048636   4.926   5.904   5.322  0.4649 -0.5240 -0.8856
   54MOL   C83148637   4.916   5.946   5.186  0.6056 -0.0600  0.0435
   54MOL   C83248638   4.913   5.843   5.092  0.2095 -0.1584 -1.0601
   54MOL   C83348639   4.913   5.704   5.129  0.5572 -0.5640  0.3277
   54MOL   C83448640   4.910   6.090   5.144  0.0933 -0.0725 -0.1990
   54MOL   C83548641   4.949   6.137   5.016 -0.0797  0.2859 -0.1355
   54MOL   C83648642   4.942   6.273   4.983  0.1621  0.7579  1.0756
   54MOL   C83748643   4.899   6.371   5.082 -0.4356  0.0033  0.6867
   54MOL   C83848644   4.857   6.323   5.210 -0.3113  0.4983  0.7541
   54MOL   C83948645   4.873   6.187   5.230  0.4418  0.2521  0.0938
   54MOL   O84048646   4.922   6.502   5.053  0.1224 -0.3153 -0.0467
   54MOL   H84148647   4.195   5.684   5.357 -1.3428 -0.2620  0.4132
   54MOL   H84248648   4.365   5.502   5.317  0.5806 -0.3884  1.6607
   54MOL   H84348649   4.213   5.282   5.657 -1.6545  1.3871 -0.3534
   54MOL   H84448650   4.035   5.458   5.686 -0.5246  0.4645 -0.3860
   54MOL   H84548651   4.639   5.391   5.602 -4.0149 -2.6924 -1.6371
   54MOL   H84648652   4.860   5.526   5.525 -2.2673  1.3978  0.0223
   54MOL   H84748653   4.778   5.429   5.127  0.2654  1.2996  0.2989
   54MOL   H84848654   4.534   5.352   5.202  1.4171 -3.1797 -1.7324
   54MOL   H84948655   4.969   5.741   5.460  0.0479  1.6061  0.9152
   54MOL   H85048656   4.933   5.964   5.411 -3.0357 -1.8940  0.4247
   54MOL   H85148657   4.908   5.865   4.987 -0.5749 -1.4892 -1.3155
   54MOL   H85248658   4.890   5.641   5.044  1.0077  2.5960 -2.2226
   54MOL   H85348659   4.989   6.066   4.945 -0.3613 -1.0560  1.0397
   54MOL   H85448660   4.981   6.299   4.886 -0.3182 -1.5788  0.2270
   54MOL   H85548661   4.837   6.389   5.293  0.7814  1.4082  0.3139
   54MOL   H85648662   4.840   6.158   5.329 -1.8994 -2.7800 -1.5152
   54MOL   C85748663   4.816   6.581   5.023  0.1365 -0.0620  0.3356
   54MOL   C85848664   4.711   6.605   5.115 -0.3934 -0.2524 -0.7347
   54MOL   C85948665   4.605   6.688   5.074 -0.5452 -0.9432  0.2511
   54MOL   C86048666   4.610   6.749   4.950  0.0268 -0.3535  0.1139
   54MOL   C86148667   4.721   6.741   4.864  0.7669  0.0166 -0.1831
   54MOL   C86248668   4.824   6.646   4.899 -0.9674  0.3189 -0.5995
   54MOL   S86348669   4.474   6.854   4.892 -0.2106 -0.1463  0.2457
   54MOL   O86448670   4.359   6.798   4.963  0.6004 -0.3474 -0.1171
   54MOL   O86548671   4.463   6.865   4.746 -0.2017 -0.3531 -0.2087
   54MOL   C86648672   4.486   7.022   4.952  0.6565 -0.2038  0.1392
   54MOL   C86748673   4.611   7.090   4.975 -0.0651  0.1706 -0.5878
   54MOL   C86848674   4.615   7.228   5.011  0.3711 -0.8504  0.6744
   54MOL   C86948675   4.491   7.297   5.015  0.7808 -0.4137 -0.7398
   54MOL   C87048676   4.368   7.231   5.002 -0.4273 -0.5757 -0.4408
   54MOL   C87148677   4.366   7.098   4.968 -0.1402 -0.5044 -0.6092
   54MOL   O87248678   4.500   7.435   5.018 -0.1265  0.8299  0.1009
   54MOL   C87348679   4.464   7.491   4.897 -0.3815 -0.1478  1.0479
   54MOL   C87448680   4.534   7.468   4.774 -0.5949  0.3155  0.2340
   54MOL   C87548681   4.490   7.531   4.659  0.7371  0.8074  0.7357
   54MOL   C87648682   4.374   7.613   4.660 -0.4838 -0.0992 -0.2369
   54MOL   C87748683   4.310   7.640   4.784 -0.2785  0.4690  0.1624
   54MOL   C87848684   4.358   7.579   4.901 -0.4753  0.2582 -0.1398
   54MOL   C87948685   4.323   7.675   4.533 -0.0513 -0.4469  0.5049
   54MOL   C88048686   4.186   7.675   4.505  0.2859  0.1409  0.2285
   54MOL   C88148687   4.140   7.738   4.386  0.8198  0.2966 -0.5489
   54MOL   C88248688   4.241   7.790   4.296  0.0385 -0.1102  0.4677
   54MOL   C88348689   4.380   7.788   4.321 -0.2763  0.3051  0.0108
   54MOL   C88448690   4.416   7.737   4.446 -0.2058  0.0700  0.8709
   54MOL   O88548691   4.205   7.845   4.174  0.0299 -0.2241  0.1598
   54MOL   H88648692   4.723   6.559   5.213  0.1195  2.4826  0.5173
   54MOL   H88748693   4.525   6.711   5.142 -0.4165  0.6588 -0.1196
   54MOL   H88848694   4.725   6.774   4.761  1.2414 -0.7309 -0.4144
   54MOL   H88948695   4.908   6.625   4.833 -0.3264 -0.3926  0.4347
   54MOL   H89048696   4.709   7.050   4.957  0.8027  0.5291  2.9894
   54MOL   H89148697   4.709   7.280   5.022 -1.3681  2.2255  1.5490
   54MOL   H89248698   4.269   7.274   5.005 -0.8345 -1.5156 -0.1809
   54MOL   H89348699   4.274   7.049   4.938 -0.6160  0.7550 -1.2441
   54MOL   H89448700   4.614   7.399   4.754 -1.3767  0.0147 -2.0093
   54MOL   H89548701   4.535   7.503   4.565 -0.5286 -2.3346  1.0112
   54MOL   H89648702   4.227   7.709   4.788 -1.1098 -0.4258 -1.0354
   54MOL   H89748703   4.315   7.604   4.997  0.1029  4.8348 -0.9540
   54MOL   H89848704   4.120   7.625   4.574  0.5159 -1.3900 -0.6524
   54MOL   H89948705   4.036   7.747   4.358  0.2636 -2.3395  0.5630
   54MOL   H90048706   4.450   7.843   4.260  1.8884 -0.1855  2.0327
   54MOL   H90148707   4.520   7.744   4.474 -0.2623  1.2002  0.8347
   54MOL   H90248708   4.269   7.882   4.116  0.4794 -1.6316 -0.2791
   55MOL     C148709   5.183   6.968   0.644  0.2234  0.1910 -0.0316
   55MOL     C248710   5.145   6.956   0.509 -0.0424  0.1115  0.2645
   55MOL     C348711   5.037   6.868   0.475  0.4170 -0.2230  0.3716
   55MOL     C448712   4.962   6.808   0.578 -0.7598  0.4871  0.9127
   55MOL     C548713   4.999   6.831   0.712  0.7693 -0.1164  0.0640
   55MOL     C648714   5.104   6.918   0.743 -0.0142  0.4260  0.4340
   55MOL     S748715   4.815   6.711   0.542 -0.3207  0.0282  0.2257
   55MOL     O848716   4.703   6.788   0.602  0.3085 -0.4720 -0.8072
   55MOL     O948717   4.846   6.578   0.605 -0.1877 -0.1006  0.3788
   55MOL    C1048718   4.795   6.695   0.368 -0.2731 -0.4793  0.3125
   55MOL    C1148719   4.741   6.804   0.305  0.2508  0.4719 -0.7419
   55MOL    C1248720   4.716   6.802   0.163  0.9121 -0.2239 -0.0967
   55MOL    C1348721   4.754   6.688   0.086  0.4400  0.0489 -0.7754
   55MOL    C1448722   4.805   6.574   0.158  0.1374  0.6152 -0.6206
   55MOL    C1548723   4.829   6.579   0.299 -0.0646 -0.5000 -0.2394
   55MOL    O1648724   4.730   6.674   8.317  0.7638  0.8368  0.5998
   55MOL    C1748725   4.835   6.696   8.230 -0.5672  0.0476  0.4543
   55MOL    C1848726   4.962   6.743   8.274 -0.0236 -0.5155  0.2082
   55MOL    C1948727   5.066   6.756   8.179  0.0692 -0.2102 -0.4558
   55MOL    C2048728   5.058   6.717   8.047 -0.1026 -0.4145  0.1259
   55MOL    C2148729   4.932   6.673   8.007 -0.1833 -0.1698  0.3837
   55MOL    C2248730   4.820   6.670   8.095  0.1633  0.4502 -0.3523
   55MOL    C2348731   5.176   6.718   7.956 -0.8725  0.0003 -0.0898
   55MOL    C2448732   5.270   6.828   7.962 -0.6466 -0.4524  0.1585
   55MOL    C2548733   5.376   6.827   7.865 -0.4771  0.7643  0.3504
   55MOL    C2648734   5.381   6.724   7.764 -1.1258  1.0205 -1.2024
   55MOL    C2748735   5.285   6.626   7.760 -0.5789  0.5394  0.4163
   55MOL    C2848736   5.184   6.621   7.853 -0.3539  0.1081 -0.3526
   55MOL    O2948737   5.489   6.726   7.677 -0.2650 -0.6157 -0.4075
   55MOL    H3048738   5.212   7.003   0.439 -0.6166 -1.0957 -1.1282
   55MOL    H3148739   5.006   6.845   0.375 -2.2506 -1.7408  1.5088
   55MOL    H3248740   4.941   6.775   0.784 -0.6060  0.4948 -0.5381
   55MOL    H3348741   5.123   6.948   0.846 -0.9320 -0.3244  0.8303
   55MOL    H3448742   4.723   6.889   0.369 -2.4686 -0.2522 -0.4509
   55MOL    H3548743   4.671   6.889   0.117  0.3775 -0.3560  0.1800
   55MOL    H3648744   4.821   6.477   0.113 -0.1890 -1.1533  2.9441
   55MOL    H3748745   4.877   6.499   0.354 -1.9882 -0.0842  2.1495
   55MOL    H3848746   4.987   6.771   0.009  1.4595 -2.1496  0.3258
   55MOL    H3948747   5.157   6.793   8.224  0.0968 -0.2532 -0.4782
   55MOL    H4048748   4.921   6.651   7.902  2.2858 -1.0257  0.2727
   55MOL    H4148749   4.722   6.645   8.057  0.0376 -0.2142  0.3935
   55MOL    H4248750   5.266   6.904   8.039 -0.5407 -0.7309  0.4401
   55MOL    H4348751   5.456   6.899   7.873  0.7739 -0.6880  1.2320
   55MOL    H4448752   5.280   6.560   7.674 -1.2394 -0.1053  0.9421
   55MOL    H4548753   5.117   6.536   7.842  1.0989 -1.1603  0.3662
   55MOL    H4648754   5.272   7.019   0.680  1.2692 -2.1670  0.7985
   55MOL    C4748755   5.597   6.654   7.731 -0.5963 -1.0492  0.1985
   55MOL    C4848756   5.607   6.515   7.705  1.1282 -0.1712 -0.4159
   55MOL    C4948757   5.707   6.436   7.765 -0.4792  0.0289  0.2923
   55MOL    C5048758   5.798   6.499   7.855  0.3405  0.2051 -0.4588
   55MOL    C5148759   5.791   6.635   7.885 -0.1480  0.2745  0.5706
   55MOL    C5248760   5.685   6.711   7.822 -0.1753 -0.0305  0.0097
   55MOL    S5348761   5.944   6.407   7.910 -0.2996 -0.2348 -0.4971
   55MOL    O5448762   6.059   6.486   7.860  0.8019 -0.1701 -0.7425
   55MOL    O5548763   5.924   6.268   7.872 -0.2385 -0.5341 -0.2966
   55MOL    C5648764   5.954   6.423   8.092  0.0602 -0.0914  0.1250
   55MOL    C5748765   6.061   6.364   8.158 -0.0983  0.4295 -0.5769
   55MOL    C5848766   6.068   6.378   8.299  0.0953 -0.3464 -0.5209
   55MOL    C5948767   5.970   6.445   0.011 -0.1363 -0.5353 -0.0943
   55MOL    C6048768   5.866   6.503   8.304 -0.4505 -0.1197 -0.2168
   55MOL    C6148769   5.852   6.479   8.167 -0.3393  0.2006  0.3247
   55MOL    O6248770   5.981   6.464   0.147  0.6699  0.1525 -0.6977
   55MOL    C6348771   6.070   6.562   0.176  0.7969  0.3952 -0.7345
   55MOL    C6448772   6.075   6.684   0.105  0.0226 -0.5530  0.2026
   55MOL    C6548773   6.185   6.772   0.125 -0.6873 -0.1458  0.0248
   55MOL    C6648774   6.276   6.749   0.224  0.0205 -0.1125 -0.4734
   55MOL    C6748775   6.273   6.633   0.304  1.0345  0.6652  0.6063
   55MOL    C6848776   6.164   6.540   0.274 -0.4764 -0.3847  0.0070
   55MOL    C6948777   6.389   6.844   0.231  0.0277  0.0549 -0.3383
   55MOL    C7048778   6.358   6.979   0.223  0.2211 -0.2897 -0.2619
   55MOL    C7148779   6.461   7.072   0.238 -0.0166 -0.2675 -0.0313
   55MOL    C7248780   6.596   7.026   0.254 -0.4685 -0.0785  0.3990
   55MOL    C7348781   6.622   6.889   0.260  0.2427 -0.0005 -0.5129
   55MOL    C7448782   6.516   6.797   0.245 -0.5281 -0.2537  0.1538
   55MOL    O7548783   6.695   7.116   0.256 -0.3546 -0.1734 -0.3462
   55MOL    H7648784   5.537   6.459   7.644  0.8440 -1.4363  1.0477
   55MOL    H7748785   5.711   6.331   7.738  0.5760 -0.0044  0.5824
   55MOL    H7848786   5.863   6.687   7.947  0.6211 -0.2545  0.1304
   55MOL    H7948787   5.670   6.816   7.841 -3.7871 -0.4668 -0.1144
   55MOL    H8048788   6.147   6.315   8.116  0.8040  1.6620 -0.1776
   55MOL    H8148789   6.162   6.358   8.348 -0.2728 -1.3127 -0.1891
   55MOL    H8248790   5.799   6.562   8.364 -0.2038  0.4091 -0.4622
   55MOL    H8348791   5.763   6.523   8.125 -0.5004 -0.7174 -0.3226
   55MOL    H8448792   6.011   6.709   0.022 -0.8640  0.0240  1.0400
   55MOL    H8548793   6.209   6.853   0.057  0.4015 -1.6463 -1.4186
   55MOL    H8648794   6.349   6.608   0.376  0.1356 -0.9574  1.0146
   55MOL    H8748795   6.152   6.446   0.326 -2.7972  0.4959  1.1443
   55MOL    H8848796   6.255   7.009   0.218 -0.0865 -1.0239  1.3005
   55MOL    H8948797   6.441   7.177   0.229  4.7938  0.8572  1.0764
   55MOL    H9048798   6.724   6.853   0.250 -0.2668 -1.3938 -0.7670
   55MOL    H9148799   6.529   6.690   0.241 -0.7194 -0.3685  2.3986
   55MOL    C9248800   6.726   7.195   0.364  1.0399 -0.4421 -0.2852
   55MOL    C9348801   6.864   7.215   0.385 -0.4154  0.1806  0.0038
   55MOL    C9448802   6.903   7.289   0.497  0.6834  0.4446 -0.1587
   55MOL    C9548803   6.811   7.350   0.585 -0.6748 -0.1479  0.8167
   55MOL    C9648804   6.674   7.334   0.566  0.0493  0.5264 -0.2298
   55MOL    C9748805   6.627   7.252   0.457  0.1173 -0.1262  0.1513
   55MOL    S9848806   6.852   7.458   0.728 -0.0197 -0.3993 -0.2818
   55MOL    O9948807   7.002   7.455   0.734 -0.1521 -0.3799  0.2443
   55MOL   O10048808   6.779   7.404   0.851 -0.0986  0.1627  0.1072
   55MOL   C10148809   6.809   7.632   0.697 -0.3514 -0.0777  1.0200
   55MOL   C10248810   6.842   7.732   0.785  0.4191 -0.1978  0.2918
   55MOL   C10348811   6.829   7.871   0.752  0.3416  0.1128 -0.6579
   55MOL   C10448812   6.775   7.906   0.625  0.8107  0.5349 -0.4314
   55MOL   C10548813   6.733   7.801   0.540  0.2226 -0.6612 -1.2835
   55MOL   C10648814   6.752   7.668   0.573 -0.0751  0.2479 -0.4916
   55MOL   O10748815   6.754   8.032   0.581  0.2489 -0.3422  0.4054
   55MOL   C10848816   6.635   8.096   0.594  0.1425  0.1093  0.0131
   55MOL   C10948817   6.642   8.233   0.573 -0.7882  0.7911 -0.1805
   55MOL   C11048818   6.525   8.304   0.595 -0.3568  0.0524 -0.1345
   55MOL   C11148819   6.403   8.243   0.625 -0.0168 -0.0951 -0.0965
   55MOL   C11248820   6.397   8.106   0.637 -0.1436  0.4311 -0.2860
   55MOL   C11348821   6.512   8.031   0.617  0.4647  0.0907  0.2610
   55MOL   C11448822   6.281   8.313   0.657  0.2995 -0.0245  0.6939
   55MOL   C11548823   6.287   0.063   0.740  0.2395  0.0692 -0.0677
   55MOL   C11648824   6.172   0.141   0.766  1.0069 -0.0957  0.4822
   55MOL   C11748825   6.046   0.097   0.721 -0.0771  0.4712  0.3416
   55MOL   C11848826   6.037   8.347   0.642 -0.0909 -0.1850 -0.4777
   55MOL   C11948827   6.150   8.272   0.612 -0.2616  0.4824  0.4617
   55MOL   O12048828   5.931   0.173   0.736 -0.6373  0.2165 -0.3648
   55MOL   H12148829   6.928   7.162   0.316 -0.1750 -0.7893  0.9462
   55MOL   H12248830   7.010   7.291   0.510  0.6979 -0.7993 -0.0193
   55MOL   H12348831   6.603   7.374   0.637 -0.1301 -3.2434  1.8703
   55MOL   H12448832   6.522   7.236   0.439 -0.3472  0.8812  1.8807
   55MOL   H12548833   6.875   7.694   0.880  1.6764  0.7719  0.2519
   55MOL   H12648834   6.847   7.946   0.827 -1.7225 -1.2879  1.3167
   55MOL   H12748835   6.697   7.822   0.440 -1.9753  1.7413 -0.0662
   55MOL   H12848836   6.737   7.586   0.503  0.8380  0.3318 -0.7894
   55MOL   H12948837   6.736   8.280   0.550  0.5100 -1.8541 -0.4201
   55MOL   H13048838   6.528   0.045   0.585  0.0500  0.3017  2.1943
   55MOL   H13148839   6.308   8.055   0.672  0.5406 -0.8068 -0.3305
   55MOL   H13248840   6.511   7.923   0.622 -0.6901  0.0311 -1.0772
   55MOL   H13348841   6.387   0.087   0.769  1.4110 -3.5538 -0.8076
   55MOL   H13448842   6.178   0.233   0.823 -1.9323  1.8793 -2.2500
   55MOL   H13548843   5.940   8.322   0.600 -0.1465  1.4188 -1.3704
   55MOL   H13648844   6.149   8.177   0.561 -2.3845 -1.1538  3.3729
   55MOL   C13748845   5.849   0.211   0.631 -0.5203  0.3225 -0.0035
   55MOL   C13848846   5.716   0.165   0.625  0.2767 -0.8877 -0.8483
   55MOL   C13948847   5.640   0.194   0.511  0.6459 -0.3672  0.0858
   55MOL   C14048848   5.695   0.258   0.395  0.4547  0.4975  0.1625
   55MOL   C14148849   5.831   0.299   0.404  0.3313  0.0154  0.6474
   55MOL   C14248850   5.903   0.285   0.525  0.1121  0.7565  0.4764
   55MOL   S14348851   5.592   0.268   0.247 -0.2393 -0.0210 -0.0829
   55MOL   O14448852   5.603   0.405   0.195 -0.1273  0.0854  0.3587
   55MOL   O14548853   5.465   0.201   0.274  0.4611  0.5281 -0.0567
   55MOL   C14648854   5.684   0.172   0.127 -0.7262 -0.6197 -0.5910
   55MOL   C14748855   5.723   0.225   0.003  0.6051 -0.0082  0.2325
   55MOL   C14848856   5.782   0.148   8.270  0.2706  0.9682 -0.7697
   55MOL   C14948857   5.810   0.010   8.297 -0.1956 -0.0554 -0.4031
   55MOL   C15048858   5.771   8.314   0.051 -0.8079 -0.6263 -0.4159
   55MOL   C15148859   5.720   0.037   0.149  0.6065 -0.2966  0.2927
   55MOL   O15248860   5.855   8.306   8.190 -0.5350 -0.1772  0.3577
   55MOL   C15348861   5.848   8.168   8.193 -0.0781 -0.2404  0.5468
   55MOL   C15448862   5.728   8.107   8.144 -0.1750  0.1129 -0.7105
   55MOL   C15548863   5.705   7.968   8.156  0.0339  0.1861 -0.2848
   55MOL   C15648864   5.802   7.883   8.202 -0.1523  0.1084  1.1817
   55MOL   C15748865   5.926   7.938   8.240  0.6467 -0.6290 -0.0482
   55MOL   C15848866   5.947   8.079   8.239 -0.3969 -0.2104 -0.2262
   55MOL   C15948867   5.770   7.744   8.237 -0.2782 -0.2203 -0.0720
   55MOL   C16048868   5.831   7.638   8.174 -0.4552  0.1333  0.1033
   55MOL   C16148869   5.803   7.505   8.210  0.1781 -0.1111 -0.8890
   55MOL   C16248870   5.719   7.480   8.317 -0.7636  0.6410  0.0855
   55MOL   C16348871   5.654   7.591   0.016 -0.5720 -0.7858 -0.0463
   55MOL   C16448872   5.682   7.718   8.343 -0.1596 -0.4211 -0.3532
   55MOL   O16548873   5.706   7.351   0.002  0.1365 -0.7539  0.3521
   55MOL   H16648874   5.685   0.113   0.714  0.1805  0.6155  0.0123
   55MOL   H16748875   5.537   0.164   0.523  1.1930 -2.4145 -0.2227
   55MOL   H16848876   5.884   0.329   0.314  1.8215  0.6074  1.7082
   55MOL   H16948877   6.007   0.315   0.534  1.2118 -2.8518  0.3999
   55MOL   H17048878   5.703   0.331   8.355  0.5369  0.3299  2.7092
   55MOL   H17148879   5.810   0.200   8.179 -0.7568  3.1955  0.1518
   55MOL   H17248880   5.775   8.207   0.054  3.2211 -0.5757 -1.2569
   55MOL   H17348881   5.681   0.000   0.243 -0.1908  0.9567  0.4525
   55MOL   H17448882   5.646   8.171   8.115 -0.6453  0.0985  0.5789
   55MOL   H17548883   5.606   7.928   8.141  0.0142  0.5684 -1.2549
   55MOL   H17648884   5.998   7.865   8.273 -0.4947 -1.9688 -0.4758
   55MOL   H17748885   6.047   8.109   8.269 -1.6245  4.2959 -0.2916
   55MOL   H17848886   5.899   7.658   8.093 -1.2203  1.3514 -0.2478
   55MOL   H17948887   5.856   7.429   8.155 -1.0223  0.4426 -2.8590
   55MOL   H18048888   5.583   7.577   0.096 -1.0197  0.1505 -0.2741
   55MOL   H18148889   5.630   7.798   0.028 -2.2420 -2.5223  0.8896
   55MOL   C18248890   5.780   7.332   0.116 -0.5896  0.6100 -0.2233
   55MOL   C18348891   5.921   7.327   0.105 -0.2065  0.1099  0.3870
   55MOL   C18448892   6.000   7.289   0.216  0.6728  0.2656 -0.1870
   55MOL   C18548893   5.942   7.260   0.340  0.1096 -0.4464 -0.9516
   55MOL   C18648894   5.804   7.260   0.355 -0.4298 -0.1070 -0.1108
   55MOL   C18748895   5.722   7.298   0.245 -0.1260 -0.4770  0.3571
   55MOL   S18848896   6.042   7.238   0.487 -0.2565  0.2035  0.1714
   55MOL   O18948897   6.185   7.262   0.452 -0.0044 -0.1882  0.4458
   55MOL   O19048898   6.003   7.111   0.551  0.4541  0.2476  0.6962
   55MOL   C19148899   5.997   7.375   0.588  0.5037 -0.1275 -0.2078
   55MOL   C19248900   5.983   7.352   0.724 -0.6005  0.2090 -0.3510
   55MOL   C19348901   5.947   7.458   0.806  0.5497  0.3095 -0.1846
   55MOL   C19448902   5.934   7.587   0.754 -0.0445  0.4294  0.4148
   55MOL   C19548903   5.953   7.615   0.616  0.0801 -0.1659 -0.6712
   55MOL   C19648904   5.983   7.506   0.536 -0.4069 -0.1307 -0.8203
   55MOL   O19748905   5.900   7.688   0.841 -0.6888 -0.0698 -0.2838
   55MOL   C19848906   6.004   7.763   0.883  0.1896 -0.0722  0.0523
   55MOL   C19948907   6.111   7.712   0.961  0.4365 -1.1672  0.6174
   55MOL   C20048908   6.221   7.793   0.999  0.3697  0.1543 -0.4868
   55MOL   C20148909   6.235   7.927   0.950 -0.1739  0.2098  0.7460
   55MOL   C20248910   6.129   7.975   0.874  0.9518 -0.5678  0.3469
   55MOL   C20348911   6.018   7.895   0.841  0.1231  0.0608  0.5756
   55MOL   C20448912   6.347   8.017   0.965 -0.5785 -0.0729  0.3353
   55MOL   C20548913   6.481   7.973   0.939 -0.1530 -0.7452 -0.4473
   55MOL   C20648914   6.592   8.058   0.969  0.2544  0.5011 -0.3521
   55MOL   C20748915   6.576   8.188   1.015 -0.0485  0.9588  0.7059
   55MOL   C20848916   6.445   8.235   1.036  0.0776  0.3501 -0.4488
   55MOL   C20948917   6.336   8.154   1.009 -0.1417 -0.5871  1.0128
   55MOL   O21048918   6.677   8.281   1.030 -0.0183  0.3072 -0.8987
   55MOL   H21148919   5.973   7.330   0.010  3.5027 -0.0352  2.3214
   55MOL   H21248920   6.106   7.272   0.219  0.3669 -1.8005 -0.4106
   55MOL   H21348921   5.757   7.229   0.447 -1.6143 -0.0590 -0.6874
   55MOL   H21448922   5.616   7.283   0.257 -0.0045 -1.6999 -0.0609
   55MOL   H21548923   5.985   7.252   0.765  0.8953  0.1509 -0.5202
   55MOL   H21648924   5.932   7.450   0.912  0.1024  1.6944 -0.1354
   55MOL   H21748925   5.943   7.718   0.586 -1.9666  0.2804  1.4585
   55MOL   H21848926   5.988   7.534   0.431  0.9122  1.6380 -0.3190
   55MOL   H21948927   6.116   7.612   1.002  1.2924 -1.6110 -0.5649
   55MOL   H22048928   6.301   7.753   1.060  1.3376 -0.6432 -2.2336
   55MOL   H22148929   6.124   8.073   0.830  2.8297 -1.1824 -1.3572
   55MOL   H22248930   5.950   7.943   0.773  1.6929 -0.8084 -1.6636
   55MOL   H22348931   6.494   7.876   0.892 -1.8918 -1.6643  0.8837
   55MOL   H22448932   6.694   8.023   0.961 -0.6843 -2.8403  1.4095
   55MOL   H22548933   6.421   8.331   1.079 -2.1453 -0.0955 -0.6152
   55MOL   H22648934   6.238   8.194   1.031  0.2008  0.3109  0.9098
   55MOL   C22748935   6.721   8.344   0.922  0.1958 -0.9021 -0.4755
   55MOL   C22848936   6.832   8.287   0.856  0.1880  0.6037 -0.4500
   55MOL   C22948937   6.885   8.363   0.751 -0.3034  0.1838  0.2584
   55MOL   C23048938   6.831   0.121   0.709 -0.3460  0.8794 -0.2317
   55MOL   C23148939   6.717   0.168   0.772  0.3467 -0.0128 -0.2548
   55MOL   C23248940   6.668   0.098   0.881  0.2100 -0.2144  0.6316
   55MOL   S23348941   6.906   0.203   0.580 -0.1058  0.0767 -0.2530
   55MOL   O23448942   7.048   0.196   0.611  0.0573 -0.3061 -0.2787
   55MOL   O23548943   6.835   0.325   0.556 -0.2420 -0.1473 -0.4561
   55MOL   C23648944   6.882   0.105   0.437 -0.2902 -0.0098  0.0890
   55MOL   C23748945   6.772   0.124   0.356 -0.1944 -0.2339  0.5791
   55MOL   C23848946   6.756   0.049   0.239 -0.2033 -0.1721  0.9811
   55MOL   C23948947   6.860   8.328   0.195 -0.7812  0.1333 -0.1908
   55MOL   C24048948   6.974   8.308   0.277 -0.1923  0.4021  0.6809
   55MOL   C24148949   6.988   0.020   0.396 -0.2759 -0.4002 -0.1662
   55MOL   O24248950   6.855   8.252   0.081 -0.0099  0.0700 -0.1825
   55MOL   C24348951   6.882   8.324   8.333 -0.0725 -0.0481  0.2863
   55MOL   C24448952   7.016   0.007   8.306 -0.3593 -0.0543  0.1097
   55MOL   C24548953   7.037   0.069   8.181 -0.1758 -0.4086 -0.1075
   55MOL   C24648954   6.939   0.084   8.084  0.7261 -0.5548  0.4953
   55MOL   C24748955   6.808   0.024   8.111 -0.2834 -0.1905  0.0639
   55MOL   C24848956   6.779   8.332   8.238  0.0834 -0.4045 -0.5888
   55MOL   C24948957   6.971   0.152   7.958  0.2227 -0.8860 -0.4796
   55MOL   C25048958   6.876   0.227   7.883  0.6578 -0.3231  0.3423
   55MOL   C25148959   6.896   0.285   7.754 -0.9824  0.0893 -0.9219
   55MOL   C25248960   7.021   0.265   7.698  0.5470  0.3786 -0.2121
   55MOL   C25348961   7.124   0.195   7.768 -0.5668 -0.1101 -0.0992
   55MOL   C25448962   7.099   0.141   7.896  0.3387  0.3450 -0.4908
   55MOL   O25548963   7.050   0.325   7.573  0.2628  0.1913  0.1197
   55MOL   H25648964   6.877   8.196   0.893 -0.6397 -0.0588 -1.0745
   55MOL   H25748965   6.967   8.325   0.693 -2.1218 -2.0135 -0.9384
   55MOL   H25848966   6.672   0.257   0.731 -2.0523 -1.2730 -0.4555
   55MOL   H25948967   6.587   0.135   0.944  1.8100 -0.6458  3.0131
   55MOL   H26048968   6.687   0.189   0.367 -1.3889 -1.4452 -1.2597
   55MOL   H26148969   6.673   0.065   0.172  0.5956 -3.2789 -0.8431
   55MOL   H26248970   7.055   8.245   0.246  0.1126  0.6550  0.9600
   55MOL   H26348971   7.079   0.008   0.453  0.3494  1.1902 -0.7705
   55MOL   H26448972   7.100   8.351   0.004  0.1333 -0.7066 -0.7613
   55MOL   H26548973   7.135   0.110   8.160 -0.7386  1.4726  0.8631
   55MOL   H26648974   6.725   0.031   8.042  0.6168 -1.8406 -1.2427
   55MOL   H26748975   6.684   8.295   8.274  0.1471 -0.9403 -0.9657
   55MOL   H26848976   6.775   0.231   7.921  0.3204  0.5578 -0.6405
   55MOL   H26948977   6.824   0.352   7.709  0.9995  2.8174 -0.1960
   55MOL   H27048978   7.222   0.186   7.724  0.2760  1.6756  1.3502
   55MOL   H27148979   7.184   0.091   7.940 -0.6750 -1.0237 -0.0270
   55MOL   C27248980   7.003   0.262   7.458 -0.0170  0.2396 -0.2233
   55MOL   C27348981   7.079   0.277   7.340 -0.0533 -0.1805  0.2763
   55MOL   C27448982   7.033   0.225   7.216  0.9008  0.4145  0.1724
   55MOL   C27548983   6.913   0.142   7.217 -1.3596 -0.3810  0.0271
   55MOL   C27648984   6.837   0.140   7.335 -0.6136 -0.0925  0.2860
   55MOL   C27748985   6.879   0.198   7.453  0.3506 -0.7650 -0.6530
   55MOL   S27848986   6.855   0.053   7.074 -0.2616 -0.3775  0.3029
   55MOL   O27948987   6.966   0.042   6.973 -0.2217 -0.6881 -0.1493
   55MOL   O28048988   6.727   0.103   7.026 -0.0019 -0.6117 -0.0863
   55MOL   C28148989   6.834   8.252   7.154  0.3874  0.1671  0.5876
   55MOL   C28248990   6.935   8.162   7.188  0.0794  0.6614 -0.3203
   55MOL   C28348991   6.904   8.040   7.254 -0.9074 -0.6670  0.1912
   55MOL   C28448992   6.770   8.008   7.282  0.0757  0.1223  0.7792
   55MOL   C28548993   6.668   8.103   7.247 -0.8519 -0.3887 -0.2781
   55MOL   C28648994   6.701   8.223   7.183 -0.3037  0.0169  0.2554
   55MOL   O28748995   6.735   7.898   7.354 -0.5526 -0.2027  0.7883
   55MOL   C28848996   6.613   7.844   7.336 -0.0823  0.1427 -0.0582
   55MOL   C28948997   6.588   7.770   7.225  0.1942 -0.2054  0.3782
   55MOL   C29048998   6.458   7.719   7.206 -0.0343 -0.0955  0.2497
   55MOL   C29148999   6.353   7.754   7.294  0.3571 -0.1834  0.2200
   55MOL   C29249000   6.382   7.828   7.410  0.5096  0.2770  0.1589
   55MOL   C29349001   6.514   7.872   7.433  0.0842 -0.3138  0.4665
   55MOL   C29449002   6.219   7.703   7.265 -0.0248 -0.6508 -0.4962
   55MOL   C29549003   6.139   7.645   7.371  0.3678  0.1309  0.6742
   55MOL   C29649004   6.015   7.593   7.340  0.4113 -0.2239  0.5038
   55MOL   C29749005   5.960   7.604   7.209 -0.2343  0.3970  0.5056
   55MOL   C29849006   6.033   7.665   7.105 -0.6303  0.2889 -0.3227
   55MOL   C29949007   6.163   7.717   7.133 -0.3244  0.4757  0.2558
   55MOL   O30049008   5.827   7.575   7.187 -0.1193 -0.2371 -0.7832
   55MOL   H30149009   7.173   0.329   7.338  0.1640 -0.6052 -0.4921
   55MOL   H30249010   7.084   0.247   7.124 -2.0813 -1.2457 -1.9835
   55MOL   H30349011   6.749   0.078   7.326 -0.2301 -0.6778  0.4959
   55MOL   H30449012   6.806   0.187   7.533  0.0048  5.1441  0.1369
   55MOL   H30549013   7.034   8.178   7.147  0.0106  1.1340 -0.2969
   55MOL   H30649014   6.979   7.963   7.261 -0.2255 -0.3622 -3.0419
   55MOL   H30749015   6.561   8.093   7.255 -0.6191 -2.3866  0.6555
   55MOL   H30849016   6.624   8.288   7.145  0.2732 -0.9195 -2.5964
   55MOL   H30949017   6.665   7.754   7.150  1.5789  0.5141  1.6296
   55MOL   H31049018   6.450   7.659   7.117 -0.0122  2.2564 -1.3784
   55MOL   H31149019   6.316   7.847   7.493  0.7697 -0.6862  0.5926
   55MOL   H31249020   6.546   7.931   7.517  0.1861  0.0575  0.1696
   55MOL   H31349021   6.179   7.639   7.471  0.1154 -1.1944  0.7083
   55MOL   H31449022   5.965   7.545   7.424 -0.6086  0.3407  0.2308
   55MOL   H31549023   5.988   7.668   7.007 -1.2593  1.5072 -0.0010
   55MOL   H31649024   6.217   7.774   7.058  0.0868  1.1349  1.0380
   55MOL   C31749025   5.804   7.470   7.102  0.1209  0.0453  0.2866
   55MOL   C31849026   5.684   7.478   7.019  0.0746 -1.0472  0.3449
   55MOL   C31949027   5.656   7.378   6.917  0.3874  0.6148  0.2560
   55MOL   C32049028   5.739   7.269   6.905 -0.4673  0.1271 -0.1190
   55MOL   C32149029   5.853   7.254   6.997  0.4213  0.9852  0.0506
   55MOL   C32249030   5.878   7.351   7.097 -0.0925 -0.3802  0.8422
   55MOL   S32349031   5.735   7.158   6.776 -0.2628  0.2156  0.1111
   55MOL   O32449032   5.861   7.077   6.770  0.1558  0.0942  0.5392
   55MOL   O32549033   5.693   7.235   6.660 -0.5556  0.0252 -0.0398
   55MOL   C32649034   5.608   7.044   6.829  0.4274  0.5846  0.0942
   55MOL   C32749035   5.640   6.917   6.890 -0.3494  0.4298 -0.5048
   55MOL   C32849036   5.539   6.830   6.935 -0.5557 -0.7859 -0.2763
   55MOL   C32949037   5.406   6.873   6.925  0.2197 -0.1717  0.0066
   55MOL   C33049038   5.367   6.989   6.854 -0.6409 -0.1138 -0.0120
   55MOL   C33149039   5.472   7.071   6.806 -0.3260  0.8658 -0.0155
   55MOL   O33249040   5.319   6.792   6.988  0.0338  0.1496  0.7446
   55MOL   C33349041   5.187   6.834   7.002  0.0070 -0.3746  0.3708
   55MOL   C33449042   5.145   6.894   7.122 -0.0701 -0.0185 -0.3668
   55MOL   C33549043   5.011   6.926   7.144  0.0401 -0.1265 -0.4826
   55MOL   C33649044   4.908   6.894   7.045 -0.3162 -0.3319  0.6558
   55MOL   C33749045   4.950   6.828   6.927 -0.4413  0.6747  0.3006
   55MOL   C33849046   5.089   6.792   6.912  0.4500 -0.0853 -0.6364
   55MOL   C33949047   4.769   6.939   7.055  0.0137  0.4443  0.5783
   55MOL   C34049048   4.668   6.858   7.005  0.5631 -0.1974  0.7581
   55MOL   C34149049   4.532   6.899   6.999 -0.2266  0.9277 -0.7446
   55MOL   C34249050   4.498   7.021   7.064 -0.7790 -0.0157  0.2527
   55MOL   C34349051   4.601   7.099   7.121 -0.5293  0.0695  0.3674
   55MOL   C34449052   4.736   7.061   7.118  0.1719 -0.3506 -0.0030
   55MOL   O34549053   4.361   7.054   7.071  0.4899  0.2808 -0.7315
   55MOL   H34649054   5.613   7.559   7.029  2.1558  0.7636  0.9034
   55MOL   H34749055   5.578   7.383   6.843 -0.9870 -0.4754  1.5904
   55MOL   H34849056   5.919   7.169   6.983  0.4449  1.1345 -0.7394
   55MOL   H34949057   5.957   7.331   7.168  1.1512  0.4203 -0.2954
   55MOL   H35049058   5.746   6.898   6.896 -0.5318 -1.6403 -2.7154
   55MOL   H35149059   5.560   6.743   6.995  1.9506 -1.0500 -1.4731
   55MOL   H35249060   5.263   7.015   6.844 -0.1661  0.9044 -2.5190
   55MOL   H35349061   5.454   7.162   6.751  0.2560  1.8321  1.3599
   55MOL   H35449062   5.223   6.920   7.192  0.5050  0.6274 -1.2451
   55MOL   H35549063   4.990   6.976   7.238  0.7173  2.0229 -1.4585
   55MOL   H35649064   4.891   6.819   6.837 -0.5906 -0.8695  0.5552
   55MOL   H35749065   5.135   6.728   6.837  1.2629  0.8206 -0.9202
   55MOL   H35849066   4.681   6.756   6.972 -2.0321 -0.5764  0.7909
   55MOL   H35949067   4.463   6.834   6.948  0.4984 -0.8645  0.4767
   55MOL   H36049068   4.565   7.195   7.155  0.9797  0.6818  0.2914
   55MOL   H36149069   4.804   7.121   7.176 -0.3359 -0.7318  0.9955
   55MOL   C36249070   4.288   7.028   7.189 -0.5977  0.0562  0.5582
   55MOL   C36349071   4.313   6.915   7.267 -0.0024 -0.1618 -0.0322
   55MOL   C36449072   4.235   6.891   7.380  0.0606  0.1865  0.1930
   55MOL   C36549073   4.135   6.977   7.421  0.0556  0.3673  0.3322
   55MOL   C36649074   4.102   7.086   7.342  0.0939  0.1279  0.4372
   55MOL   C36749075   4.182   7.112   7.228  0.4731 -0.4109 -0.2085
   55MOL   S36849076   4.059   6.969   7.582 -0.3962 -0.1999  0.2644
   55MOL   O36949077   3.936   6.887   7.573  0.5786 -0.1348  0.0074
   55MOL   O37049078   4.061   7.114   7.630 -0.2451  0.2502 -0.5950
   55MOL   C37149079   4.182   6.890   7.691 -0.1247 -0.2219 -0.4250
   55MOL   C37249080   4.316   6.938   7.694 -0.1107  0.2682 -0.3450
   55MOL   C37349081   4.409   6.866   7.770 -0.4841  0.1483 -0.0050
   55MOL   C37449082   4.373   6.757   7.847 -0.2318  0.0583  0.0642
   55MOL   C37549083   4.238   6.714   7.845  0.0960 -0.6109 -0.4084
   55MOL   C37649084   4.139   6.785   7.777 -0.3978  0.5482  0.0841
   55MOL   O37749085   4.474   6.692   7.910 -0.4014  1.0622 -0.2543
   55MOL   C37849086   4.495   6.558   7.879  0.2352 -0.5017  0.9506
   55MOL   C37949087   4.533   6.518   7.749  0.5637  0.6019 -0.5458
   55MOL   C38049088   4.557   6.380   7.731  0.6013 -0.0019 -0.0447
   55MOL   C38149089   4.535   6.292   7.840  0.4396  0.4689  0.1959
   55MOL   C38249090   4.492   6.333   7.964 -0.4488  0.0111 -0.2462
   55MOL   C38349091   4.488   6.470   7.987  0.1053  0.0753  0.6286
   55MOL   C38449092   4.564   6.150   7.806 -0.0008 -0.4026  0.4582
   55MOL   C38549093   4.634   6.077   7.910 -0.4210 -0.2394  0.1188
   55MOL   C38649094   4.680   5.945   7.881 -0.8410 -0.7032  0.0031
   55MOL   C38749095   4.659   5.891   7.754 -0.4106  0.9320  1.1763
   55MOL   C38849096   4.581   5.959   7.656  0.2689  0.2777  0.4847
   55MOL   C38949097   4.535   6.092   7.681 -0.0178  0.1426  0.1899
   55MOL   O39049098   4.717   5.771   7.718 -0.0341 -0.1723  0.3449
   55MOL   H39149099   4.394   6.847   7.249  0.4229  0.5691 -0.9441
   55MOL   H39249100   4.250   6.805   7.443  0.5694  0.6038  0.6496
   55MOL   H39349101   4.025   7.156   7.372 -0.9636 -0.2295 -1.3921
   55MOL   H39449102   4.156   7.201   7.172  0.1747 -1.3823 -1.6244
   55MOL   H39549103   4.337   7.025   7.634 -3.2269  0.8732 -0.6271
   55MOL   H39649104   4.509   6.900   7.748 -0.9760  0.7967 -1.3224
   55MOL   H39749105   4.209   6.631   7.907  0.9718 -0.6934 -0.1113
   55MOL   H39849106   4.037   6.751   7.775  0.5377 -2.5021  1.1768
   55MOL   H39949107   4.568   6.593   7.679  1.8393  0.1423 -0.4296
   55MOL   H40049108   4.591   6.352   7.633 -0.0962  2.9669 -1.1934
   55MOL   H40149109   4.459   6.265   8.042 -0.9061  0.0459 -0.4072
   55MOL   H40249110   4.457   6.506   8.084 -1.4298 -1.7872  0.8529
   55MOL   H40349111   4.644   6.126   8.006  1.2299  0.2598 -0.3047
   55MOL   H40449112   4.740   5.901   7.959 -1.6161 -0.1883  0.8873
   55MOL   H40549113   4.550   5.910   7.565  0.8061  1.4123 -0.3237
   55MOL   H40649114   4.475   6.136   7.603  1.9521 -0.1368 -1.5519
   55MOL   C40749115   4.852   5.777   7.687 -0.9412 -0.3029 -0.3577
   55MOL   C40849116   4.909   5.809   7.557  0.2220  0.8795  0.4449
   55MOL   C40949117   5.041   5.777   7.529 -0.7991 -0.6366  0.5544
   55MOL   C41049118   5.123   5.718   7.634 -0.1947  0.6118 -0.3423
   55MOL   C41149119   5.073   5.695   7.760  0.3649  0.0689  0.0850
   55MOL   C41249120   4.935   5.729   7.789 -0.1046  0.1127  0.5705
   55MOL   S41349121   5.296   5.681   7.595 -0.1186 -0.0360 -0.1722
   55MOL   O41449122   5.321   5.541   7.631  0.3216 -0.0070 -0.1176
   55MOL   O41549123   5.371   5.779   7.674  0.3500  0.1658 -0.4490
   55MOL   C41649124   5.323   5.709   7.419  0.1500 -0.2773  0.0290
   55MOL   C41749125   5.363   5.838   7.369  0.4646 -0.0144  0.2588
   55MOL   C41849126   5.378   5.854   7.231 -0.6336 -0.3507  0.1259
   55MOL   C41949127   5.359   5.747   7.136  0.0405 -0.3210 -0.8297
   55MOL   C42049128   5.326   5.619   7.189  0.0366 -0.0670 -0.8045
   55MOL   C42149129   5.302   5.602   7.325 -0.0581 -0.9257 -0.4914
   55MOL   O42249130   5.369   5.761   7.001  0.1892 -0.7363 -0.1955
   55MOL   C42349131   5.425   5.872   6.941 -0.4709  1.2738 -0.5682
   55MOL   C42449132   5.339   5.974   6.892  0.4915 -0.7338  0.4080
   55MOL   C42549133   5.389   6.077   6.821 -0.1053 -0.5284  0.4653
   55MOL   C42649134   5.526   6.093   6.801  0.2747 -0.2778 -0.4714
   55MOL   C42749135   5.618   6.008   6.869 -0.2058 -0.3552 -1.0191
   55MOL   C42849136   5.565   5.892   6.937 -0.3025 -0.4875 -0.0223
   55MOL   C42949137   5.581   6.208   6.730  0.1956 -0.0022  0.1955
   55MOL   C43049138   5.696   6.190   6.642  0.4221 -0.2632 -0.0010
   55MOL   C43149139   5.761   6.306   6.590  0.2520  0.3052 -0.4230
   55MOL   C43249140   5.705   6.435   6.625  0.5651  0.7470  1.0476
   55MOL   C43349141   5.587   6.448   6.703  0.0309 -0.2743 -0.1833
   55MOL   C43449142   5.531   6.335   6.764  0.2933  0.0404 -0.8733
   55MOL   O43549143   5.769   6.543   6.576  0.2010  0.6910  0.1545
   55MOL   H43649144   4.843   5.848   7.482  1.1872 -0.9616 -1.4283
   55MOL   H43749145   5.086   5.787   7.432  0.9409  1.0420  1.4916
   55MOL   H43849146   5.135   5.641   7.830 -1.6376 -1.7171  0.5396
   55MOL   H43949147   4.885   5.709   7.882 -0.7091 -0.5153  0.1086
   55MOL   H44049148   5.386   5.918   7.438  0.1159 -0.1586  0.5469
   55MOL   H44149149   5.402   5.956   7.203  2.5313 -1.2139 -0.4151
   55MOL   H44249150   5.308   5.544   7.113  0.8089 -0.9898 -0.0865
   55MOL   H44349151   5.274   5.501   7.352  0.8116 -1.2311 -0.7415
   55MOL   H44449152   5.231   5.964   6.894  0.2106  1.7984 -0.3026
   55MOL   H44549153   5.314   6.142   6.779  0.6528  0.0025 -0.0886
   55MOL   H44649154   5.725   6.022   6.881 -0.1334  0.8887 -2.9185
   55MOL   H44749155   5.633   5.826   6.989 -0.5014 -0.0736  0.7838
   55MOL   H44849156   5.730   6.094   6.605 -0.1112 -0.9124  1.1483
   55MOL   H44949157   5.845   6.301   6.522  1.2864  1.9516  0.7050
   55MOL   H45049158   5.561   6.547   6.738  0.5708 -0.4828  0.8200
   55MOL   H45149159   5.454   6.346   6.839  0.3526 -1.8566 -0.5222
   55MOL   C45249160   5.710   6.649   6.500  0.0377  0.3249  0.3737
   55MOL   C45349161   5.648   6.623   6.379  0.1130  0.1405  1.1920
   55MOL   C45449162   5.601   6.731   6.296 -0.2487  0.2103 -0.2120
   55MOL   C45549163   5.620   6.862   6.341  0.3948  0.3711  0.0399
   55MOL   C45649164   5.678   6.888   6.463 -0.3089  0.1613  0.3850
   55MOL   C45749165   5.727   6.781   6.540 -0.2676 -0.8750  0.4917
   55MOL   S45849166   5.552   6.991   6.241 -0.1578  0.1727 -0.0850
   55MOL   O45949167   5.515   6.936   6.110  0.4228  0.1789  0.1583
   55MOL   O46049168   5.643   7.110   6.250 -0.1393 -0.3869 -0.1760
   55MOL   C46149169   5.409   7.038   6.334 -0.3828 -0.1763  0.0021
   55MOL   C46249170   5.420   7.141   6.433 -0.0418 -0.4094  0.3210
   55MOL   C46349171   5.308   7.194   6.501  0.3665  0.4145 -0.0497
   55MOL   C46449172   5.179   7.143   6.465  0.3162 -0.1343 -0.2042
   55MOL   C46549173   5.165   7.039   6.368 -0.2139  1.4611  0.0231
   55MOL   C46649174   5.280   6.989   6.303 -1.0655 -0.6938  0.3441
   55MOL   O46749175   5.066   7.175   6.537 -0.0558 -0.2110 -0.4653
   55MOL   C46849176   4.987   7.264   6.472  0.0422  0.2971 -0.0999
   55MOL   C46949177   4.873   7.218   6.403 -0.1199 -0.5047 -0.1029
   55MOL   C47049178   4.790   7.312   6.338  0.8214  0.3751 -0.3897
   55MOL   C47149179   4.823   7.451   6.343  0.3257 -0.1753  0.7071
   55MOL   C47249180   4.934   7.493   6.412  0.7145 -0.1630 -0.2438
   55MOL   C47349181   5.017   7.400   6.478  0.3972 -0.1321  0.0550
   55MOL   C47449182   4.735   7.549   6.275 -0.0807  0.1280  0.0491
   55MOL   C47549183   4.600   7.517   6.256  0.1344 -0.3930  0.7577
   55MOL   C47649184   4.516   7.596   6.178  0.4379  1.0515  0.5819
   55MOL   C47749185   4.565   7.718   6.119 -0.9469  0.2062 -0.3436
   55MOL   C47849186   4.706   7.750   6.136 -0.6919  0.9400  0.2303
   55MOL   C47949187   4.788   7.662   6.213  0.1276 -0.5533  0.2225
   55MOL   O48049188   4.478   7.812   6.067 -0.0936  0.4609 -0.3371
   55MOL   H48149189   5.638   6.520   6.348 -0.8960  0.4795  0.3521
   55MOL   H48249190   5.571   6.714   6.194  0.1529 -0.0802 -0.2837
   55MOL   H48349191   5.693   6.992   6.487 -0.2613 -0.2089  2.0334
   55MOL   H48449192   5.777   6.810   6.631 -2.4599 -1.5186  1.9326
   55MOL   H48549193   5.519   7.176   6.457  0.1593  0.9565 -2.3124
   55MOL   H48649194   5.316   7.279   6.566  1.6433  1.0198 -0.9923
   55MOL   H48749195   5.063   7.011   6.349  0.2770  0.5004 -1.2359
   55MOL   H48849196   5.269   6.917   6.223  0.3805  0.9351 -1.3575
   55MOL   H48949197   4.846   7.114   6.394 -0.3644 -0.3887 -0.7675
   55MOL   H49049198   4.696   7.275   6.300  0.1411  0.0517  1.5592
   55MOL   H49149199   4.971   7.594   6.414 -2.7414  1.1366  0.4637
   55MOL   H49249200   5.108   7.431   6.528 -0.4446  0.2699  1.3413
   55MOL   H49349201   4.549   7.434   6.303 -2.9561 -0.2637 -2.2304
   55MOL   H49449202   4.412   7.569   6.169  0.6757  0.8850 -2.0776
   55MOL   H49549203   4.738   7.840   6.087 -3.3447  1.1654 -1.1426
   55MOL   H49649204   4.896   7.673   6.210  0.0580  0.4987  1.1596
   55MOL   C49749205   4.427   7.801   5.936 -0.3294 -0.0159  0.5726
   55MOL   C49849206   4.501   7.804   5.820 -0.6346 -0.5171 -0.0850
   55MOL   C49949207   4.428   7.804   5.696  1.0560  0.3954 -0.1969
   55MOL   C50049208   4.288   7.805   5.689  0.6835  0.4811 -0.5958
   55MOL   C50149209   4.215   7.797   5.806  0.6722 -0.4642 -0.2760
   55MOL   C50249210   4.284   7.785   5.926  0.4949 -0.6923  0.6626
   55MOL   S50349211   4.202   7.827   5.525 -0.1719  0.0471  0.1472
   55MOL   O50449212   4.100   7.721   5.519  0.5615 -0.8958 -0.0507
   55MOL   O50549213   4.314   7.840   5.428  0.0137 -0.1918  0.0464
   55MOL   C50649214   4.117   7.986   5.550 -0.6413 -0.2366 -0.0006
   55MOL   C50749215   4.003   7.990   5.632 -0.1471  0.6610  0.4764
   55MOL   C50849216   3.932   8.116   5.651  0.2867  0.1648  0.3697
   55MOL   C50949217   3.963   8.225   5.566  0.5245  0.4660  0.1259
   55MOL   C51049218   4.073   8.218   5.477 -0.4512 -0.3022  0.2464
   55MOL   C51149219   4.160   8.102   5.476  0.3036  0.9619  0.4226
   55MOL   O51249220   3.878   8.331   5.554  0.1894  0.0395 -0.4862
   55MOL   C51349221   3.862   0.043   5.671  0.0361 -0.3582  0.8895
   55MOL   C51449222   3.747   0.025   5.751 -0.4659 -0.5826 -0.0567
   55MOL   C51549223   3.734   0.093   5.877  0.7567  0.0719  0.5530
   55MOL   C51649224   3.833   0.191   5.909  0.0036  0.5306  0.1378
   55MOL   C51749225   3.935   0.222   5.815 -0.5839  0.7605  0.6398
   55MOL   C51849226   3.956   0.143   5.699  0.7304  1.0508 -0.0427
   55MOL   C51949227   3.820   0.257   6.039  0.1076 -0.3065 -0.5812
   55MOL   C52049228   3.737   0.371   6.063 -0.5269 -0.9901 -0.5010
   55MOL   C52149229   3.736   0.446   6.181  0.2216 -0.2474 -0.7177
   55MOL   C52249230   3.815   0.401   6.289 -0.5256 -0.2010  0.1095
   55MOL   C52349231   3.898   0.289   6.271  0.1354  0.4203  0.3234
   55MOL   C52449232   3.902   0.217   6.148  0.4137 -0.6853 -0.8454
   55MOL   O52549233   3.832   0.473   6.410 -0.1363 -0.2444  0.4746
   55MOL   H52649234   4.609   7.807   5.817 -0.6282 -0.0152  0.5146
   55MOL   H52749235   4.482   7.791   5.604  3.8428  0.3112  1.3786
   55MOL   H52849236   4.109   7.779   5.803  1.0790 -3.3243  0.5328
   55MOL   H52949237   4.230   7.761   6.017  2.3706 -0.6637  1.8193
   55MOL   H53049238   3.983   7.906   5.697  1.2780  0.1226  0.2358
   55MOL   H53149239   3.847   8.125   5.718 -1.0774 -2.0104 -1.0017
   55MOL   H53249240   4.107   8.296   5.409 -2.6868  0.0565 -0.4942
   55MOL   H53349241   4.248   8.094   5.414  1.2552 -4.0753  2.2683
   55MOL   H53449242   3.663   8.331   5.718 -0.9183 -0.1420  0.2852
   55MOL   H53549243   3.641   0.074   5.929 -0.8562  2.4979 -1.3768
   55MOL   H53649244   4.002   0.306   5.828  0.0428  0.2220  0.9063
   55MOL   H53749245   4.041   0.151   5.633  2.4164 -0.8277  1.8460
   55MOL   H53849246   3.673   0.415   5.988 -0.6855  1.5660  1.1042
   55MOL   H53949247   3.668   0.529   6.196 -0.5253 -1.1102  0.7571
   55MOL   H54049248   3.973   0.259   6.343  1.5634  0.4938 -1.0959
   55MOL   H54149249   3.973   0.137   6.135  0.4418 -0.9355  0.7523
   55MOL   C54249250   3.815   0.608   6.411  0.5389 -0.7478  0.2850
   55MOL   C54349251   3.897   0.704   6.344 -0.0380 -0.7884  0.2163
   55MOL   C54449252   3.876   0.841   6.376 -0.5910 -0.3458 -0.1624
   55MOL   C54549253   3.780   0.879   6.474  0.1077 -0.3163  0.1707
   55MOL   C54649254   3.698   0.779   6.535 -0.4767 -0.8142  0.3057
   55MOL   C54749255   3.715   0.650   6.498 -0.0221  0.5698 -0.7461
   55MOL   S54849256   3.762   1.054   6.513  0.1263 -0.3702 -0.1515
   55MOL   O54949257   3.884   1.104   6.577 -0.2154 -0.2813  0.1078
   55MOL   O55049258   3.636   1.066   6.588 -0.0016  0.1475 -0.0456
   55MOL   C55149259   3.744   1.153   6.364 -0.0768  0.1279 -0.6583
   55MOL   C55249260   3.669   1.104   6.261 -0.6166 -0.0565 -0.0808
   55MOL   C55349261   3.652   1.189   6.149 -0.2843  0.0773 -0.1101
   55MOL   C55449262   3.716   1.315   6.146  0.5767 -0.5318  0.0941
   55MOL   C55549263   3.791   1.362   6.254  0.6908  0.8247 -0.1716
   55MOL   C55649264   3.801   1.281   6.369  0.1412 -0.5936 -0.0888
   55MOL   O55749265   3.705   1.403   6.037  0.0328  0.0773 -0.4834
   55MOL   C55849266   3.809   1.371   5.944  0.1325 -0.4870 -0.1360
   55MOL   C55949267   3.926   1.448   5.946  0.0031  0.5955  0.0375
   55MOL   C56049268   4.031   1.419   5.861  0.4566 -1.0707 -0.1467
   55MOL   C56149269   4.023   1.322   5.766 -0.1021 -0.2582 -0.2362
   55MOL   C56249270   3.905   1.249   5.759 -0.3761  0.1830  0.6673
   55MOL   C56349271   3.802   1.263   5.853 -0.1042  0.7708 -0.2200
   55MOL   C56449272   4.122   1.304   5.662 -0.2488 -0.0958 -0.0761
   55MOL   C56549273   4.211   1.198   5.653  0.5378 -0.8053 -0.3567
   55MOL   C56649274   4.311   1.192   5.552 -1.1937  0.2333 -0.0129
   55MOL   C56749275   4.309   1.286   5.450  0.5741 -0.3112 -0.4676
   55MOL   C56849276   4.212   1.386   5.457  0.2301  0.6876  0.3420
   55MOL   C56949277   4.115   1.401   5.560  0.5790  0.0208  0.1444
   55MOL   O57049278   4.404   1.278   5.352  0.9007  0.5174 -0.3268
   55MOL   H57149279   3.959   0.671   6.262  2.5061  0.0184  1.7485
   55MOL   H57249280   3.923   0.918   6.316  3.2122 -1.1084  1.6547
   55MOL   H57349281   3.620   0.808   6.605  1.8001  0.4520  2.4222
   55MOL   H57449282   3.650   0.573   6.537  1.5299  0.0166  0.8019
   55MOL   H57549283   3.639   1.001   6.263  1.6569 -0.8362 -3.0205
   55MOL   H57649284   3.597   1.153   6.063  0.1580 -0.5609 -0.1328
   55MOL   H57749285   3.836   1.460   6.253 -0.1205  1.2219  0.8321
   55MOL   H57849286   3.847   1.320   6.459  1.4660 -0.1595 -0.9422
   55MOL   H57949287   3.936   1.524   6.022  1.3732  0.0694  0.3995
   55MOL   H58049288   4.119   1.478   5.882  0.2465 -0.2785 -1.4272
   55MOL   H58149289   3.902   1.168   5.688  1.6479 -1.5471  2.5223
   55MOL   H58249290   3.709   1.208   5.849  0.5492 -0.2379 -1.8012
   55MOL   H58349291   4.215   1.129   5.737  2.4725 -0.4942 -0.1593
   55MOL   H58449292   4.393   1.122   5.558 -0.6513  1.0408  3.6906
   55MOL   H58549293   4.218   1.470   5.390  0.4081  0.9896  0.7305
   55MOL   H58649294   4.042   1.480   5.553  2.6690  1.9377 -0.4612
   55MOL   C58749295   4.495   1.380   5.346 -0.1910  0.1902 -0.3669
   55MOL   C58849296   4.590   1.402   5.447 -0.0340 -0.7659 -0.0575
   55MOL   C58949297   4.670   1.520   5.444  0.1449  0.6275 -0.0303
   55MOL   C59049298   4.665   1.609   5.337  0.2748  0.2756  0.0398
   55MOL   C59149299   4.567   1.586   5.233  0.5241  0.2649  0.3048
   55MOL   C59249300   4.482   1.471   5.238  0.2701  0.8934  0.0681
   55MOL   S59349301   4.754   1.768   5.351 -0.5357  0.5442  0.4717
   55MOL   O59449302   4.743   1.844   5.223 -0.3053 -0.0176 -0.3919
   55MOL   O59549303   4.895   1.741   5.401 -0.2645 -0.1232 -0.5946
   55MOL   C59649304   4.661   1.867   5.475 -0.7567  0.4813  0.4329
   55MOL   C59749305   4.677   1.849   5.609  0.1959  1.5083  0.0687
   55MOL   C59849306   4.595   1.913   5.704  0.8523  0.2428  0.0999
   55MOL   C59949307   4.505   2.014   5.656  0.1952 -0.2956 -0.5955
   55MOL   C60049308   4.494   2.034   5.518 -0.2917  0.0165  0.2062
   55MOL   C60149309   4.568   1.959   5.426 -0.3790 -0.3585  0.3043
   55MOL   O60249310   4.423   2.085   5.739  0.1550  0.1686  0.0174
   55MOL   C60349311   4.409   2.216   5.719  0.1515  0.0929  0.1780
   55MOL   C60449312   4.519   2.294   5.762  0.3015 -0.1026  0.3419
   55MOL   C60549313   4.530   2.432   5.735  0.0659 -0.0107  0.0555
   55MOL   C60649314   4.431   2.496   5.654 -0.5359  1.1050 -0.3172
   55MOL   C60749315   4.313   2.414   5.618  0.0304  0.8105  0.3066
   55MOL   C60849316   4.302   2.278   5.654 -0.5842 -0.2441 -0.1045
   55MOL   C60949317   4.447   2.632   5.608  0.0375 -0.4582 -0.0155
   55MOL   C61049318   4.345   2.731   5.616 -0.1624 -0.1287  0.0199
   55MOL   C61149319   4.364   2.862   5.570  0.0916  0.1720 -0.5204
   55MOL   C61249320   4.487   2.902   5.522  0.7590 -0.4839 -0.6372
   55MOL   C61349321   4.587   2.804   5.508 -0.6381  0.6913  0.2709
   55MOL   C61449322   4.574   2.670   5.557 -0.0171  0.1476  0.4365
   55MOL   O61549323   4.499   3.033   5.482 -0.3536  0.5384  0.5420
   55MOL   H61649324   4.594   1.331   5.529 -0.1937 -1.2644 -0.4817
   55MOL   H61749325   4.738   1.546   5.524 -0.4251  3.5052 -0.4369
   55MOL   H61849326   4.561   1.657   5.153 -0.8149 -0.2673 -0.0843
   55MOL   H61949327   4.403   1.456   5.165 -0.1522  0.4708  0.6086
   55MOL   H62049328   4.744   1.771   5.642  0.7667  2.2047  0.5592
   55MOL   H62149329   4.596   1.892   5.809  2.5714  2.3893  0.5597
   55MOL   H62249330   4.422   2.108   5.484  1.8333  2.0057 -0.1238
   55MOL   H62349331   4.565   1.970   5.319  1.7047 -2.7854 -0.0545
   55MOL   H62449332   4.607   2.251   5.807  0.3730  0.7547  1.0477
   55MOL   H62549333   4.621   2.480   5.767 -1.0598  1.5930  0.9069
   55MOL   H62649334   4.237   2.464   5.558  1.0326  1.5558 -0.3639
   55MOL   H62749335   4.214   2.217   5.639 -3.4277  3.1030  2.2664
   55MOL   H62849336   4.241   2.709   5.633  0.0176 -2.2858 -1.4204
   55MOL   H62949337   4.281   2.931   5.564  0.3392  0.2799 -2.9486
   55MOL   H63049338   4.684   2.833   5.471 -0.8361 -0.8235 -1.4783
   55MOL   H63149339   4.658   2.603   5.557 -2.3367 -2.8960 -0.9112
   55MOL   C63249340   4.597   3.055   5.390 -0.3631  0.2234 -1.0430
   55MOL   C63349341   4.573   3.042   5.253  0.1807 -0.3378  0.0742
   55MOL   C63449342   4.686   3.056   5.165 -0.0626  0.5839  0.3923
   55MOL   C63549343   4.815   3.075   5.221  0.0828 -0.0042  0.0761
   55MOL   C63649344   4.833   3.099   5.361 -0.1999  0.3543 -0.2100
   55MOL   C63749345   4.718   3.091   5.442  1.1673 -0.5512  0.1119
   55MOL   S63849346   4.960   3.068   5.111  0.3050  0.3404 -0.0507
   55MOL   O63949347   5.047   2.971   5.178 -0.2216 -0.4638  0.3530
   55MOL   O64049348   5.005   3.211   5.096  0.5204 -0.1547  0.4455
   55MOL   C64149349   4.907   3.013   4.951 -0.7643  0.2157  0.2353
   55MOL   C64249350   4.939   2.882   4.896  0.4673  0.3546 -0.0101
   55MOL   C64349351   4.927   2.859   4.756  0.6188 -0.1326  0.4624
   55MOL   C64449352   4.861   2.953   4.678 -0.2643 -0.7830  0.5041
   55MOL   C64549353   4.823   3.076   4.733  0.2489  0.4935  0.1931
   55MOL   C64649354   4.844   3.101   4.863 -0.1900  0.4544 -0.5973
   55MOL   O64749355   4.838   2.938   4.542 -0.4852  0.2413 -0.5245
   55MOL   C64849356   4.735   2.848   4.512 -0.4901 -0.2890 -0.2135
   55MOL   C64949357   4.598   2.889   4.497  0.7461  0.0823  0.4377
   55MOL   C65049358   4.500   2.798   4.459  0.4645  0.1892  0.0855
   55MOL   C65149359   4.536   2.665   4.434  0.1984  0.0397 -1.1201
   55MOL   C65249360   4.673   2.632   4.435  0.2536 -0.0355  0.7821
   55MOL   C65349361   4.775   2.718   4.475  0.6009  0.7628  0.3236
   55MOL   C65449362   4.428   2.565   4.403 -0.1297  0.4946 -0.6250
   55MOL   C65549363   4.446   2.430   4.439 -0.0838  0.0418 -0.8456
   55MOL   C65649364   4.350   2.335   4.415  0.0810 -0.5919 -0.0431
   55MOL   C65749365   4.239   2.374   4.336  0.0679  0.8508 -0.0121
   55MOL   C65849366   4.220   2.509   4.295  0.0043 -0.2013  0.0876
   55MOL   C65949367   4.314   2.606   4.334 -0.5202 -0.3782  0.2044
   55MOL   O66049368   4.150   2.279   4.279  0.3834  0.4299  0.1103
   55MOL   H66149369   4.476   3.018   5.213 -0.5741  2.1506  0.3066
   55MOL   H66249370   4.673   3.032   5.060 -1.5219 -1.3712  0.9872
   55MOL   H66349371   4.931   3.111   5.405 -0.1742  2.8528 -0.8906
   55MOL   H66449372   4.728   3.096   5.549 -0.1917  0.8907  0.1961
   55MOL   H66549373   4.997   2.815   4.959  0.5100  0.2517 -0.1600
   55MOL   H66649374   4.960   2.767   4.711 -2.3092 -0.9777 -0.0923
   55MOL   H66749375   4.775   3.151   4.672 -0.3871  0.3602  0.5234
   55MOL   H66849376   4.817   3.196   4.906  0.6713  1.4501 -2.2432
   55MOL   H66949377   4.572   2.992   4.514  1.0092  0.3259 -0.6564
   55MOL   H67049378   4.397   2.830   4.456  1.3016  3.0087 -0.1418
   55MOL   H67149379   4.701   2.537   4.391  0.7267  0.8433 -0.8655
   55MOL   H67249380   4.875   2.680   4.483 -0.5593 -1.8682  3.0019
   55MOL   H67349381   4.530   2.396   4.499 -1.2677  1.1031  1.4690
   55MOL   H67449382   4.362   2.232   4.445  3.0138 -0.8669 -2.0009
   55MOL   H67549383   4.127   2.546   4.253  1.0713  0.7827 -1.4868
   55MOL   H67649384   4.301   2.708   4.301  0.8576 -0.9598 -2.3298
   55MOL   C67749385   4.018   2.270   4.323 -0.6836  0.3374  0.1015
   55MOL   C67849386   3.994   2.261   4.465  0.9183 -0.5737 -0.3539
   55MOL   C67949387   3.857   2.248   4.507 -0.5704 -0.0305  0.0681
   55MOL   C68049388   3.753   2.244   4.416  0.3944  0.5810  0.3760
   55MOL   C68149389   3.781   2.256   4.277 -0.6369  0.1399 -0.3766
   55MOL   C68249390   3.912   2.265   4.227  0.1852 -0.5861  0.0406
   55MOL   S68349391   3.591   2.265   4.472  0.0091 -0.2469  0.1784
   55MOL   O68449392   3.522   2.355   4.378  0.3423  0.3573  0.0237
   55MOL   O68549393   3.600   2.313   4.612 -0.1304 -0.2861 -0.2983
   55MOL   C68649394   3.529   2.097   4.477  0.5460 -0.6257  0.0102
   55MOL   C68749395   3.501   2.025   4.360  0.4999 -0.1003 -0.9576
   55MOL   C68849396   3.434   1.896   4.371 -0.7628  0.0561 -0.0344
   55MOL   C68949397   3.408   1.833   4.494 -0.5844  0.8485 -0.5324
   55MOL   C69049398   3.439   1.903   4.611  0.4356 -1.0276  0.0121
   55MOL   C69149399   3.492   2.031   4.598  0.2022 -0.2339  0.4141
   55MOL   O69249400   3.367   1.699   4.490  0.1721  0.3843  0.5041
   55MOL   C69349401   3.455   1.603   4.435  0.2295 -0.1003 -0.3325
   55MOL   C69449402   3.403   1.491   4.369  0.4186  0.3063 -0.1571
   55MOL   C69549403   3.490   1.392   4.333 -1.1112  0.4794  0.2339
   55MOL   C69649404   3.635   1.401   4.346  0.0130  0.8968 -0.1803
   55MOL   C69749405   3.687   1.516   4.411  0.1247 -0.4878  0.0083
   55MOL   C69849406   3.595   1.625   4.443 -0.1729  0.5947 -0.3994
   55MOL   C69949407   3.727   1.298   4.293  0.3015 -0.1312 -0.1032
   55MOL   C70049408   3.697   1.163   4.298 -0.3470 -0.2596 -0.5345
   55MOL   C70149409   3.794   1.063   4.259  0.1387  0.0277 -1.1513
   55MOL   C70249410   3.912   1.101   4.190 -0.1895 -0.1523 -0.2571
   55MOL   C70349411   3.941   1.239   4.176 -0.1252 -0.2397 -0.7450
   55MOL   C70449412   3.851   1.334   4.228  0.5510 -0.6253  0.0184
   55MOL   O70549413   4.007   1.006   4.147  0.1513  0.4012  0.5499
   55MOL   H70649414   4.065   2.264   4.545  2.2052  1.7260 -1.5396
   55MOL   H70749415   3.841   2.246   4.614  0.9047 -0.2639  0.2903
   55MOL   H70849416   3.697   2.279   4.212 -0.1416 -1.7972 -1.7469
   55MOL   H70949417   3.927   2.265   4.120  1.3894 -1.6953  0.2047
   55MOL   H71049418   3.518   2.058   4.259 -0.1509  1.1142 -0.6760
   55MOL   H71149419   3.399   1.845   4.282 -1.5495  0.7835 -0.1455
   55MOL   H71249420   3.419   1.855   4.705  0.5473 -1.5944 -0.2493
   55MOL   H71349421   3.507   2.086   4.689 -0.0314 -0.3634  0.5331
   55MOL   H71449422   3.296   1.478   4.355  0.5654  0.0189 -1.0471
   55MOL   H71549423   3.442   1.306   4.287 -0.1306  0.1914 -0.2589
   55MOL   H71649424   3.794   1.523   4.422  0.0546 -1.7558  1.7605
   55MOL   H71749425   3.641   1.716   4.478  2.8276 -0.9642 -0.0574
   55MOL   H71849426   3.608   1.122   4.343  1.0498 -2.2322  0.5079
   55MOL   H71949427   3.772   0.958   4.271 -1.8856  0.6643  1.3112
   55MOL   H72049428   4.035   1.265   4.130  0.0959 -0.1718 -0.2640
   55MOL   H72149429   3.872   1.440   4.230  1.5206 -0.7979 -0.5427
   55MOL   C72249430   3.980   0.934   4.030 -0.0585  0.3338 -0.0738
   55MOL   C72349431   3.903   0.980   3.921  0.3340  0.5343  0.9105
   55MOL   C72449432   3.889   0.904   3.800  0.4257  0.4276  0.2445
   55MOL   C72549433   3.958   0.782   3.790 -0.1739  0.4524 -0.0092
   55MOL   C72649434   4.036   0.731   3.896  0.4790  0.4053  0.7536
   55MOL   C72749435   4.043   0.808   4.020  0.5361 -0.0712 -0.0374
   55MOL   S72849436   3.943   0.683   3.636  0.0198  0.2077 -0.2667
   55MOL   O72949437   3.878   0.772   3.540  0.0615  0.2335 -0.2499
   55MOL   O73049438   3.877   0.557   3.679  0.4932 -0.3106  0.6767
   55MOL   C73149439   4.105   0.643   3.589 -0.2058  0.2456 -0.2787
   55MOL   C73249440   4.208   0.742   3.586 -0.5090 -0.5704 -0.1453
   55MOL   C73349441   4.347   0.704   3.558  0.8029  0.2577 -0.5075
   55MOL   C73449442   4.378   0.566   3.537  0.6235  0.4525 -0.0593
   55MOL   C73549443   4.277   0.468   3.531 -0.5108 -0.1449 -0.0044
   55MOL   C73649444   4.145   0.507   3.570  0.2689 -0.8831  0.2691
   55MOL   O73749445   4.508   0.532   3.503  0.8546 -1.0811  0.1188
   55MOL   C73849446   4.576   0.455   3.593 -0.0853  0.6248 -0.0065
   55MOL   C73949447   4.621   0.327   3.567 -0.1064  0.1085 -0.9514
   55MOL   C74049448   4.692   0.253   3.667  0.8556 -0.5639  0.5007
   55MOL   C74149449   4.721   0.307   3.795  0.3537  0.4865  0.6852
   55MOL   C74249450   4.659   0.428   3.825 -0.4595 -0.0659  0.1907
   55MOL   C74349451   4.597   0.507   3.724  0.5903 -0.0809 -0.3976
   55MOL   C74449452   4.791   0.230   3.901  0.0224 -0.3047 -0.6152
   55MOL   C74549453   4.783   0.091   3.914  0.2053  0.2866 -0.1610
   55MOL   C74649454   4.872   0.020   3.999 -0.3228  0.2909  0.2466
   55MOL   C74749455   4.972   0.090   4.073  0.0398  0.4484 -0.4627
   55MOL   C74849456   4.978   0.229   4.063 -0.1921 -0.3337  0.2342
   55MOL   C74949457   4.889   0.296   3.977 -0.0503 -0.2541 -0.5721
   55MOL   O75049458   5.064   0.014   4.151 -0.2589  0.2689 -0.5220
   55MOL   H75149459   3.847   1.072   3.925  0.5075  0.6537  0.6024
   55MOL   H75249460   3.821   0.944   3.726  2.9388  0.5678 -2.0608
   55MOL   H75349461   4.088   0.637   3.886 -0.8536 -0.2897  0.1317
   55MOL   H75449462   4.091   0.758   4.103  0.8795 -3.3705 -2.1614
   55MOL   H75549463   4.183   0.846   3.600  2.0891  0.1246 -0.3822
   55MOL   H75649464   4.427   0.776   3.543  0.7455  0.1152 -1.5740
   55MOL   H75749465   4.300   0.366   3.506 -1.3377  0.0284 -1.5545
   55MOL   H75849466   4.070   0.430   3.571  1.5516 -2.1733 -1.2530
   55MOL   H75949467   4.602   0.280   3.472 -1.0960  0.2615 -0.8393
   55MOL   H76049468   4.730   0.156   3.638 -0.2418 -0.9693  0.4025
   55MOL   H76149469   4.682   0.466   3.923  0.2968 -0.1760  0.0547
   55MOL   H76249470   4.575   0.611   3.745 -0.5133 -0.7871  2.0843
   55MOL   H76349471   4.713   0.044   3.847  1.8126 -4.4577  1.3258
   55MOL   H76449472   4.882   8.278   4.002 -2.5692  0.0604  0.5329
   55MOL   H76549473   5.063   0.284   4.100 -0.7747 -0.0000  1.0853
   55MOL   H76649474   4.894   0.404   3.970 -0.0343 -0.1586  0.7261
   55MOL   C76749475   5.065   0.039   4.289 -0.6794 -0.1253  0.7051
   55MOL   C76849476   4.940   0.039   4.362 -1.0717  1.4649  0.4627
   55MOL   C76949477   4.943   0.053   4.506 -0.2287 -0.2565 -0.2903
   55MOL   C77049478   5.065   0.058   4.575  0.2050  0.0162 -0.6616
   55MOL   C77149479   5.186   0.060   4.505  0.3102 -0.2419 -0.1124
   55MOL   C77249480   5.184   0.055   4.362  0.7584 -0.3420 -0.4161
   55MOL   S77349481   5.065   0.050   4.755 -0.2679  0.4074  0.4772
   55MOL   O77449482   5.181   0.122   4.801 -0.5397 -0.4379  0.3207
   55MOL   O77549483   5.052   8.278   4.800  0.1484 -0.5066 -0.2327
   55MOL   C77649484   4.917   0.143   4.817 -0.1481  0.3313  0.6860
   55MOL   C77749485   4.796   0.070   4.834  0.4134 -0.1174 -0.4742
   55MOL   C77849486   4.679   0.139   4.877 -0.5620  0.1857  0.4336
   55MOL   C77949487   4.691   0.279   4.900 -0.3019  0.3316  0.2791
   55MOL   C78049488   4.809   0.353   4.878 -0.2883 -0.3282 -0.6378
   55MOL   C78149489   4.925   0.285   4.842 -0.0909 -0.2389 -0.2123
   55MOL   O78249490   4.572   0.345   4.935 -0.0147  0.1149  0.1936
   55MOL   C78349491   4.526   0.455   4.860 -0.5698 -0.5572  0.3985
   55MOL   C78449492   4.542   0.474   4.723  0.7122 -0.0988  0.1129
   55MOL   C78549493   4.487   0.583   4.658  1.0942  0.0440  0.3414
   55MOL   C78649494   4.411   0.679   4.730  0.5721 -0.4985 -0.4579
   55MOL   C78749495   4.389   0.658   4.867 -0.8118 -0.5995 -0.4535
   55MOL   C78849496   4.450   0.547   4.930 -0.1162 -0.6318 -0.1308
   55MOL   C78949497   4.350   0.803   4.666 -0.5279  0.0401  0.1589
   55MOL   C79049498   4.264   0.784   4.562  0.6321  0.2138 -0.5664
   55MOL   C79149499   4.198   0.889   4.497 -0.6504  0.2440  0.5885
   55MOL   C79249500   4.225   1.019   4.539  0.4422  0.7374  0.0431
   55MOL   C79349501   4.316   1.040   4.647  0.4074 -0.0460  0.6892
   55MOL   C79449502   4.373   0.932   4.714  0.3963 -0.0787  0.1089
   55MOL   O79549503   4.151   1.118   4.482  0.2120  0.0999 -0.0329
   55MOL   H79649504   4.847   0.021   4.309 -0.1409  1.4433 -1.1873
   55MOL   H79749505   4.846   0.044   4.553  0.0277 -0.0581  0.2846
   55MOL   H79849506   5.283   0.080   4.549 -0.3811 -0.7777  1.6948
   55MOL   H79949507   5.283   0.054   4.321  1.0909  1.0293  0.3325
   55MOL   H80049508   4.784   8.330   4.816 -0.9987  0.0253 -0.4232
   55MOL   H80149509   4.593   0.081   4.908  0.5500 -1.6678  0.1251
   55MOL   H80249510   4.806   0.460   4.893 -2.3005 -0.7763  2.3860
   55MOL   H80349511   5.011   0.348   4.824  0.3212 -0.4177  1.0871
   55MOL   H80449512   4.597   0.401   4.664 -0.0095 -0.5305 -0.0233
   55MOL   H80549513   4.495   0.597   4.552  0.0101 -0.8963  0.1325
   55MOL   H80649514   4.327   0.723   4.927 -0.2163 -0.5602  0.1177
   55MOL   H80749515   4.423   0.536   5.034 -0.5344  0.3938 -0.1325
   55MOL   H80849516   4.251   0.684   4.524 -1.2142 -0.7292  2.3572
   55MOL   H80949517   4.121   0.861   4.428 -0.1263 -0.0568  0.1257
   55MOL   H81049518   4.347   1.139   4.677 -3.0272  0.9547  1.0842
   55MOL   H81149519   4.444   0.944   4.794  0.8516 -3.9387  0.3812
   55MOL   C81249520   4.215   1.229   4.427 -0.3546 -0.4762  0.7046
   55MOL   C81349521   4.326   1.209   4.339 -0.2079 -0.3312 -0.6949
   55MOL   C81449522   4.381   1.314   4.263 -0.2007 -0.3614  0.1442
   55MOL   C81549523   4.339   1.444   4.287  0.0506  0.3143 -0.5122
   55MOL   C81649524   4.241   1.473   4.388 -0.1806 -0.3634  0.2805
   55MOL   C81749525   4.173   1.361   4.447  0.1690  0.5141  0.1308
   55MOL   S81849526   4.425   1.578   4.190  0.7355  0.1957  0.1161
   55MOL   O81949527   4.571   1.552   4.192  0.7242  0.4814  0.2490
   55MOL   O82049528   4.384   1.703   4.255 -0.2735 -0.1938  0.0159
   55MOL   C82149529   4.376   1.571   4.019 -0.3084 -0.0975 -0.2359
   55MOL   C82249530   4.286   1.476   3.969 -1.0570 -0.4321  0.0885
   55MOL   C82349531   4.237   1.499   3.838 -0.1376  0.3548 -0.7052
   55MOL   C82449532   4.261   1.615   3.766 -0.6951  0.0005  0.0298
   55MOL   C82549533   4.342   1.713   3.821  0.2656 -0.3919 -0.0565
   55MOL   C82649534   4.392   1.696   3.949  0.4103 -0.3754  0.2187
   55MOL   O82749535   4.200   1.627   3.642  0.2955 -0.0428  0.5267
   55MOL   C82849536   4.288   1.647   3.537 -0.0962 -0.6971 -0.0349
   55MOL   C82949537   4.332   1.772   3.502 -0.4230 -0.2988 -0.1966
   55MOL   C83049538   4.429   1.788   3.405 -0.4640 -0.3686 -0.1478
   55MOL   C83149539   4.471   1.674   3.326 -0.5039 -0.3056 -0.1506
   55MOL   C83249540   4.419   1.545   3.360  0.1359 -0.0975  0.2782
   55MOL   C83349541   4.326   1.538   3.461 -0.1758 -0.9044  0.1361
   55MOL   C83449542   4.551   1.689   3.201  0.4962 -0.7443 -0.4391
   55MOL   C83549543   4.523   1.605   3.091  0.9264 -0.1451 -0.1443
   55MOL   C83649544   4.588   1.622   2.967  0.0172  0.6106  0.0609
   55MOL   C83749545   4.672   1.732   2.950  0.6730  0.5256  0.0262
   55MOL   C83849546   4.704   1.815   3.058 -0.7560 -0.5364  0.3827
   55MOL   C83949547   4.650   1.790   3.183  0.3760 -0.3732  0.1573
   55MOL   O84049548   4.710   1.769   2.825 -0.3712 -0.5642 -0.2307
   55MOL   H84149549   4.364   1.108   4.326 -0.4949 -0.5891  0.4400
   55MOL   H84249550   4.457   1.302   4.187  1.4277  0.9137  1.5438
   55MOL   H84349551   4.221   1.574   4.421  0.4029  0.3177 -1.3896
   55MOL   H84449552   4.088   1.378   4.511 -1.0343  0.7810 -1.5112
   55MOL   H84549553   4.273   1.382   4.021 -1.0765 -0.5919 -0.2043
   55MOL   H84649554   4.181   1.417   3.794 -1.7375  1.0212  0.0789
   55MOL   H84749555   4.337   1.808   3.771 -0.3557 -0.1295  0.5052
   55MOL   H84849556   4.449   1.764   4.010  1.6124  0.6432 -1.9808
   55MOL   H84949557   4.301   1.865   3.546 -1.7843 -0.7470 -0.1640
   55MOL   H85049558   4.474   1.880   3.371 -1.7897 -0.1844 -1.4797
   55MOL   H85149559   4.442   1.454   3.307  0.9376  2.3882 -3.8812
   55MOL   H85249560   4.283   1.441   3.482  0.9788 -0.7417  3.6885
   55MOL   H85349561   4.447   1.529   3.090  1.4078 -0.6299 -0.6756
   55MOL   H85449562   4.559   1.556   2.887 -0.2754 -1.0752  1.5345
   55MOL   H85549563   4.762   1.903   3.032 -2.6009  1.1558  1.8435
   55MOL   H85649564   4.663   1.862   3.262 -2.3545 -0.1105  0.4129
   55MOL   C85749565   4.813   1.705   2.760 -0.5562 -0.1602 -1.0286
   55MOL   C85849566   4.912   1.635   2.833 -0.8818 -0.1076 -0.1631
   55MOL   C85949567   5.013   1.562   2.766  0.3803  0.0318 -0.6859
   55MOL   C86049568   5.035   1.593   2.629  0.2008 -0.1562 -0.6860
   55MOL   C86149569   4.942   1.676   2.559 -0.5037 -0.0706 -0.9363
   55MOL   C86249570   4.830   1.721   2.628  0.8987 -0.3341 -0.1605
   55MOL   S86349571   5.181   1.542   2.543 -0.1384 -0.0909 -0.0897
   55MOL   O86449572   5.287   1.645   2.551  0.3712  0.2511  0.1830
   55MOL   O86549573   5.141   1.497   2.407  0.0548 -0.1407  0.7019
   55MOL   C86649574   5.256   1.399   2.618 -0.1919  0.1571 -0.3155
   55MOL   C86749575   5.392   1.402   2.645 -0.3031  0.0833  0.1494
   55MOL   C86849576   5.458   1.288   2.687  0.6528  0.3247 -0.1241
   55MOL   C86949577   5.389   1.166   2.689 -0.3094  1.0467 -0.2945
   55MOL   C87049578   5.256   1.162   2.654  0.5343  0.0471  0.1067
   55MOL   C87149579   5.184   1.281   2.628 -0.5916  0.1969  0.4284
   55MOL   O87249580   5.452   1.051   2.723 -0.6196  0.5021  0.1892
   55MOL   C87349581   5.515   1.037   2.847 -0.0848  0.2176  0.5278
   55MOL   C87449582   5.641   0.985   2.856  0.0455 -0.1391 -0.1659
   55MOL   C87549583   5.710   0.969   2.981  0.2482  0.4437 -1.3400
   55MOL   C87649584   5.641   0.994   3.104 -0.2278  0.3351 -0.0294
   55MOL   C87749585   5.512   1.044   3.097 -0.6510 -0.6536 -0.4796
   55MOL   C87849586   5.448   1.068   2.974  0.8011 -0.6226  0.1303
   55MOL   C87949587   5.700   0.979   3.234  0.0835 -0.2349 -0.3933
   55MOL   C88049588   5.689   1.078   3.332 -0.0145 -0.2021  0.5175
   55MOL   C88149589   5.735   1.062   3.469  0.1490 -0.5051 -0.4989
   55MOL   C88249590   5.800   0.936   3.497  0.2226  0.3040 -0.9546
   55MOL   C88349591   5.807   0.834   3.399  0.1161  0.6594  0.4775
   55MOL   C88449592   5.760   0.857   3.270 -0.1472 -0.1474 -0.8738
   55MOL   O88549593   5.845   0.928   3.625  0.2494  0.5500  0.0612
   55MOL   H88649594   4.903   1.619   2.939 -2.0579  1.8809  0.0571
   55MOL   H88749595   5.097   1.517   2.817  1.1653  0.4611 -1.5983
   55MOL   H88849596   4.949   1.700   2.454 -1.7070 -1.1109 -1.2647
   55MOL   H88949597   4.744   1.768   2.582  0.1045 -1.3112  0.2783
   55MOL   H89049598   5.451   1.493   2.643  0.3712 -0.3647 -1.4479
   55MOL   H89149599   5.562   1.293   2.717  1.3034 -0.7273 -2.1309
   55MOL   H89249600   5.206   1.067   2.657  0.2299  0.2480  1.5369
   55MOL   H89349601   5.078   1.294   2.615 -0.7469 -2.4800 -1.4049
   55MOL   H89449602   5.695   0.961   2.766 -1.4844 -0.2461 -1.0688
   55MOL   H89549603   5.813   0.939   2.989  0.2768  0.8647 -0.0669
   55MOL   H89649604   5.464   1.072   3.190  0.5189 -0.6608  0.1310
   55MOL   H89749605   5.345   1.102   2.972  0.3350 -2.0433 -0.7672
   55MOL   H89849606   5.654   1.178   3.313  1.8368  0.1506 -1.2955
   55MOL   H89949607   5.741   1.143   3.541  2.8798 -0.6171 -0.5484
   55MOL   H90049608   5.855   0.738   3.416 -1.1112 -0.0372  0.1241
   55MOL   H90149609   5.771   0.780   3.196 -3.4759 -0.7250 -0.8342
   55MOL   H90249610   5.892   0.849   3.644 -0.8076 -0.6184 -2.0331
   8.36596   8.36596   8.36596
