;
; Gromacs include topology (itp) file.
; For Molecular Group XYZ
; Force field scheme: opls2005
; Produced from DL_FIELD v4.11
;


[ moleculetype ]
; name    nrexcl
XYZ    3

[ atoms ]
; nr   type   resnr   residu    atom    cgnr    charge    mass
    1       CO4    1  MOL      C1     1   0.4500000   12.0115
    2         O    1  MOL      O2     2  -0.4500000   15.9994
    3        CT    1  MOL      C3     3  -0.1200000   12.0115
    4        CT    1  MOL      C4     4  -0.1200000   12.0115
    5        CT    1  MOL      C5     5  -0.1200000   12.0115
    6        CT    1  MOL      C6     6  -0.1200000   12.0115
    7         C    1  MOL      C7     7   0.5000000   12.0115
    8         O    1  MOL      O8     8  -0.5000000   15.9994
    9         N    1  MOL      N9     9  -0.5000000   14.0067
   10        CT    1  MOL     C10    10   0.0800000   12.0115
   11        CT    1  MOL     C11    11  -0.1200000   12.0115
   12        CT    1  MOL     C12    12  -0.1200000   12.0115
   13        CT    1  MOL     C13    13  -0.1200000   12.0115
   14        CT    1  MOL     C14    14  -0.1200000   12.0115
   15        CT    1  MOL     C15    15   0.0800000   12.0115
   16         N    1  MOL     N16    16  -0.5000000   14.0067
   17       HAE    1  MOL     H17    17   0.0600000    1.0080
   18       HAE    1  MOL     H18    18   0.0600000    1.0080
   19        HC    1  MOL     H19    19   0.0600000    1.0080
   20        HC    1  MOL     H20    20   0.0600000    1.0080
   21        HC    1  MOL     H21    21   0.0600000    1.0080
   22        HC    1  MOL     H22    22   0.0600000    1.0080
   23        HC    1  MOL     H23    23   0.0600000    1.0080
   24        HC    1  MOL     H24    24   0.0600000    1.0080
   25         H    1  MOL     H25    25   0.3000000    1.0080
   26        HC    1  MOL     H26    26   0.0600000    1.0080
   27        HC    1  MOL     H27    27   0.0600000    1.0080
   28        HC    1  MOL     H28    28   0.0600000    1.0080
   29        HC    1  MOL     H29    29   0.0600000    1.0080
   30        HC    1  MOL     H30    30   0.0600000    1.0080
   31        HC    1  MOL     H31    31   0.0600000    1.0080
   32        HC    1  MOL     H32    32   0.0600000    1.0080
   33        HC    1  MOL     H33    33   0.0600000    1.0080
   34        HC    1  MOL     H34    34   0.0600000    1.0080
   35        HC    1  MOL     H35    35   0.0600000    1.0080
   36        HC    1  MOL     H36    36   0.0600000    1.0080
   37        HC    1  MOL     H37    37   0.0600000    1.0080
   38         H    1  MOL     H38    38   0.3000000    1.0080
   39       HAE    1  MOL     H39    39   0.0000000    1.0080
   40         C    1  MOL     C40    40   0.5000000   12.0115
   41         O    1  MOL     O41    41  -0.5000000   15.9994
   42        CT    1  MOL     C42    42  -0.1200000   12.0115
   43        CT    1  MOL     C43    43  -0.1200000   12.0115
   44        CT    1  MOL     C44    44  -0.1200000   12.0115
   45        CT    1  MOL     C45    45  -0.1200000   12.0115
   46         C    1  MOL     C46    46   0.5000000   12.0115
   47         O    1  MOL     O47    47  -0.5000000   15.9994
   48         N    1  MOL     N48    48  -0.5000000   14.0067
   49        CT    1  MOL     C49    49   0.0800000   12.0115
   50        CT    1  MOL     C50    50  -0.1200000   12.0115
   51        CT    1  MOL     C51    51  -0.1200000   12.0115
   52        CT    1  MOL     C52    52  -0.1200000   12.0115
   53        CT    1  MOL     C53    53  -0.1200000   12.0115
   54        CT    1  MOL     C54    54   0.0800000   12.0115
   55         N    1  MOL     N55    55  -0.5000000   14.0067
   56        HC    1  MOL     H56    56   0.0600000    1.0080
   57        HC    1  MOL     H57    57   0.0600000    1.0080
   58        HC    1  MOL     H58    58   0.0600000    1.0080
   59        HC    1  MOL     H59    59   0.0600000    1.0080
   60        HC    1  MOL     H60    60   0.0600000    1.0080
   61        HC    1  MOL     H61    61   0.0600000    1.0080
   62        HC    1  MOL     H62    62   0.0600000    1.0080
   63        HC    1  MOL     H63    63   0.0600000    1.0080
   64         H    1  MOL     H64    64   0.3000000    1.0080
   65        HC    1  MOL     H65    65   0.0600000    1.0080
   66        HC    1  MOL     H66    66   0.0600000    1.0080
   67        HC    1  MOL     H67    67   0.0600000    1.0080
   68        HC    1  MOL     H68    68   0.0600000    1.0080
   69        HC    1  MOL     H69    69   0.0600000    1.0080
   70        HC    1  MOL     H70    70   0.0600000    1.0080
   71        HC    1  MOL     H71    71   0.0600000    1.0080
   72        HC    1  MOL     H72    72   0.0600000    1.0080
   73        HC    1  MOL     H73    73   0.0600000    1.0080
   74        HC    1  MOL     H74    74   0.0600000    1.0080
   75        HC    1  MOL     H75    75   0.0600000    1.0080
   76        HC    1  MOL     H76    76   0.0600000    1.0080
   77         H    1  MOL     H77    77   0.3000000    1.0080
   78         C    1  MOL     C78    78   0.5000000   12.0115
   79         O    1  MOL     O79    79  -0.5000000   15.9994
   80        CT    1  MOL     C80    80  -0.1200000   12.0115
   81        CT    1  MOL     C81    81  -0.1200000   12.0115
   82        CT    1  MOL     C82    82  -0.1200000   12.0115
   83        CT    1  MOL     C83    83  -0.1200000   12.0115
   84         C    1  MOL     C84    84   0.5000000   12.0115
   85         O    1  MOL     O85    85  -0.5000000   15.9994
   86         N    1  MOL     N86    86  -0.5000000   14.0067
   87        CT    1  MOL     C87    87   0.0800000   12.0115
   88        CT    1  MOL     C88    88  -0.1200000   12.0115
   89        CT    1  MOL     C89    89  -0.1200000   12.0115
   90        CT    1  MOL     C90    90  -0.1200000   12.0115
   91        CT    1  MOL     C91    91  -0.1200000   12.0115
   92        CT    1  MOL     C92    92   0.0800000   12.0115
   93         N    1  MOL     N93    93  -0.5000000   14.0067
   94        HC    1  MOL     H94    94   0.0600000    1.0080
   95        HC    1  MOL     H95    95   0.0600000    1.0080
   96        HC    1  MOL     H96    96   0.0600000    1.0080
   97        HC    1  MOL     H97    97   0.0600000    1.0080
   98        HC    1  MOL     H98    98   0.0600000    1.0080
   99        HC    1  MOL     H99    99   0.0600000    1.0080
  100        HC    1  MOL    H100   100   0.0600000    1.0080
  101        HC    1  MOL    H101   101   0.0600000    1.0080
  102         H    1  MOL    H102   102   0.3000000    1.0080
  103        HC    1  MOL    H103   103   0.0600000    1.0080
  104        HC    1  MOL    H104   104   0.0600000    1.0080
  105        HC    1  MOL    H105   105   0.0600000    1.0080
  106        HC    1  MOL    H106   106   0.0600000    1.0080
  107        HC    1  MOL    H107   107   0.0600000    1.0080
  108        HC    1  MOL    H108   108   0.0600000    1.0080
  109        HC    1  MOL    H109   109   0.0600000    1.0080
  110        HC    1  MOL    H110   110   0.0600000    1.0080
  111        HC    1  MOL    H111   111   0.0600000    1.0080
  112        HC    1  MOL    H112   112   0.0600000    1.0080
  113        HC    1  MOL    H113   113   0.0600000    1.0080
  114        HC    1  MOL    H114   114   0.0600000    1.0080
  115         H    1  MOL    H115   115   0.3000000    1.0080
  116         C    1  MOL    C116   116   0.5000000   12.0115
  117         O    1  MOL    O117   117  -0.5000000   15.9994
  118        CT    1  MOL    C118   118  -0.1200000   12.0115
  119        CT    1  MOL    C119   119  -0.1200000   12.0115
  120        CT    1  MOL    C120   120  -0.1200000   12.0115
  121        CT    1  MOL    C121   121  -0.1200000   12.0115
  122         C    1  MOL    C122   122   0.5000000   12.0115
  123         O    1  MOL    O123   123  -0.5000000   15.9994
  124         N    1  MOL    N124   124  -0.5000000   14.0067
  125        CT    1  MOL    C125   125   0.0800000   12.0115
  126        CT    1  MOL    C126   126  -0.1200000   12.0115
  127        CT    1  MOL    C127   127  -0.1200000   12.0115
  128        CT    1  MOL    C128   128  -0.1200000   12.0115
  129        CT    1  MOL    C129   129  -0.1200000   12.0115
  130        CT    1  MOL    C130   130   0.0800000   12.0115
  131         N    1  MOL    N131   131  -0.5000000   14.0067
  132        HC    1  MOL    H132   132   0.0600000    1.0080
  133        HC    1  MOL    H133   133   0.0600000    1.0080
  134        HC    1  MOL    H134   134   0.0600000    1.0080
  135        HC    1  MOL    H135   135   0.0600000    1.0080
  136        HC    1  MOL    H136   136   0.0600000    1.0080
  137        HC    1  MOL    H137   137   0.0600000    1.0080
  138        HC    1  MOL    H138   138   0.0600000    1.0080
  139        HC    1  MOL    H139   139   0.0600000    1.0080
  140         H    1  MOL    H140   140   0.3000000    1.0080
  141        HC    1  MOL    H141   141   0.0600000    1.0080
  142        HC    1  MOL    H142   142   0.0600000    1.0080
  143        HC    1  MOL    H143   143   0.0600000    1.0080
  144        HC    1  MOL    H144   144   0.0600000    1.0080
  145        HC    1  MOL    H145   145   0.0600000    1.0080
  146        HC    1  MOL    H146   146   0.0600000    1.0080
  147        HC    1  MOL    H147   147   0.0600000    1.0080
  148        HC    1  MOL    H148   148   0.0600000    1.0080
  149        HC    1  MOL    H149   149   0.0600000    1.0080
  150        HC    1  MOL    H150   150   0.0600000    1.0080
  151        HC    1  MOL    H151   151   0.0600000    1.0080
  152        HC    1  MOL    H152   152   0.0600000    1.0080
  153         H    1  MOL    H153   153   0.3000000    1.0080
  154         C    1  MOL    C154   154   0.5000000   12.0115
  155         O    1  MOL    O155   155  -0.5000000   15.9994
  156        CT    1  MOL    C156   156  -0.1200000   12.0115
  157        CT    1  MOL    C157   157  -0.1200000   12.0115
  158        CT    1  MOL    C158   158  -0.1200000   12.0115
  159        CT    1  MOL    C159   159  -0.1200000   12.0115
  160         C    1  MOL    C160   160   0.5000000   12.0115
  161         O    1  MOL    O161   161  -0.5000000   15.9994
  162         N    1  MOL    N162   162  -0.5000000   14.0067
  163        CT    1  MOL    C163   163   0.0800000   12.0115
  164        CT    1  MOL    C164   164  -0.1200000   12.0115
  165        CT    1  MOL    C165   165  -0.1200000   12.0115
  166        CT    1  MOL    C166   166  -0.1200000   12.0115
  167        CT    1  MOL    C167   167  -0.1200000   12.0115
  168        CT    1  MOL    C168   168   0.0800000   12.0115
  169         N    1  MOL    N169   169  -0.5000000   14.0067
  170        HC    1  MOL    H170   170   0.0600000    1.0080
  171        HC    1  MOL    H171   171   0.0600000    1.0080
  172        HC    1  MOL    H172   172   0.0600000    1.0080
  173        HC    1  MOL    H173   173   0.0600000    1.0080
  174        HC    1  MOL    H174   174   0.0600000    1.0080
  175        HC    1  MOL    H175   175   0.0600000    1.0080
  176        HC    1  MOL    H176   176   0.0600000    1.0080
  177        HC    1  MOL    H177   177   0.0600000    1.0080
  178         H    1  MOL    H178   178   0.3000000    1.0080
  179        HC    1  MOL    H179   179   0.0600000    1.0080
  180        HC    1  MOL    H180   180   0.0600000    1.0080
  181        HC    1  MOL    H181   181   0.0600000    1.0080
  182        HC    1  MOL    H182   182   0.0600000    1.0080
  183        HC    1  MOL    H183   183   0.0600000    1.0080
  184        HC    1  MOL    H184   184   0.0600000    1.0080
  185        HC    1  MOL    H185   185   0.0600000    1.0080
  186        HC    1  MOL    H186   186   0.0600000    1.0080
  187        HC    1  MOL    H187   187   0.0600000    1.0080
  188        HC    1  MOL    H188   188   0.0600000    1.0080
  189        HC    1  MOL    H189   189   0.0600000    1.0080
  190        HC    1  MOL    H190   190   0.0600000    1.0080
  191         H    1  MOL    H191   191   0.3000000    1.0080
  192         C    1  MOL    C192   192   0.5000000   12.0115
  193         O    1  MOL    O193   193  -0.5000000   15.9994
  194        CT    1  MOL    C194   194  -0.1200000   12.0115
  195        CT    1  MOL    C195   195  -0.1200000   12.0115
  196        CT    1  MOL    C196   196  -0.1200000   12.0115
  197        CT    1  MOL    C197   197  -0.1200000   12.0115
  198         C    1  MOL    C198   198   0.5000000   12.0115
  199         O    1  MOL    O199   199  -0.5000000   15.9994
  200         N    1  MOL    N200   200  -0.5000000   14.0067
  201        CT    1  MOL    C201   201   0.0800000   12.0115
  202        CT    1  MOL    C202   202  -0.1200000   12.0115
  203        CT    1  MOL    C203   203  -0.1200000   12.0115
  204        CT    1  MOL    C204   204  -0.1200000   12.0115
  205        CT    1  MOL    C205   205  -0.1200000   12.0115
  206        CT    1  MOL    C206   206   0.0800000   12.0115
  207         N    1  MOL    N207   207  -0.5000000   14.0067
  208        HC    1  MOL    H208   208   0.0600000    1.0080
  209        HC    1  MOL    H209   209   0.0600000    1.0080
  210        HC    1  MOL    H210   210   0.0600000    1.0080
  211        HC    1  MOL    H211   211   0.0600000    1.0080
  212        HC    1  MOL    H212   212   0.0600000    1.0080
  213        HC    1  MOL    H213   213   0.0600000    1.0080
  214        HC    1  MOL    H214   214   0.0600000    1.0080
  215        HC    1  MOL    H215   215   0.0600000    1.0080
  216         H    1  MOL    H216   216   0.3000000    1.0080
  217        HC    1  MOL    H217   217   0.0600000    1.0080
  218        HC    1  MOL    H218   218   0.0600000    1.0080
  219        HC    1  MOL    H219   219   0.0600000    1.0080
  220        HC    1  MOL    H220   220   0.0600000    1.0080
  221        HC    1  MOL    H221   221   0.0600000    1.0080
  222        HC    1  MOL    H222   222   0.0600000    1.0080
  223        HC    1  MOL    H223   223   0.0600000    1.0080
  224        HC    1  MOL    H224   224   0.0600000    1.0080
  225        HC    1  MOL    H225   225   0.0600000    1.0080
  226        HC    1  MOL    H226   226   0.0600000    1.0080
  227        HC    1  MOL    H227   227   0.0600000    1.0080
  228        HC    1  MOL    H228   228   0.0600000    1.0080
  229         H    1  MOL    H229   229   0.3000000    1.0080
  230         C    1  MOL    C230   230   0.5000000   12.0115
  231         O    1  MOL    O231   231  -0.5000000   15.9994
  232        CT    1  MOL    C232   232  -0.1200000   12.0115
  233        CT    1  MOL    C233   233  -0.1200000   12.0115
  234        CT    1  MOL    C234   234  -0.1200000   12.0115
  235        CT    1  MOL    C235   235  -0.1200000   12.0115
  236         C    1  MOL    C236   236   0.5000000   12.0115
  237         O    1  MOL    O237   237  -0.5000000   15.9994
  238         N    1  MOL    N238   238  -0.5000000   14.0067
  239        CT    1  MOL    C239   239   0.0800000   12.0115
  240        CT    1  MOL    C240   240  -0.1200000   12.0115
  241        CT    1  MOL    C241   241  -0.1200000   12.0115
  242        CT    1  MOL    C242   242  -0.1200000   12.0115
  243        CT    1  MOL    C243   243  -0.1200000   12.0115
  244        CT    1  MOL    C244   244   0.0800000   12.0115
  245         N    1  MOL    N245   245  -0.5000000   14.0067
  246        HC    1  MOL    H246   246   0.0600000    1.0080
  247        HC    1  MOL    H247   247   0.0600000    1.0080
  248        HC    1  MOL    H248   248   0.0600000    1.0080
  249        HC    1  MOL    H249   249   0.0600000    1.0080
  250        HC    1  MOL    H250   250   0.0600000    1.0080
  251        HC    1  MOL    H251   251   0.0600000    1.0080
  252        HC    1  MOL    H252   252   0.0600000    1.0080
  253        HC    1  MOL    H253   253   0.0600000    1.0080
  254         H    1  MOL    H254   254   0.3000000    1.0080
  255        HC    1  MOL    H255   255   0.0600000    1.0080
  256        HC    1  MOL    H256   256   0.0600000    1.0080
  257        HC    1  MOL    H257   257   0.0600000    1.0080
  258        HC    1  MOL    H258   258   0.0600000    1.0080
  259        HC    1  MOL    H259   259   0.0600000    1.0080
  260        HC    1  MOL    H260   260   0.0600000    1.0080
  261        HC    1  MOL    H261   261   0.0600000    1.0080
  262        HC    1  MOL    H262   262   0.0600000    1.0080
  263        HC    1  MOL    H263   263   0.0600000    1.0080
  264        HC    1  MOL    H264   264   0.0600000    1.0080
  265        HC    1  MOL    H265   265   0.0600000    1.0080
  266        HC    1  MOL    H266   266   0.0600000    1.0080
  267         H    1  MOL    H267   267   0.3000000    1.0080
  268         C    1  MOL    C268   268   0.5000000   12.0115
  269         O    1  MOL    O269   269  -0.5000000   15.9994
  270        CT    1  MOL    C270   270  -0.1200000   12.0115
  271        CT    1  MOL    C271   271  -0.1200000   12.0115
  272        CT    1  MOL    C272   272  -0.1200000   12.0115
  273        CT    1  MOL    C273   273  -0.1200000   12.0115
  274         C    1  MOL    C274   274   0.5000000   12.0115
  275         O    1  MOL    O275   275  -0.5000000   15.9994
  276         N    1  MOL    N276   276  -0.5000000   14.0067
  277        CT    1  MOL    C277   277   0.0800000   12.0115
  278        CT    1  MOL    C278   278  -0.1200000   12.0115
  279        CT    1  MOL    C279   279  -0.1200000   12.0115
  280        CT    1  MOL    C280   280  -0.1200000   12.0115
  281        CT    1  MOL    C281   281  -0.1200000   12.0115
  282        CT    1  MOL    C282   282   0.0800000   12.0115
  283         N    1  MOL    N283   283  -0.5000000   14.0067
  284        HC    1  MOL    H284   284   0.0600000    1.0080
  285        HC    1  MOL    H285   285   0.0600000    1.0080
  286        HC    1  MOL    H286   286   0.0600000    1.0080
  287        HC    1  MOL    H287   287   0.0600000    1.0080
  288        HC    1  MOL    H288   288   0.0600000    1.0080
  289        HC    1  MOL    H289   289   0.0600000    1.0080
  290        HC    1  MOL    H290   290   0.0600000    1.0080
  291        HC    1  MOL    H291   291   0.0600000    1.0080
  292         H    1  MOL    H292   292   0.3000000    1.0080
  293        HC    1  MOL    H293   293   0.0600000    1.0080
  294        HC    1  MOL    H294   294   0.0600000    1.0080
  295        HC    1  MOL    H295   295   0.0600000    1.0080
  296        HC    1  MOL    H296   296   0.0600000    1.0080
  297        HC    1  MOL    H297   297   0.0600000    1.0080
  298        HC    1  MOL    H298   298   0.0600000    1.0080
  299        HC    1  MOL    H299   299   0.0600000    1.0080
  300        HC    1  MOL    H300   300   0.0600000    1.0080
  301        HC    1  MOL    H301   301   0.0600000    1.0080
  302        HC    1  MOL    H302   302   0.0600000    1.0080
  303        HC    1  MOL    H303   303   0.0600000    1.0080
  304        HC    1  MOL    H304   304   0.0600000    1.0080
  305         H    1  MOL    H305   305   0.3000000    1.0080
  306         C    1  MOL    C306   306   0.5000000   12.0115
  307         O    1  MOL    O307   307  -0.5000000   15.9994
  308        CT    1  MOL    C308   308  -0.1200000   12.0115
  309        CT    1  MOL    C309   309  -0.1200000   12.0115
  310        CT    1  MOL    C310   310  -0.1200000   12.0115
  311        CT    1  MOL    C311   311  -0.1200000   12.0115
  312         C    1  MOL    C312   312   0.5000000   12.0115
  313         O    1  MOL    O313   313  -0.5000000   15.9994
  314         N    1  MOL    N314   314  -0.5000000   14.0067
  315        CT    1  MOL    C315   315   0.0800000   12.0115
  316        CT    1  MOL    C316   316  -0.1200000   12.0115
  317        CT    1  MOL    C317   317  -0.1200000   12.0115
  318        CT    1  MOL    C318   318  -0.1200000   12.0115
  319        CT    1  MOL    C319   319  -0.1200000   12.0115
  320        CT    1  MOL    C320   320   0.0800000   12.0115
  321         N    1  MOL    N321   321  -0.5000000   14.0067
  322        HC    1  MOL    H322   322   0.0600000    1.0080
  323        HC    1  MOL    H323   323   0.0600000    1.0080
  324        HC    1  MOL    H324   324   0.0600000    1.0080
  325        HC    1  MOL    H325   325   0.0600000    1.0080
  326        HC    1  MOL    H326   326   0.0600000    1.0080
  327        HC    1  MOL    H327   327   0.0600000    1.0080
  328        HC    1  MOL    H328   328   0.0600000    1.0080
  329        HC    1  MOL    H329   329   0.0600000    1.0080
  330         H    1  MOL    H330   330   0.3000000    1.0080
  331        HC    1  MOL    H331   331   0.0600000    1.0080
  332        HC    1  MOL    H332   332   0.0600000    1.0080
  333        HC    1  MOL    H333   333   0.0600000    1.0080
  334        HC    1  MOL    H334   334   0.0600000    1.0080
  335        HC    1  MOL    H335   335   0.0600000    1.0080
  336        HC    1  MOL    H336   336   0.0600000    1.0080
  337        HC    1  MOL    H337   337   0.0600000    1.0080
  338        HC    1  MOL    H338   338   0.0600000    1.0080
  339        HC    1  MOL    H339   339   0.0600000    1.0080
  340        HC    1  MOL    H340   340   0.0600000    1.0080
  341        HC    1  MOL    H341   341   0.0600000    1.0080
  342        HC    1  MOL    H342   342   0.0600000    1.0080
  343         H    1  MOL    H343   343   0.3000000    1.0080
  344         C    1  MOL    C344   344   0.5000000   12.0115
  345         O    1  MOL    O345   345  -0.5000000   15.9994
  346        CT    1  MOL    C346   346  -0.1200000   12.0115
  347        CT    1  MOL    C347   347  -0.1200000   12.0115
  348        CT    1  MOL    C348   348  -0.1200000   12.0115
  349        CT    1  MOL    C349   349  -0.1200000   12.0115
  350         C    1  MOL    C350   350   0.5000000   12.0115
  351         O    1  MOL    O351   351  -0.5000000   15.9994
  352         N    1  MOL    N352   352  -0.5000000   14.0067
  353        CT    1  MOL    C353   353   0.0800000   12.0115
  354        CT    1  MOL    C354   354  -0.1200000   12.0115
  355        CT    1  MOL    C355   355  -0.1200000   12.0115
  356        CT    1  MOL    C356   356  -0.1200000   12.0115
  357        CT    1  MOL    C357   357  -0.1200000   12.0115
  358        CT    1  MOL    C358   358   0.0800000   12.0115
  359         N    1  MOL    N359   359  -0.5000000   14.0067
  360        HC    1  MOL    H360   360   0.0600000    1.0080
  361        HC    1  MOL    H361   361   0.0600000    1.0080
  362        HC    1  MOL    H362   362   0.0600000    1.0080
  363        HC    1  MOL    H363   363   0.0600000    1.0080
  364        HC    1  MOL    H364   364   0.0600000    1.0080
  365        HC    1  MOL    H365   365   0.0600000    1.0080
  366        HC    1  MOL    H366   366   0.0600000    1.0080
  367        HC    1  MOL    H367   367   0.0600000    1.0080
  368         H    1  MOL    H368   368   0.3000000    1.0080
  369        HC    1  MOL    H369   369   0.0600000    1.0080
  370        HC    1  MOL    H370   370   0.0600000    1.0080
  371        HC    1  MOL    H371   371   0.0600000    1.0080
  372        HC    1  MOL    H372   372   0.0600000    1.0080
  373        HC    1  MOL    H373   373   0.0600000    1.0080
  374        HC    1  MOL    H374   374   0.0600000    1.0080
  375        HC    1  MOL    H375   375   0.0600000    1.0080
  376        HC    1  MOL    H376   376   0.0600000    1.0080
  377        HC    1  MOL    H377   377   0.0600000    1.0080
  378        HC    1  MOL    H378   378   0.0600000    1.0080
  379        HC    1  MOL    H379   379   0.0600000    1.0080
  380        HC    1  MOL    H380   380   0.0600000    1.0080
  381         H    1  MOL    H381   381   0.3000000    1.0080
  382         C    1  MOL    C382   382   0.5000000   12.0115
  383         O    1  MOL    O383   383  -0.5000000   15.9994
  384        CT    1  MOL    C384   384  -0.1200000   12.0115
  385        CT    1  MOL    C385   385  -0.1200000   12.0115
  386        CT    1  MOL    C386   386  -0.1200000   12.0115
  387        CT    1  MOL    C387   387  -0.1200000   12.0115
  388         C    1  MOL    C388   388   0.5000000   12.0115
  389         O    1  MOL    O389   389  -0.5000000   15.9994
  390         N    1  MOL    N390   390  -0.5000000   14.0067
  391        CT    1  MOL    C391   391   0.0800000   12.0115
  392        CT    1  MOL    C392   392  -0.1200000   12.0115
  393        CT    1  MOL    C393   393  -0.1200000   12.0115
  394        CT    1  MOL    C394   394  -0.1200000   12.0115
  395        CT    1  MOL    C395   395  -0.1200000   12.0115
  396        CT    1  MOL    C396   396   0.0800000   12.0115
  397         N    1  MOL    N397   397  -0.5000000   14.0067
  398        HC    1  MOL    H398   398   0.0600000    1.0080
  399        HC    1  MOL    H399   399   0.0600000    1.0080
  400        HC    1  MOL    H400   400   0.0600000    1.0080
  401        HC    1  MOL    H401   401   0.0600000    1.0080
  402        HC    1  MOL    H402   402   0.0600000    1.0080
  403        HC    1  MOL    H403   403   0.0600000    1.0080
  404        HC    1  MOL    H404   404   0.0600000    1.0080
  405        HC    1  MOL    H405   405   0.0600000    1.0080
  406         H    1  MOL    H406   406   0.3000000    1.0080
  407        HC    1  MOL    H407   407   0.0600000    1.0080
  408        HC    1  MOL    H408   408   0.0600000    1.0080
  409        HC    1  MOL    H409   409   0.0600000    1.0080
  410        HC    1  MOL    H410   410   0.0600000    1.0080
  411        HC    1  MOL    H411   411   0.0600000    1.0080
  412        HC    1  MOL    H412   412   0.0600000    1.0080
  413        HC    1  MOL    H413   413   0.0600000    1.0080
  414        HC    1  MOL    H414   414   0.0600000    1.0080
  415        HC    1  MOL    H415   415   0.0600000    1.0080
  416        HC    1  MOL    H416   416   0.0600000    1.0080
  417        HC    1  MOL    H417   417   0.0600000    1.0080
  418        HC    1  MOL    H418   418   0.0600000    1.0080
  419         H    1  MOL    H419   419   0.3000000    1.0080
  420         C    1  MOL    C420   420   0.5000000   12.0115
  421         O    1  MOL    O421   421  -0.5000000   15.9994
  422        CT    1  MOL    C422   422  -0.1200000   12.0115
  423        CT    1  MOL    C423   423  -0.1200000   12.0115
  424        CT    1  MOL    C424   424  -0.1200000   12.0115
  425        CT    1  MOL    C425   425  -0.1200000   12.0115
  426         C    1  MOL    C426   426   0.5000000   12.0115
  427         O    1  MOL    O427   427  -0.5000000   15.9994
  428         N    1  MOL    N428   428  -0.5000000   14.0067
  429        CT    1  MOL    C429   429   0.0800000   12.0115
  430        CT    1  MOL    C430   430  -0.1200000   12.0115
  431        CT    1  MOL    C431   431  -0.1200000   12.0115
  432        CT    1  MOL    C432   432  -0.1200000   12.0115
  433        CT    1  MOL    C433   433  -0.1200000   12.0115
  434        CT    1  MOL    C434   434   0.0800000   12.0115
  435         N    1  MOL    N435   435  -0.5000000   14.0067
  436        HC    1  MOL    H436   436   0.0600000    1.0080
  437        HC    1  MOL    H437   437   0.0600000    1.0080
  438        HC    1  MOL    H438   438   0.0600000    1.0080
  439        HC    1  MOL    H439   439   0.0600000    1.0080
  440        HC    1  MOL    H440   440   0.0600000    1.0080
  441        HC    1  MOL    H441   441   0.0600000    1.0080
  442        HC    1  MOL    H442   442   0.0600000    1.0080
  443        HC    1  MOL    H443   443   0.0600000    1.0080
  444         H    1  MOL    H444   444   0.3000000    1.0080
  445        HC    1  MOL    H445   445   0.0600000    1.0080
  446        HC    1  MOL    H446   446   0.0600000    1.0080
  447        HC    1  MOL    H447   447   0.0600000    1.0080
  448        HC    1  MOL    H448   448   0.0600000    1.0080
  449        HC    1  MOL    H449   449   0.0600000    1.0080
  450        HC    1  MOL    H450   450   0.0600000    1.0080
  451        HC    1  MOL    H451   451   0.0600000    1.0080
  452        HC    1  MOL    H452   452   0.0600000    1.0080
  453        HC    1  MOL    H453   453   0.0600000    1.0080
  454        HC    1  MOL    H454   454   0.0600000    1.0080
  455        HC    1  MOL    H455   455   0.0600000    1.0080
  456        HC    1  MOL    H456   456   0.0600000    1.0080
  457         H    1  MOL    H457   457   0.3000000    1.0080
  458         C    1  MOL    C458   458   0.5000000   12.0115
  459         O    1  MOL    O459   459  -0.5000000   15.9994
  460        CT    1  MOL    C460   460  -0.1200000   12.0115
  461        CT    1  MOL    C461   461  -0.1200000   12.0115
  462        CT    1  MOL    C462   462  -0.1200000   12.0115
  463        CT    1  MOL    C463   463  -0.1200000   12.0115
  464         C    1  MOL    C464   464   0.5000000   12.0115
  465         O    1  MOL    O465   465  -0.5000000   15.9994
  466         N    1  MOL    N466   466  -0.5000000   14.0067
  467        CT    1  MOL    C467   467   0.0800000   12.0115
  468        CT    1  MOL    C468   468  -0.1200000   12.0115
  469        CT    1  MOL    C469   469  -0.1200000   12.0115
  470        CT    1  MOL    C470   470  -0.1200000   12.0115
  471        CT    1  MOL    C471   471  -0.1200000   12.0115
  472        CT    1  MOL    C472   472   0.0800000   12.0115
  473         N    1  MOL    N473   473  -0.5000000   14.0067
  474        HC    1  MOL    H474   474   0.0600000    1.0080
  475        HC    1  MOL    H475   475   0.0600000    1.0080
  476        HC    1  MOL    H476   476   0.0600000    1.0080
  477        HC    1  MOL    H477   477   0.0600000    1.0080
  478        HC    1  MOL    H478   478   0.0600000    1.0080
  479        HC    1  MOL    H479   479   0.0600000    1.0080
  480        HC    1  MOL    H480   480   0.0600000    1.0080
  481        HC    1  MOL    H481   481   0.0600000    1.0080
  482         H    1  MOL    H482   482   0.3000000    1.0080
  483        HC    1  MOL    H483   483   0.0600000    1.0080
  484        HC    1  MOL    H484   484   0.0600000    1.0080
  485        HC    1  MOL    H485   485   0.0600000    1.0080
  486        HC    1  MOL    H486   486   0.0600000    1.0080
  487        HC    1  MOL    H487   487   0.0600000    1.0080
  488        HC    1  MOL    H488   488   0.0600000    1.0080
  489        HC    1  MOL    H489   489   0.0600000    1.0080
  490        HC    1  MOL    H490   490   0.0600000    1.0080
  491        HC    1  MOL    H491   491   0.0600000    1.0080
  492        HC    1  MOL    H492   492   0.0600000    1.0080
  493        HC    1  MOL    H493   493   0.0600000    1.0080
  494        HC    1  MOL    H494   494   0.0600000    1.0080
  495         H    1  MOL    H495   495   0.3000000    1.0080
  496         C    1  MOL    C496   496   0.5000000   12.0115
  497         O    1  MOL    O497   497  -0.5000000   15.9994
  498        CT    1  MOL    C498   498  -0.1200000   12.0115
  499        CT    1  MOL    C499   499  -0.1200000   12.0115
  500        CT    1  MOL    C500   500  -0.1200000   12.0115
  501        CT    1  MOL    C501   501  -0.1200000   12.0115
  502         C    1  MOL    C502   502   0.5000000   12.0115
  503         O    1  MOL    O503   503  -0.5000000   15.9994
  504         N    1  MOL    N504   504  -0.5000000   14.0067
  505        CT    1  MOL    C505   505   0.0800000   12.0115
  506        CT    1  MOL    C506   506  -0.1200000   12.0115
  507        CT    1  MOL    C507   507  -0.1200000   12.0115
  508        CT    1  MOL    C508   508  -0.1200000   12.0115
  509        CT    1  MOL    C509   509  -0.1200000   12.0115
  510        CT    1  MOL    C510   510   0.0800000   12.0115
  511         N    1  MOL    N511   511  -0.5000000   14.0067
  512        HC    1  MOL    H512   512   0.0600000    1.0080
  513        HC    1  MOL    H513   513   0.0600000    1.0080
  514        HC    1  MOL    H514   514   0.0600000    1.0080
  515        HC    1  MOL    H515   515   0.0600000    1.0080
  516        HC    1  MOL    H516   516   0.0600000    1.0080
  517        HC    1  MOL    H517   517   0.0600000    1.0080
  518        HC    1  MOL    H518   518   0.0600000    1.0080
  519        HC    1  MOL    H519   519   0.0600000    1.0080
  520         H    1  MOL    H520   520   0.3000000    1.0080
  521        HC    1  MOL    H521   521   0.0600000    1.0080
  522        HC    1  MOL    H522   522   0.0600000    1.0080
  523        HC    1  MOL    H523   523   0.0600000    1.0080
  524        HC    1  MOL    H524   524   0.0600000    1.0080
  525        HC    1  MOL    H525   525   0.0600000    1.0080
  526        HC    1  MOL    H526   526   0.0600000    1.0080
  527        HC    1  MOL    H527   527   0.0600000    1.0080
  528        HC    1  MOL    H528   528   0.0600000    1.0080
  529        HC    1  MOL    H529   529   0.0600000    1.0080
  530        HC    1  MOL    H530   530   0.0600000    1.0080
  531        HC    1  MOL    H531   531   0.0600000    1.0080
  532        HC    1  MOL    H532   532   0.0600000    1.0080
  533         H    1  MOL    H533   533   0.3000000    1.0080
  534         C    1  MOL    C534   534   0.5000000   12.0115
  535         O    1  MOL    O535   535  -0.5000000   15.9994
  536        CT    1  MOL    C536   536  -0.1200000   12.0115
  537        CT    1  MOL    C537   537  -0.1200000   12.0115
  538        CT    1  MOL    C538   538  -0.1200000   12.0115
  539        CT    1  MOL    C539   539  -0.1200000   12.0115
  540         C    1  MOL    C540   540   0.5000000   12.0115
  541         O    1  MOL    O541   541  -0.5000000   15.9994
  542         N    1  MOL    N542   542  -0.5000000   14.0067
  543        CT    1  MOL    C543   543   0.0800000   12.0115
  544        CT    1  MOL    C544   544  -0.1200000   12.0115
  545        CT    1  MOL    C545   545  -0.1200000   12.0115
  546        CT    1  MOL    C546   546  -0.1200000   12.0115
  547        CT    1  MOL    C547   547  -0.1200000   12.0115
  548        CT    1  MOL    C548   548   0.0800000   12.0115
  549         N    1  MOL    N549   549  -0.5000000   14.0067
  550        HC    1  MOL    H550   550   0.0600000    1.0080
  551        HC    1  MOL    H551   551   0.0600000    1.0080
  552        HC    1  MOL    H552   552   0.0600000    1.0080
  553        HC    1  MOL    H553   553   0.0600000    1.0080
  554        HC    1  MOL    H554   554   0.0600000    1.0080
  555        HC    1  MOL    H555   555   0.0600000    1.0080
  556        HC    1  MOL    H556   556   0.0600000    1.0080
  557        HC    1  MOL    H557   557   0.0600000    1.0080
  558         H    1  MOL    H558   558   0.3000000    1.0080
  559        HC    1  MOL    H559   559   0.0600000    1.0080
  560        HC    1  MOL    H560   560   0.0600000    1.0080
  561        HC    1  MOL    H561   561   0.0600000    1.0080
  562        HC    1  MOL    H562   562   0.0600000    1.0080
  563        HC    1  MOL    H563   563   0.0600000    1.0080
  564        HC    1  MOL    H564   564   0.0600000    1.0080
  565        HC    1  MOL    H565   565   0.0600000    1.0080
  566        HC    1  MOL    H566   566   0.0600000    1.0080
  567        HC    1  MOL    H567   567   0.0600000    1.0080
  568        HC    1  MOL    H568   568   0.0600000    1.0080
  569        HC    1  MOL    H569   569   0.0600000    1.0080
  570        HC    1  MOL    H570   570   0.0600000    1.0080
  571         H    1  MOL    H571   571   0.3000000    1.0080
  572         C    1  MOL    C572   572   0.5000000   12.0115
  573         O    1  MOL    O573   573  -0.5000000   15.9994
  574        CT    1  MOL    C574   574  -0.1200000   12.0115
  575        CT    1  MOL    C575   575  -0.1200000   12.0115
  576        CT    1  MOL    C576   576  -0.1200000   12.0115
  577        CT    1  MOL    C577   577  -0.1200000   12.0115
  578         C    1  MOL    C578   578   0.5000000   12.0115
  579         O    1  MOL    O579   579  -0.5000000   15.9994
  580         N    1  MOL    N580   580  -0.5000000   14.0067
  581        CT    1  MOL    C581   581   0.0800000   12.0115
  582        CT    1  MOL    C582   582  -0.1200000   12.0115
  583        CT    1  MOL    C583   583  -0.1200000   12.0115
  584        CT    1  MOL    C584   584  -0.1200000   12.0115
  585        CT    1  MOL    C585   585  -0.1200000   12.0115
  586        CT    1  MOL    C586   586   0.0800000   12.0115
  587         N    1  MOL    N587   587  -0.5000000   14.0067
  588        HC    1  MOL    H588   588   0.0600000    1.0080
  589        HC    1  MOL    H589   589   0.0600000    1.0080
  590        HC    1  MOL    H590   590   0.0600000    1.0080
  591        HC    1  MOL    H591   591   0.0600000    1.0080
  592        HC    1  MOL    H592   592   0.0600000    1.0080
  593        HC    1  MOL    H593   593   0.0600000    1.0080
  594        HC    1  MOL    H594   594   0.0600000    1.0080
  595        HC    1  MOL    H595   595   0.0600000    1.0080
  596         H    1  MOL    H596   596   0.3000000    1.0080
  597        HC    1  MOL    H597   597   0.0600000    1.0080
  598        HC    1  MOL    H598   598   0.0600000    1.0080
  599        HC    1  MOL    H599   599   0.0600000    1.0080
  600        HC    1  MOL    H600   600   0.0600000    1.0080
  601        HC    1  MOL    H601   601   0.0600000    1.0080
  602        HC    1  MOL    H602   602   0.0600000    1.0080
  603        HC    1  MOL    H603   603   0.0600000    1.0080
  604        HC    1  MOL    H604   604   0.0600000    1.0080
  605        HC    1  MOL    H605   605   0.0600000    1.0080
  606        HC    1  MOL    H606   606   0.0600000    1.0080
  607        HC    1  MOL    H607   607   0.0600000    1.0080
  608        HC    1  MOL    H608   608   0.0600000    1.0080
  609         H    1  MOL    H609   609   0.3000000    1.0080
  610         C    1  MOL    C610   610   0.5000000   12.0115
  611         O    1  MOL    O611   611  -0.5000000   15.9994
  612        CT    1  MOL    C612   612  -0.1200000   12.0115
  613        CT    1  MOL    C613   613  -0.1200000   12.0115
  614        CT    1  MOL    C614   614  -0.1200000   12.0115
  615        CT    1  MOL    C615   615  -0.1200000   12.0115
  616         C    1  MOL    C616   616   0.5000000   12.0115
  617         O    1  MOL    O617   617  -0.5000000   15.9994
  618         N    1  MOL    N618   618  -0.5000000   14.0067
  619        CT    1  MOL    C619   619   0.0800000   12.0115
  620        CT    1  MOL    C620   620  -0.1200000   12.0115
  621        CT    1  MOL    C621   621  -0.1200000   12.0115
  622        CT    1  MOL    C622   622  -0.1200000   12.0115
  623        CT    1  MOL    C623   623  -0.1200000   12.0115
  624        CT    1  MOL    C624   624   0.0800000   12.0115
  625         N    1  MOL    N625   625  -0.5000000   14.0067
  626        HC    1  MOL    H626   626   0.0600000    1.0080
  627        HC    1  MOL    H627   627   0.0600000    1.0080
  628        HC    1  MOL    H628   628   0.0600000    1.0080
  629        HC    1  MOL    H629   629   0.0600000    1.0080
  630        HC    1  MOL    H630   630   0.0600000    1.0080
  631        HC    1  MOL    H631   631   0.0600000    1.0080
  632        HC    1  MOL    H632   632   0.0600000    1.0080
  633        HC    1  MOL    H633   633   0.0600000    1.0080
  634         H    1  MOL    H634   634   0.3000000    1.0080
  635        HC    1  MOL    H635   635   0.0600000    1.0080
  636        HC    1  MOL    H636   636   0.0600000    1.0080
  637        HC    1  MOL    H637   637   0.0600000    1.0080
  638        HC    1  MOL    H638   638   0.0600000    1.0080
  639        HC    1  MOL    H639   639   0.0600000    1.0080
  640        HC    1  MOL    H640   640   0.0600000    1.0080
  641        HC    1  MOL    H641   641   0.0600000    1.0080
  642        HC    1  MOL    H642   642   0.0600000    1.0080
  643        HC    1  MOL    H643   643   0.0600000    1.0080
  644        HC    1  MOL    H644   644   0.0600000    1.0080
  645        HC    1  MOL    H645   645   0.0600000    1.0080
  646        HC    1  MOL    H646   646   0.0600000    1.0080
  647         H    1  MOL    H647   647   0.3000000    1.0080
  648         C    1  MOL    C648   648   0.5000000   12.0115
  649         O    1  MOL    O649   649  -0.5000000   15.9994
  650        CT    1  MOL    C650   650  -0.1200000   12.0115
  651        CT    1  MOL    C651   651  -0.1200000   12.0115
  652        CT    1  MOL    C652   652  -0.1200000   12.0115
  653        CT    1  MOL    C653   653  -0.1200000   12.0115
  654         C    1  MOL    C654   654   0.5000000   12.0115
  655         O    1  MOL    O655   655  -0.5000000   15.9994
  656         N    1  MOL    N656   656  -0.5000000   14.0067
  657        CT    1  MOL    C657   657   0.0800000   12.0115
  658        CT    1  MOL    C658   658  -0.1200000   12.0115
  659        CT    1  MOL    C659   659  -0.1200000   12.0115
  660        CT    1  MOL    C660   660  -0.1200000   12.0115
  661        CT    1  MOL    C661   661  -0.1200000   12.0115
  662        CT    1  MOL    C662   662   0.0800000   12.0115
  663         N    1  MOL    N663   663  -0.5000000   14.0067
  664        HC    1  MOL    H664   664   0.0600000    1.0080
  665        HC    1  MOL    H665   665   0.0600000    1.0080
  666        HC    1  MOL    H666   666   0.0600000    1.0080
  667        HC    1  MOL    H667   667   0.0600000    1.0080
  668        HC    1  MOL    H668   668   0.0600000    1.0080
  669        HC    1  MOL    H669   669   0.0600000    1.0080
  670        HC    1  MOL    H670   670   0.0600000    1.0080
  671        HC    1  MOL    H671   671   0.0600000    1.0080
  672         H    1  MOL    H672   672   0.3000000    1.0080
  673        HC    1  MOL    H673   673   0.0600000    1.0080
  674        HC    1  MOL    H674   674   0.0600000    1.0080
  675        HC    1  MOL    H675   675   0.0600000    1.0080
  676        HC    1  MOL    H676   676   0.0600000    1.0080
  677        HC    1  MOL    H677   677   0.0600000    1.0080
  678        HC    1  MOL    H678   678   0.0600000    1.0080
  679        HC    1  MOL    H679   679   0.0600000    1.0080
  680        HC    1  MOL    H680   680   0.0600000    1.0080
  681        HC    1  MOL    H681   681   0.0600000    1.0080
  682        HC    1  MOL    H682   682   0.0600000    1.0080
  683        HC    1  MOL    H683   683   0.0600000    1.0080
  684        HC    1  MOL    H684   684   0.0600000    1.0080
  685         H    1  MOL    H685   685   0.3000000    1.0080
  686         C    1  MOL    C686   686   0.5000000   12.0115
  687         O    1  MOL    O687   687  -0.5000000   15.9994
  688        CT    1  MOL    C688   688  -0.1200000   12.0115
  689        CT    1  MOL    C689   689  -0.1200000   12.0115
  690        CT    1  MOL    C690   690  -0.1200000   12.0115
  691        CT    1  MOL    C691   691  -0.1200000   12.0115
  692         C    1  MOL    C692   692   0.5000000   12.0115
  693         O    1  MOL    O693   693  -0.5000000   15.9994
  694         N    1  MOL    N694   694  -0.5000000   14.0067
  695        CT    1  MOL    C695   695   0.0800000   12.0115
  696        CT    1  MOL    C696   696  -0.1200000   12.0115
  697        CT    1  MOL    C697   697  -0.1200000   12.0115
  698        CT    1  MOL    C698   698  -0.1200000   12.0115
  699        CT    1  MOL    C699   699  -0.1200000   12.0115
  700        CT    1  MOL    C700   700   0.0800000   12.0115
  701         N    1  MOL    N701   701  -0.5000000   14.0067
  702        HC    1  MOL    H702   702   0.0600000    1.0080
  703        HC    1  MOL    H703   703   0.0600000    1.0080
  704        HC    1  MOL    H704   704   0.0600000    1.0080
  705        HC    1  MOL    H705   705   0.0600000    1.0080
  706        HC    1  MOL    H706   706   0.0600000    1.0080
  707        HC    1  MOL    H707   707   0.0600000    1.0080
  708        HC    1  MOL    H708   708   0.0600000    1.0080
  709        HC    1  MOL    H709   709   0.0600000    1.0080
  710         H    1  MOL    H710   710   0.3000000    1.0080
  711        HC    1  MOL    H711   711   0.0600000    1.0080
  712        HC    1  MOL    H712   712   0.0600000    1.0080
  713        HC    1  MOL    H713   713   0.0600000    1.0080
  714        HC    1  MOL    H714   714   0.0600000    1.0080
  715        HC    1  MOL    H715   715   0.0600000    1.0080
  716        HC    1  MOL    H716   716   0.0600000    1.0080
  717        HC    1  MOL    H717   717   0.0600000    1.0080
  718        HC    1  MOL    H718   718   0.0600000    1.0080
  719        HC    1  MOL    H719   719   0.0600000    1.0080
  720        HC    1  MOL    H720   720   0.0600000    1.0080
  721        HC    1  MOL    H721   721   0.0600000    1.0080
  722        HC    1  MOL    H722   722   0.0600000    1.0080
  723         H    1  MOL    H723   723   0.3000000    1.0080
  724         C    1  MOL    C724   724   0.5000000   12.0115
  725         O    1  MOL    O725   725  -0.5000000   15.9994
  726        CT    1  MOL    C726   726  -0.1200000   12.0115
  727        CT    1  MOL    C727   727  -0.1200000   12.0115
  728        CT    1  MOL    C728   728  -0.1200000   12.0115
  729        CT    1  MOL    C729   729  -0.1200000   12.0115
  730         C    1  MOL    C730   730   0.5000000   12.0115
  731         O    1  MOL    O731   731  -0.5000000   15.9994
  732         N    1  MOL    N732   732  -0.5000000   14.0067
  733        CT    1  MOL    C733   733   0.0800000   12.0115
  734        CT    1  MOL    C734   734  -0.1200000   12.0115
  735        CT    1  MOL    C735   735  -0.1200000   12.0115
  736        CT    1  MOL    C736   736  -0.1200000   12.0115
  737        CT    1  MOL    C737   737  -0.1200000   12.0115
  738        CT    1  MOL    C738   738   0.0600000   12.0115
  739        NT    1  MOL    N739   739  -0.9000000   14.0067
  740        HC    1  MOL    H740   740   0.0600000    1.0080
  741        HC    1  MOL    H741   741   0.0600000    1.0080
  742        HC    1  MOL    H742   742   0.0600000    1.0080
  743        HC    1  MOL    H743   743   0.0600000    1.0080
  744        HC    1  MOL    H744   744   0.0600000    1.0080
  745        HC    1  MOL    H745   745   0.0600000    1.0080
  746        HC    1  MOL    H746   746   0.0600000    1.0080
  747        HC    1  MOL    H747   747   0.0600000    1.0080
  748         H    1  MOL    H748   748   0.3000000    1.0080
  749        HC    1  MOL    H749   749   0.0600000    1.0080
  750        HC    1  MOL    H750   750   0.0600000    1.0080
  751        HC    1  MOL    H751   751   0.0600000    1.0080
  752        HC    1  MOL    H752   752   0.0600000    1.0080
  753        HC    1  MOL    H753   753   0.0600000    1.0080
  754        HC    1  MOL    H754   754   0.0600000    1.0080
  755        HC    1  MOL    H755   755   0.0600000    1.0080
  756        HC    1  MOL    H756   756   0.0600000    1.0080
  757        HC    1  MOL    H757   757   0.0600000    1.0080
  758        HC    1  MOL    H758   758   0.0600000    1.0080
  759      HANI    1  MOL    H759   759   0.0600000    1.0080
  760      HANI    1  MOL    H760   760   0.0600000    1.0080
  761         H    1  MOL    H761   761   0.3600000    1.0080
  762         H    1  MOL    H762   762   0.3600000    1.0080

[ bonds ]
      1      2   1      0.1229 476976.0000
      1      3   1      0.1522 265265.6000
      1     39   1      0.1090 284512.0000
      3      4   1      0.1529 224262.4000
      3     17   1      0.1090 284512.0000
      3     18   1      0.1090 284512.0000
      4      5   1      0.1529 224262.4000
      4     19   1      0.1090 284512.0000
      4     20   1      0.1090 284512.0000
      5      6   1      0.1529 224262.4000
      5     21   1      0.1090 284512.0000
      5     22   1      0.1090 284512.0000
      6      7   1      0.1522 265265.6000
      6     23   1      0.1090 284512.0000
      6     24   1      0.1090 284512.0000
      7      8   1      0.1229 476976.0000
      7      9   1      0.1335 410032.0000
      9     10   1      0.1449 282001.6000
      9     25   1      0.1010 363171.2000
     10     11   1      0.1529 224262.4000
     10     26   1      0.1090 284512.0000
     10     27   1      0.1090 284512.0000
     11     12   1      0.1529 224262.4000
     11     28   1      0.1090 284512.0000
     11     29   1      0.1090 284512.0000
     12     13   1      0.1529 224262.4000
     12     30   1      0.1090 284512.0000
     12     31   1      0.1090 284512.0000
     13     14   1      0.1529 224262.4000
     13     32   1      0.1090 284512.0000
     13     33   1      0.1090 284512.0000
     14     15   1      0.1529 224262.4000
     14     34   1      0.1090 284512.0000
     14     35   1      0.1090 284512.0000
     15     16   1      0.1449 282001.6000
     15     36   1      0.1090 284512.0000
     15     37   1      0.1090 284512.0000
     16     38   1      0.1010 363171.2000
     16     40   1      0.1335 410032.0000
     40     41   1      0.1229 476976.0000
     40     42   1      0.1522 265265.6000
     42     43   1      0.1529 224262.4000
     42     56   1      0.1090 284512.0000
     42     57   1      0.1090 284512.0000
     43     44   1      0.1529 224262.4000
     43     58   1      0.1090 284512.0000
     43     59   1      0.1090 284512.0000
     44     45   1      0.1529 224262.4000
     44     60   1      0.1090 284512.0000
     44     61   1      0.1090 284512.0000
     45     46   1      0.1522 265265.6000
     45     62   1      0.1090 284512.0000
     45     63   1      0.1090 284512.0000
     46     47   1      0.1229 476976.0000
     46     48   1      0.1335 410032.0000
     48     49   1      0.1449 282001.6000
     48     64   1      0.1010 363171.2000
     49     50   1      0.1529 224262.4000
     49     65   1      0.1090 284512.0000
     49     66   1      0.1090 284512.0000
     50     51   1      0.1529 224262.4000
     50     67   1      0.1090 284512.0000
     50     68   1      0.1090 284512.0000
     51     52   1      0.1529 224262.4000
     51     69   1      0.1090 284512.0000
     51     70   1      0.1090 284512.0000
     52     53   1      0.1529 224262.4000
     52     71   1      0.1090 284512.0000
     52     72   1      0.1090 284512.0000
     53     54   1      0.1529 224262.4000
     53     73   1      0.1090 284512.0000
     53     74   1      0.1090 284512.0000
     54     55   1      0.1449 282001.6000
     54     75   1      0.1090 284512.0000
     54     76   1      0.1090 284512.0000
     55     77   1      0.1010 363171.2000
     55     78   1      0.1335 410032.0000
     78     79   1      0.1229 476976.0000
     78     80   1      0.1522 265265.6000
     80     81   1      0.1529 224262.4000
     80     94   1      0.1090 284512.0000
     80     95   1      0.1090 284512.0000
     81     82   1      0.1529 224262.4000
     81     96   1      0.1090 284512.0000
     81     97   1      0.1090 284512.0000
     82     83   1      0.1529 224262.4000
     82     98   1      0.1090 284512.0000
     82     99   1      0.1090 284512.0000
     83     84   1      0.1522 265265.6000
     83    100   1      0.1090 284512.0000
     83    101   1      0.1090 284512.0000
     84     85   1      0.1229 476976.0000
     84     86   1      0.1335 410032.0000
     86     87   1      0.1449 282001.6000
     86    102   1      0.1010 363171.2000
     87     88   1      0.1529 224262.4000
     87    103   1      0.1090 284512.0000
     87    104   1      0.1090 284512.0000
     88     89   1      0.1529 224262.4000
     88    105   1      0.1090 284512.0000
     88    106   1      0.1090 284512.0000
     89     90   1      0.1529 224262.4000
     89    107   1      0.1090 284512.0000
     89    108   1      0.1090 284512.0000
     90     91   1      0.1529 224262.4000
     90    109   1      0.1090 284512.0000
     90    110   1      0.1090 284512.0000
     91     92   1      0.1529 224262.4000
     91    111   1      0.1090 284512.0000
     91    112   1      0.1090 284512.0000
     92     93   1      0.1449 282001.6000
     92    113   1      0.1090 284512.0000
     92    114   1      0.1090 284512.0000
     93    115   1      0.1010 363171.2000
     93    116   1      0.1335 410032.0000
    116    117   1      0.1229 476976.0000
    116    118   1      0.1522 265265.6000
    118    119   1      0.1529 224262.4000
    118    132   1      0.1090 284512.0000
    118    133   1      0.1090 284512.0000
    119    120   1      0.1529 224262.4000
    119    134   1      0.1090 284512.0000
    119    135   1      0.1090 284512.0000
    120    121   1      0.1529 224262.4000
    120    136   1      0.1090 284512.0000
    120    137   1      0.1090 284512.0000
    121    122   1      0.1522 265265.6000
    121    138   1      0.1090 284512.0000
    121    139   1      0.1090 284512.0000
    122    123   1      0.1229 476976.0000
    122    124   1      0.1335 410032.0000
    124    125   1      0.1449 282001.6000
    124    140   1      0.1010 363171.2000
    125    126   1      0.1529 224262.4000
    125    141   1      0.1090 284512.0000
    125    142   1      0.1090 284512.0000
    126    127   1      0.1529 224262.4000
    126    143   1      0.1090 284512.0000
    126    144   1      0.1090 284512.0000
    127    128   1      0.1529 224262.4000
    127    145   1      0.1090 284512.0000
    127    146   1      0.1090 284512.0000
    128    129   1      0.1529 224262.4000
    128    147   1      0.1090 284512.0000
    128    148   1      0.1090 284512.0000
    129    130   1      0.1529 224262.4000
    129    149   1      0.1090 284512.0000
    129    150   1      0.1090 284512.0000
    130    131   1      0.1449 282001.6000
    130    151   1      0.1090 284512.0000
    130    152   1      0.1090 284512.0000
    131    153   1      0.1010 363171.2000
    131    154   1      0.1335 410032.0000
    154    155   1      0.1229 476976.0000
    154    156   1      0.1522 265265.6000
    156    157   1      0.1529 224262.4000
    156    170   1      0.1090 284512.0000
    156    171   1      0.1090 284512.0000
    157    158   1      0.1529 224262.4000
    157    172   1      0.1090 284512.0000
    157    173   1      0.1090 284512.0000
    158    159   1      0.1529 224262.4000
    158    174   1      0.1090 284512.0000
    158    175   1      0.1090 284512.0000
    159    160   1      0.1522 265265.6000
    159    176   1      0.1090 284512.0000
    159    177   1      0.1090 284512.0000
    160    161   1      0.1229 476976.0000
    160    162   1      0.1335 410032.0000
    162    163   1      0.1449 282001.6000
    162    178   1      0.1010 363171.2000
    163    164   1      0.1529 224262.4000
    163    179   1      0.1090 284512.0000
    163    180   1      0.1090 284512.0000
    164    165   1      0.1529 224262.4000
    164    181   1      0.1090 284512.0000
    164    182   1      0.1090 284512.0000
    165    166   1      0.1529 224262.4000
    165    183   1      0.1090 284512.0000
    165    184   1      0.1090 284512.0000
    166    167   1      0.1529 224262.4000
    166    185   1      0.1090 284512.0000
    166    186   1      0.1090 284512.0000
    167    168   1      0.1529 224262.4000
    167    187   1      0.1090 284512.0000
    167    188   1      0.1090 284512.0000
    168    169   1      0.1449 282001.6000
    168    189   1      0.1090 284512.0000
    168    190   1      0.1090 284512.0000
    169    191   1      0.1010 363171.2000
    169    192   1      0.1335 410032.0000
    192    193   1      0.1229 476976.0000
    192    194   1      0.1522 265265.6000
    194    195   1      0.1529 224262.4000
    194    208   1      0.1090 284512.0000
    194    209   1      0.1090 284512.0000
    195    196   1      0.1529 224262.4000
    195    210   1      0.1090 284512.0000
    195    211   1      0.1090 284512.0000
    196    197   1      0.1529 224262.4000
    196    212   1      0.1090 284512.0000
    196    213   1      0.1090 284512.0000
    197    198   1      0.1522 265265.6000
    197    214   1      0.1090 284512.0000
    197    215   1      0.1090 284512.0000
    198    199   1      0.1229 476976.0000
    198    200   1      0.1335 410032.0000
    200    201   1      0.1449 282001.6000
    200    216   1      0.1010 363171.2000
    201    202   1      0.1529 224262.4000
    201    217   1      0.1090 284512.0000
    201    218   1      0.1090 284512.0000
    202    203   1      0.1529 224262.4000
    202    219   1      0.1090 284512.0000
    202    220   1      0.1090 284512.0000
    203    204   1      0.1529 224262.4000
    203    221   1      0.1090 284512.0000
    203    222   1      0.1090 284512.0000
    204    205   1      0.1529 224262.4000
    204    223   1      0.1090 284512.0000
    204    224   1      0.1090 284512.0000
    205    206   1      0.1529 224262.4000
    205    225   1      0.1090 284512.0000
    205    226   1      0.1090 284512.0000
    206    207   1      0.1449 282001.6000
    206    227   1      0.1090 284512.0000
    206    228   1      0.1090 284512.0000
    207    229   1      0.1010 363171.2000
    207    230   1      0.1335 410032.0000
    230    231   1      0.1229 476976.0000
    230    232   1      0.1522 265265.6000
    232    233   1      0.1529 224262.4000
    232    246   1      0.1090 284512.0000
    232    247   1      0.1090 284512.0000
    233    234   1      0.1529 224262.4000
    233    248   1      0.1090 284512.0000
    233    249   1      0.1090 284512.0000
    234    235   1      0.1529 224262.4000
    234    250   1      0.1090 284512.0000
    234    251   1      0.1090 284512.0000
    235    236   1      0.1522 265265.6000
    235    252   1      0.1090 284512.0000
    235    253   1      0.1090 284512.0000
    236    237   1      0.1229 476976.0000
    236    238   1      0.1335 410032.0000
    238    239   1      0.1449 282001.6000
    238    254   1      0.1010 363171.2000
    239    240   1      0.1529 224262.4000
    239    255   1      0.1090 284512.0000
    239    256   1      0.1090 284512.0000
    240    241   1      0.1529 224262.4000
    240    257   1      0.1090 284512.0000
    240    258   1      0.1090 284512.0000
    241    242   1      0.1529 224262.4000
    241    259   1      0.1090 284512.0000
    241    260   1      0.1090 284512.0000
    242    243   1      0.1529 224262.4000
    242    261   1      0.1090 284512.0000
    242    262   1      0.1090 284512.0000
    243    244   1      0.1529 224262.4000
    243    263   1      0.1090 284512.0000
    243    264   1      0.1090 284512.0000
    244    245   1      0.1449 282001.6000
    244    265   1      0.1090 284512.0000
    244    266   1      0.1090 284512.0000
    245    267   1      0.1010 363171.2000
    245    268   1      0.1335 410032.0000
    268    269   1      0.1229 476976.0000
    268    270   1      0.1522 265265.6000
    270    271   1      0.1529 224262.4000
    270    284   1      0.1090 284512.0000
    270    285   1      0.1090 284512.0000
    271    272   1      0.1529 224262.4000
    271    286   1      0.1090 284512.0000
    271    287   1      0.1090 284512.0000
    272    273   1      0.1529 224262.4000
    272    288   1      0.1090 284512.0000
    272    289   1      0.1090 284512.0000
    273    274   1      0.1522 265265.6000
    273    290   1      0.1090 284512.0000
    273    291   1      0.1090 284512.0000
    274    275   1      0.1229 476976.0000
    274    276   1      0.1335 410032.0000
    276    277   1      0.1449 282001.6000
    276    292   1      0.1010 363171.2000
    277    278   1      0.1529 224262.4000
    277    293   1      0.1090 284512.0000
    277    294   1      0.1090 284512.0000
    278    279   1      0.1529 224262.4000
    278    295   1      0.1090 284512.0000
    278    296   1      0.1090 284512.0000
    279    280   1      0.1529 224262.4000
    279    297   1      0.1090 284512.0000
    279    298   1      0.1090 284512.0000
    280    281   1      0.1529 224262.4000
    280    299   1      0.1090 284512.0000
    280    300   1      0.1090 284512.0000
    281    282   1      0.1529 224262.4000
    281    301   1      0.1090 284512.0000
    281    302   1      0.1090 284512.0000
    282    283   1      0.1449 282001.6000
    282    303   1      0.1090 284512.0000
    282    304   1      0.1090 284512.0000
    283    305   1      0.1010 363171.2000
    283    306   1      0.1335 410032.0000
    306    307   1      0.1229 476976.0000
    306    308   1      0.1522 265265.6000
    308    309   1      0.1529 224262.4000
    308    322   1      0.1090 284512.0000
    308    323   1      0.1090 284512.0000
    309    310   1      0.1529 224262.4000
    309    324   1      0.1090 284512.0000
    309    325   1      0.1090 284512.0000
    310    311   1      0.1529 224262.4000
    310    326   1      0.1090 284512.0000
    310    327   1      0.1090 284512.0000
    311    312   1      0.1522 265265.6000
    311    328   1      0.1090 284512.0000
    311    329   1      0.1090 284512.0000
    312    313   1      0.1229 476976.0000
    312    314   1      0.1335 410032.0000
    314    315   1      0.1449 282001.6000
    314    330   1      0.1010 363171.2000
    315    316   1      0.1529 224262.4000
    315    331   1      0.1090 284512.0000
    315    332   1      0.1090 284512.0000
    316    317   1      0.1529 224262.4000
    316    333   1      0.1090 284512.0000
    316    334   1      0.1090 284512.0000
    317    318   1      0.1529 224262.4000
    317    335   1      0.1090 284512.0000
    317    336   1      0.1090 284512.0000
    318    319   1      0.1529 224262.4000
    318    337   1      0.1090 284512.0000
    318    338   1      0.1090 284512.0000
    319    320   1      0.1529 224262.4000
    319    339   1      0.1090 284512.0000
    319    340   1      0.1090 284512.0000
    320    321   1      0.1449 282001.6000
    320    341   1      0.1090 284512.0000
    320    342   1      0.1090 284512.0000
    321    343   1      0.1010 363171.2000
    321    344   1      0.1335 410032.0000
    344    345   1      0.1229 476976.0000
    344    346   1      0.1522 265265.6000
    346    347   1      0.1529 224262.4000
    346    360   1      0.1090 284512.0000
    346    361   1      0.1090 284512.0000
    347    348   1      0.1529 224262.4000
    347    362   1      0.1090 284512.0000
    347    363   1      0.1090 284512.0000
    348    349   1      0.1529 224262.4000
    348    364   1      0.1090 284512.0000
    348    365   1      0.1090 284512.0000
    349    350   1      0.1522 265265.6000
    349    366   1      0.1090 284512.0000
    349    367   1      0.1090 284512.0000
    350    351   1      0.1229 476976.0000
    350    352   1      0.1335 410032.0000
    352    353   1      0.1449 282001.6000
    352    368   1      0.1010 363171.2000
    353    354   1      0.1529 224262.4000
    353    369   1      0.1090 284512.0000
    353    370   1      0.1090 284512.0000
    354    355   1      0.1529 224262.4000
    354    371   1      0.1090 284512.0000
    354    372   1      0.1090 284512.0000
    355    356   1      0.1529 224262.4000
    355    373   1      0.1090 284512.0000
    355    374   1      0.1090 284512.0000
    356    357   1      0.1529 224262.4000
    356    375   1      0.1090 284512.0000
    356    376   1      0.1090 284512.0000
    357    358   1      0.1529 224262.4000
    357    377   1      0.1090 284512.0000
    357    378   1      0.1090 284512.0000
    358    359   1      0.1449 282001.6000
    358    379   1      0.1090 284512.0000
    358    380   1      0.1090 284512.0000
    359    381   1      0.1010 363171.2000
    359    382   1      0.1335 410032.0000
    382    383   1      0.1229 476976.0000
    382    384   1      0.1522 265265.6000
    384    385   1      0.1529 224262.4000
    384    398   1      0.1090 284512.0000
    384    399   1      0.1090 284512.0000
    385    386   1      0.1529 224262.4000
    385    400   1      0.1090 284512.0000
    385    401   1      0.1090 284512.0000
    386    387   1      0.1529 224262.4000
    386    402   1      0.1090 284512.0000
    386    403   1      0.1090 284512.0000
    387    388   1      0.1522 265265.6000
    387    404   1      0.1090 284512.0000
    387    405   1      0.1090 284512.0000
    388    389   1      0.1229 476976.0000
    388    390   1      0.1335 410032.0000
    390    391   1      0.1449 282001.6000
    390    406   1      0.1010 363171.2000
    391    392   1      0.1529 224262.4000
    391    407   1      0.1090 284512.0000
    391    408   1      0.1090 284512.0000
    392    393   1      0.1529 224262.4000
    392    409   1      0.1090 284512.0000
    392    410   1      0.1090 284512.0000
    393    394   1      0.1529 224262.4000
    393    411   1      0.1090 284512.0000
    393    412   1      0.1090 284512.0000
    394    395   1      0.1529 224262.4000
    394    413   1      0.1090 284512.0000
    394    414   1      0.1090 284512.0000
    395    396   1      0.1529 224262.4000
    395    415   1      0.1090 284512.0000
    395    416   1      0.1090 284512.0000
    396    397   1      0.1449 282001.6000
    396    417   1      0.1090 284512.0000
    396    418   1      0.1090 284512.0000
    397    419   1      0.1010 363171.2000
    397    420   1      0.1335 410032.0000
    420    421   1      0.1229 476976.0000
    420    422   1      0.1522 265265.6000
    422    423   1      0.1529 224262.4000
    422    436   1      0.1090 284512.0000
    422    437   1      0.1090 284512.0000
    423    424   1      0.1529 224262.4000
    423    438   1      0.1090 284512.0000
    423    439   1      0.1090 284512.0000
    424    425   1      0.1529 224262.4000
    424    440   1      0.1090 284512.0000
    424    441   1      0.1090 284512.0000
    425    426   1      0.1522 265265.6000
    425    442   1      0.1090 284512.0000
    425    443   1      0.1090 284512.0000
    426    427   1      0.1229 476976.0000
    426    428   1      0.1335 410032.0000
    428    429   1      0.1449 282001.6000
    428    444   1      0.1010 363171.2000
    429    430   1      0.1529 224262.4000
    429    445   1      0.1090 284512.0000
    429    446   1      0.1090 284512.0000
    430    431   1      0.1529 224262.4000
    430    447   1      0.1090 284512.0000
    430    448   1      0.1090 284512.0000
    431    432   1      0.1529 224262.4000
    431    449   1      0.1090 284512.0000
    431    450   1      0.1090 284512.0000
    432    433   1      0.1529 224262.4000
    432    451   1      0.1090 284512.0000
    432    452   1      0.1090 284512.0000
    433    434   1      0.1529 224262.4000
    433    453   1      0.1090 284512.0000
    433    454   1      0.1090 284512.0000
    434    435   1      0.1449 282001.6000
    434    455   1      0.1090 284512.0000
    434    456   1      0.1090 284512.0000
    435    457   1      0.1010 363171.2000
    435    458   1      0.1335 410032.0000
    458    459   1      0.1229 476976.0000
    458    460   1      0.1522 265265.6000
    460    461   1      0.1529 224262.4000
    460    474   1      0.1090 284512.0000
    460    475   1      0.1090 284512.0000
    461    462   1      0.1529 224262.4000
    461    476   1      0.1090 284512.0000
    461    477   1      0.1090 284512.0000
    462    463   1      0.1529 224262.4000
    462    478   1      0.1090 284512.0000
    462    479   1      0.1090 284512.0000
    463    464   1      0.1522 265265.6000
    463    480   1      0.1090 284512.0000
    463    481   1      0.1090 284512.0000
    464    465   1      0.1229 476976.0000
    464    466   1      0.1335 410032.0000
    466    467   1      0.1449 282001.6000
    466    482   1      0.1010 363171.2000
    467    468   1      0.1529 224262.4000
    467    483   1      0.1090 284512.0000
    467    484   1      0.1090 284512.0000
    468    469   1      0.1529 224262.4000
    468    485   1      0.1090 284512.0000
    468    486   1      0.1090 284512.0000
    469    470   1      0.1529 224262.4000
    469    487   1      0.1090 284512.0000
    469    488   1      0.1090 284512.0000
    470    471   1      0.1529 224262.4000
    470    489   1      0.1090 284512.0000
    470    490   1      0.1090 284512.0000
    471    472   1      0.1529 224262.4000
    471    491   1      0.1090 284512.0000
    471    492   1      0.1090 284512.0000
    472    473   1      0.1449 282001.6000
    472    493   1      0.1090 284512.0000
    472    494   1      0.1090 284512.0000
    473    495   1      0.1010 363171.2000
    473    496   1      0.1335 410032.0000
    496    497   1      0.1229 476976.0000
    496    498   1      0.1522 265265.6000
    498    499   1      0.1529 224262.4000
    498    512   1      0.1090 284512.0000
    498    513   1      0.1090 284512.0000
    499    500   1      0.1529 224262.4000
    499    514   1      0.1090 284512.0000
    499    515   1      0.1090 284512.0000
    500    501   1      0.1529 224262.4000
    500    516   1      0.1090 284512.0000
    500    517   1      0.1090 284512.0000
    501    502   1      0.1522 265265.6000
    501    518   1      0.1090 284512.0000
    501    519   1      0.1090 284512.0000
    502    503   1      0.1229 476976.0000
    502    504   1      0.1335 410032.0000
    504    505   1      0.1449 282001.6000
    504    520   1      0.1010 363171.2000
    505    506   1      0.1529 224262.4000
    505    521   1      0.1090 284512.0000
    505    522   1      0.1090 284512.0000
    506    507   1      0.1529 224262.4000
    506    523   1      0.1090 284512.0000
    506    524   1      0.1090 284512.0000
    507    508   1      0.1529 224262.4000
    507    525   1      0.1090 284512.0000
    507    526   1      0.1090 284512.0000
    508    509   1      0.1529 224262.4000
    508    527   1      0.1090 284512.0000
    508    528   1      0.1090 284512.0000
    509    510   1      0.1529 224262.4000
    509    529   1      0.1090 284512.0000
    509    530   1      0.1090 284512.0000
    510    511   1      0.1449 282001.6000
    510    531   1      0.1090 284512.0000
    510    532   1      0.1090 284512.0000
    511    533   1      0.1010 363171.2000
    511    534   1      0.1335 410032.0000
    534    535   1      0.1229 476976.0000
    534    536   1      0.1522 265265.6000
    536    537   1      0.1529 224262.4000
    536    550   1      0.1090 284512.0000
    536    551   1      0.1090 284512.0000
    537    538   1      0.1529 224262.4000
    537    552   1      0.1090 284512.0000
    537    553   1      0.1090 284512.0000
    538    539   1      0.1529 224262.4000
    538    554   1      0.1090 284512.0000
    538    555   1      0.1090 284512.0000
    539    540   1      0.1522 265265.6000
    539    556   1      0.1090 284512.0000
    539    557   1      0.1090 284512.0000
    540    541   1      0.1229 476976.0000
    540    542   1      0.1335 410032.0000
    542    543   1      0.1449 282001.6000
    542    558   1      0.1010 363171.2000
    543    544   1      0.1529 224262.4000
    543    559   1      0.1090 284512.0000
    543    560   1      0.1090 284512.0000
    544    545   1      0.1529 224262.4000
    544    561   1      0.1090 284512.0000
    544    562   1      0.1090 284512.0000
    545    546   1      0.1529 224262.4000
    545    563   1      0.1090 284512.0000
    545    564   1      0.1090 284512.0000
    546    547   1      0.1529 224262.4000
    546    565   1      0.1090 284512.0000
    546    566   1      0.1090 284512.0000
    547    548   1      0.1529 224262.4000
    547    567   1      0.1090 284512.0000
    547    568   1      0.1090 284512.0000
    548    549   1      0.1449 282001.6000
    548    569   1      0.1090 284512.0000
    548    570   1      0.1090 284512.0000
    549    571   1      0.1010 363171.2000
    549    572   1      0.1335 410032.0000
    572    573   1      0.1229 476976.0000
    572    574   1      0.1522 265265.6000
    574    575   1      0.1529 224262.4000
    574    588   1      0.1090 284512.0000
    574    589   1      0.1090 284512.0000
    575    576   1      0.1529 224262.4000
    575    590   1      0.1090 284512.0000
    575    591   1      0.1090 284512.0000
    576    577   1      0.1529 224262.4000
    576    592   1      0.1090 284512.0000
    576    593   1      0.1090 284512.0000
    577    578   1      0.1522 265265.6000
    577    594   1      0.1090 284512.0000
    577    595   1      0.1090 284512.0000
    578    579   1      0.1229 476976.0000
    578    580   1      0.1335 410032.0000
    580    581   1      0.1449 282001.6000
    580    596   1      0.1010 363171.2000
    581    582   1      0.1529 224262.4000
    581    597   1      0.1090 284512.0000
    581    598   1      0.1090 284512.0000
    582    583   1      0.1529 224262.4000
    582    599   1      0.1090 284512.0000
    582    600   1      0.1090 284512.0000
    583    584   1      0.1529 224262.4000
    583    601   1      0.1090 284512.0000
    583    602   1      0.1090 284512.0000
    584    585   1      0.1529 224262.4000
    584    603   1      0.1090 284512.0000
    584    604   1      0.1090 284512.0000
    585    586   1      0.1529 224262.4000
    585    605   1      0.1090 284512.0000
    585    606   1      0.1090 284512.0000
    586    587   1      0.1449 282001.6000
    586    607   1      0.1090 284512.0000
    586    608   1      0.1090 284512.0000
    587    609   1      0.1010 363171.2000
    587    610   1      0.1335 410032.0000
    610    611   1      0.1229 476976.0000
    610    612   1      0.1522 265265.6000
    612    613   1      0.1529 224262.4000
    612    626   1      0.1090 284512.0000
    612    627   1      0.1090 284512.0000
    613    614   1      0.1529 224262.4000
    613    628   1      0.1090 284512.0000
    613    629   1      0.1090 284512.0000
    614    615   1      0.1529 224262.4000
    614    630   1      0.1090 284512.0000
    614    631   1      0.1090 284512.0000
    615    616   1      0.1522 265265.6000
    615    632   1      0.1090 284512.0000
    615    633   1      0.1090 284512.0000
    616    617   1      0.1229 476976.0000
    616    618   1      0.1335 410032.0000
    618    619   1      0.1449 282001.6000
    618    634   1      0.1010 363171.2000
    619    620   1      0.1529 224262.4000
    619    635   1      0.1090 284512.0000
    619    636   1      0.1090 284512.0000
    620    621   1      0.1529 224262.4000
    620    637   1      0.1090 284512.0000
    620    638   1      0.1090 284512.0000
    621    622   1      0.1529 224262.4000
    621    639   1      0.1090 284512.0000
    621    640   1      0.1090 284512.0000
    622    623   1      0.1529 224262.4000
    622    641   1      0.1090 284512.0000
    622    642   1      0.1090 284512.0000
    623    624   1      0.1529 224262.4000
    623    643   1      0.1090 284512.0000
    623    644   1      0.1090 284512.0000
    624    625   1      0.1449 282001.6000
    624    645   1      0.1090 284512.0000
    624    646   1      0.1090 284512.0000
    625    647   1      0.1010 363171.2000
    625    648   1      0.1335 410032.0000
    648    649   1      0.1229 476976.0000
    648    650   1      0.1522 265265.6000
    650    651   1      0.1529 224262.4000
    650    664   1      0.1090 284512.0000
    650    665   1      0.1090 284512.0000
    651    652   1      0.1529 224262.4000
    651    666   1      0.1090 284512.0000
    651    667   1      0.1090 284512.0000
    652    653   1      0.1529 224262.4000
    652    668   1      0.1090 284512.0000
    652    669   1      0.1090 284512.0000
    653    654   1      0.1522 265265.6000
    653    670   1      0.1090 284512.0000
    653    671   1      0.1090 284512.0000
    654    655   1      0.1229 476976.0000
    654    656   1      0.1335 410032.0000
    656    657   1      0.1449 282001.6000
    656    672   1      0.1010 363171.2000
    657    658   1      0.1529 224262.4000
    657    673   1      0.1090 284512.0000
    657    674   1      0.1090 284512.0000
    658    659   1      0.1529 224262.4000
    658    675   1      0.1090 284512.0000
    658    676   1      0.1090 284512.0000
    659    660   1      0.1529 224262.4000
    659    677   1      0.1090 284512.0000
    659    678   1      0.1090 284512.0000
    660    661   1      0.1529 224262.4000
    660    679   1      0.1090 284512.0000
    660    680   1      0.1090 284512.0000
    661    662   1      0.1529 224262.4000
    661    681   1      0.1090 284512.0000
    661    682   1      0.1090 284512.0000
    662    663   1      0.1449 282001.6000
    662    683   1      0.1090 284512.0000
    662    684   1      0.1090 284512.0000
    663    685   1      0.1010 363171.2000
    663    686   1      0.1335 410032.0000
    686    687   1      0.1229 476976.0000
    686    688   1      0.1522 265265.6000
    688    689   1      0.1529 224262.4000
    688    702   1      0.1090 284512.0000
    688    703   1      0.1090 284512.0000
    689    690   1      0.1529 224262.4000
    689    704   1      0.1090 284512.0000
    689    705   1      0.1090 284512.0000
    690    691   1      0.1529 224262.4000
    690    706   1      0.1090 284512.0000
    690    707   1      0.1090 284512.0000
    691    692   1      0.1522 265265.6000
    691    708   1      0.1090 284512.0000
    691    709   1      0.1090 284512.0000
    692    693   1      0.1229 476976.0000
    692    694   1      0.1335 410032.0000
    694    695   1      0.1449 282001.6000
    694    710   1      0.1010 363171.2000
    695    696   1      0.1529 224262.4000
    695    711   1      0.1090 284512.0000
    695    712   1      0.1090 284512.0000
    696    697   1      0.1529 224262.4000
    696    713   1      0.1090 284512.0000
    696    714   1      0.1090 284512.0000
    697    698   1      0.1529 224262.4000
    697    715   1      0.1090 284512.0000
    697    716   1      0.1090 284512.0000
    698    699   1      0.1529 224262.4000
    698    717   1      0.1090 284512.0000
    698    718   1      0.1090 284512.0000
    699    700   1      0.1529 224262.4000
    699    719   1      0.1090 284512.0000
    699    720   1      0.1090 284512.0000
    700    701   1      0.1449 282001.6000
    700    721   1      0.1090 284512.0000
    700    722   1      0.1090 284512.0000
    701    723   1      0.1010 363171.2000
    701    724   1      0.1335 410032.0000
    724    725   1      0.1229 476976.0000
    724    726   1      0.1522 265265.6000
    726    727   1      0.1529 224262.4000
    726    740   1      0.1090 284512.0000
    726    741   1      0.1090 284512.0000
    727    728   1      0.1529 224262.4000
    727    742   1      0.1090 284512.0000
    727    743   1      0.1090 284512.0000
    728    729   1      0.1529 224262.4000
    728    744   1      0.1090 284512.0000
    728    745   1      0.1090 284512.0000
    729    730   1      0.1522 265265.6000
    729    746   1      0.1090 284512.0000
    729    747   1      0.1090 284512.0000
    730    731   1      0.1229 476976.0000
    730    732   1      0.1335 410032.0000
    732    733   1      0.1449 282001.6000
    732    748   1      0.1010 363171.2000
    733    734   1      0.1529 224262.4000
    733    749   1      0.1090 284512.0000
    733    750   1      0.1090 284512.0000
    734    735   1      0.1529 224262.4000
    734    751   1      0.1090 284512.0000
    734    752   1      0.1090 284512.0000
    735    736   1      0.1529 224262.4000
    735    753   1      0.1090 284512.0000
    735    754   1      0.1090 284512.0000
    736    737   1      0.1529 224262.4000
    736    755   1      0.1090 284512.0000
    736    756   1      0.1090 284512.0000
    737    738   1      0.1529 224262.4000
    737    757   1      0.1090 284512.0000
    737    758   1      0.1090 284512.0000
    738    739   1      0.1448 319657.6000
    738    759   1      0.1090 284512.0000
    738    760   1      0.1090 284512.0000
    739    761   1      0.1010 363171.2000
    739    762   1      0.1010 363171.2000

[ pairs ]
; ai   aj   funct   fudge_QQ  charge_i   charge_j   c6    c12
      2      4   2   0.50000    -0.4500000   -0.1200000   1.095425e-03  1.218041e-06
      2     17   2   0.50000    -0.4500000    0.0600000   1.726228e-04  6.344822e-08
      2     18   2   0.50000    -0.4500000    0.0600000   1.726228e-04  6.344822e-08
     39      4   2   0.50000     0.0000000   -0.1200000   1.599888e-04  9.721644e-08
     39     17   2   0.50000     0.0000000    0.0600000   2.521187e-05  5.064042e-09
     39     18   2   0.50000     0.0000000    0.0600000   2.521187e-05  5.064042e-09
      1      5   2   0.50000     0.4500000   -0.1200000   1.575021e-03  3.561100e-06
      1     19   2   0.50000     0.4500000    0.0600000   3.869820e-04  3.188634e-07
      1     20   2   0.50000     0.4500000    0.0600000   3.869820e-04  3.188634e-07
     17      5   2   0.50000     0.0600000   -0.1200000   1.599888e-04  9.721644e-08
     17     19   2   0.50000     0.0600000    0.0600000   3.930919e-05  8.704828e-09
     17     20   2   0.50000     0.0600000    0.0600000   3.930919e-05  8.704828e-09
     18      5   2   0.50000     0.0600000   -0.1200000   1.599888e-04  9.721644e-08
     18     19   2   0.50000     0.0600000    0.0600000   3.930919e-05  8.704828e-09
     18     20   2   0.50000     0.0600000    0.0600000   3.930919e-05  8.704828e-09
      3      6   2   0.50000    -0.1200000   -0.1200000   1.015252e-03  1.866303e-06
      3     21   2   0.50000    -0.1200000    0.0600000   2.494471e-04  1.671101e-07
      3     22   2   0.50000    -0.1200000    0.0600000   2.494471e-04  1.671101e-07
     19      6   2   0.50000     0.0600000   -0.1200000   2.494471e-04  1.671101e-07
     19     21   2   0.50000     0.0600000    0.0600000   6.128906e-05  1.496315e-08
     19     22   2   0.50000     0.0600000    0.0600000   6.128906e-05  1.496315e-08
     20      6   2   0.50000     0.0600000   -0.1200000   2.494471e-04  1.671101e-07
     20     21   2   0.50000     0.0600000    0.0600000   6.128906e-05  1.496315e-08
     20     22   2   0.50000     0.0600000    0.0600000   6.128906e-05  1.496315e-08
      4      7   2   0.50000    -0.1200000    0.5000000   1.575021e-03  3.561100e-06
      4     23   2   0.50000    -0.1200000    0.0600000   2.494471e-04  1.671101e-07
      4     24   2   0.50000    -0.1200000    0.0600000   2.494471e-04  1.671101e-07
     21      7   2   0.50000     0.0600000    0.5000000   3.869820e-04  3.188634e-07
     21     23   2   0.50000     0.0600000    0.0600000   6.128906e-05  1.496315e-08
     21     24   2   0.50000     0.0600000    0.0600000   6.128906e-05  1.496315e-08
     22      7   2   0.50000     0.0600000    0.5000000   3.869820e-04  3.188634e-07
     22     23   2   0.50000     0.0600000    0.0600000   6.128906e-05  1.496315e-08
     22     24   2   0.50000     0.0600000    0.0600000   6.128906e-05  1.496315e-08
      5      8   2   0.50000    -0.1200000   -0.5000000   1.095425e-03  1.218041e-06
      5      9   2   0.50000    -0.1200000   -0.5000000   1.304585e-03  1.920112e-06
     23      8   2   0.50000     0.0600000   -0.5000000   2.691455e-04  1.090642e-07
     23      9   2   0.50000     0.0600000   -0.5000000   3.205360e-04  1.719281e-07
     24      8   2   0.50000     0.0600000   -0.5000000   2.691455e-04  1.090642e-07
     24      9   2   0.50000     0.0600000   -0.5000000   3.205360e-04  1.719281e-07
      6     10   2   0.50000    -0.1200000    0.0800000   1.015252e-03  1.866303e-06
      6     25   2   0.50000    -0.1200000    0.3000000   1.995577e-06  1.069504e-11
      8     10   2   0.50000    -0.5000000    0.0800000   1.095425e-03  1.218041e-06
      8     25   2   0.50000    -0.5000000    0.3000000   2.153164e-06  6.980110e-12
      7     11   2   0.50000     0.5000000   -0.1200000   1.575021e-03  3.561100e-06
      7     26   2   0.50000     0.5000000    0.0600000   3.869820e-04  3.188634e-07
      7     27   2   0.50000     0.5000000    0.0600000   3.869820e-04  3.188634e-07
     25     11   2   0.50000     0.3000000   -0.1200000   1.995577e-06  1.069504e-11
     25     26   2   0.50000     0.3000000    0.0600000   4.903125e-07  9.576416e-13
     25     27   2   0.50000     0.3000000    0.0600000   4.903125e-07  9.576416e-13
      9     12   2   0.50000    -0.5000000   -0.1200000   1.304585e-03  1.920112e-06
      9     28   2   0.50000    -0.5000000    0.0600000   3.205360e-04  1.719281e-07
      9     29   2   0.50000    -0.5000000    0.0600000   3.205360e-04  1.719281e-07
     26     12   2   0.50000     0.0600000   -0.1200000   2.494471e-04  1.671101e-07
     26     28   2   0.50000     0.0600000    0.0600000   6.128906e-05  1.496315e-08
     26     29   2   0.50000     0.0600000    0.0600000   6.128906e-05  1.496315e-08
     27     12   2   0.50000     0.0600000   -0.1200000   2.494471e-04  1.671101e-07
     27     28   2   0.50000     0.0600000    0.0600000   6.128906e-05  1.496315e-08
     27     29   2   0.50000     0.0600000    0.0600000   6.128906e-05  1.496315e-08
     10     13   2   0.50000     0.0800000   -0.1200000   1.015252e-03  1.866303e-06
     10     30   2   0.50000     0.0800000    0.0600000   2.494471e-04  1.671101e-07
     10     31   2   0.50000     0.0800000    0.0600000   2.494471e-04  1.671101e-07
     28     13   2   0.50000     0.0600000   -0.1200000   2.494471e-04  1.671101e-07
     28     30   2   0.50000     0.0600000    0.0600000   6.128906e-05  1.496315e-08
     28     31   2   0.50000     0.0600000    0.0600000   6.128906e-05  1.496315e-08
     29     13   2   0.50000     0.0600000   -0.1200000   2.494471e-04  1.671101e-07
     29     30   2   0.50000     0.0600000    0.0600000   6.128906e-05  1.496315e-08
     29     31   2   0.50000     0.0600000    0.0600000   6.128906e-05  1.496315e-08
     11     14   2   0.50000    -0.1200000   -0.1200000   1.015252e-03  1.866303e-06
     11     32   2   0.50000    -0.1200000    0.0600000   2.494471e-04  1.671101e-07
     11     33   2   0.50000    -0.1200000    0.0600000   2.494471e-04  1.671101e-07
     30     14   2   0.50000     0.0600000   -0.1200000   2.494471e-04  1.671101e-07
     30     32   2   0.50000     0.0600000    0.0600000   6.128906e-05  1.496315e-08
     30     33   2   0.50000     0.0600000    0.0600000   6.128906e-05  1.496315e-08
     31     14   2   0.50000     0.0600000   -0.1200000   2.494471e-04  1.671101e-07
     31     32   2   0.50000     0.0600000    0.0600000   6.128906e-05  1.496315e-08
     31     33   2   0.50000     0.0600000    0.0600000   6.128906e-05  1.496315e-08
     12     15   2   0.50000    -0.1200000    0.0800000   1.015252e-03  1.866303e-06
     12     34   2   0.50000    -0.1200000    0.0600000   2.494471e-04  1.671101e-07
     12     35   2   0.50000    -0.1200000    0.0600000   2.494471e-04  1.671101e-07
     32     15   2   0.50000     0.0600000    0.0800000   2.494471e-04  1.671101e-07
     32     34   2   0.50000     0.0600000    0.0600000   6.128906e-05  1.496315e-08
     32     35   2   0.50000     0.0600000    0.0600000   6.128906e-05  1.496315e-08
     33     15   2   0.50000     0.0600000    0.0800000   2.494471e-04  1.671101e-07
     33     34   2   0.50000     0.0600000    0.0600000   6.128906e-05  1.496315e-08
     33     35   2   0.50000     0.0600000    0.0600000   6.128906e-05  1.496315e-08
     13     16   2   0.50000    -0.1200000   -0.5000000   1.304585e-03  1.920112e-06
     13     36   2   0.50000    -0.1200000    0.0600000   2.494471e-04  1.671101e-07
     13     37   2   0.50000    -0.1200000    0.0600000   2.494471e-04  1.671101e-07
     34     16   2   0.50000     0.0600000   -0.5000000   3.205360e-04  1.719281e-07
     34     36   2   0.50000     0.0600000    0.0600000   6.128906e-05  1.496315e-08
     34     37   2   0.50000     0.0600000    0.0600000   6.128906e-05  1.496315e-08
     35     16   2   0.50000     0.0600000   -0.5000000   3.205360e-04  1.719281e-07
     35     36   2   0.50000     0.0600000    0.0600000   6.128906e-05  1.496315e-08
     35     37   2   0.50000     0.0600000    0.0600000   6.128906e-05  1.496315e-08
     14     38   2   0.50000    -0.1200000    0.3000000   1.995577e-06  1.069504e-11
     14     40   2   0.50000    -0.1200000    0.5000000   1.575021e-03  3.561100e-06
     36     38   2   0.50000     0.0600000    0.3000000   4.903125e-07  9.576416e-13
     36     40   2   0.50000     0.0600000    0.5000000   3.869820e-04  3.188634e-07
     37     38   2   0.50000     0.0600000    0.3000000   4.903125e-07  9.576416e-13
     37     40   2   0.50000     0.0600000    0.5000000   3.869820e-04  3.188634e-07
     15     41   2   0.50000     0.0800000   -0.5000000   1.095425e-03  1.218041e-06
     15     42   2   0.50000     0.0800000   -0.1200000   1.015252e-03  1.866303e-06
     38     41   2   0.50000     0.3000000   -0.5000000   2.153164e-06  6.980110e-12
     38     42   2   0.50000     0.3000000   -0.1200000   1.995577e-06  1.069504e-11
     16     43   2   0.50000    -0.5000000   -0.1200000   1.304585e-03  1.920112e-06
     16     56   2   0.50000    -0.5000000    0.0600000   3.205360e-04  1.719281e-07
     16     57   2   0.50000    -0.5000000    0.0600000   3.205360e-04  1.719281e-07
     41     43   2   0.50000    -0.5000000   -0.1200000   1.095425e-03  1.218041e-06
     41     56   2   0.50000    -0.5000000    0.0600000   2.691455e-04  1.090642e-07
     41     57   2   0.50000    -0.5000000    0.0600000   2.691455e-04  1.090642e-07
     40     44   2   0.50000     0.5000000   -0.1200000   1.575021e-03  3.561100e-06
     40     58   2   0.50000     0.5000000    0.0600000   3.869820e-04  3.188634e-07
     40     59   2   0.50000     0.5000000    0.0600000   3.869820e-04  3.188634e-07
     56     44   2   0.50000     0.0600000   -0.1200000   2.494471e-04  1.671101e-07
     56     58   2   0.50000     0.0600000    0.0600000   6.128906e-05  1.496315e-08
     56     59   2   0.50000     0.0600000    0.0600000   6.128906e-05  1.496315e-08
     57     44   2   0.50000     0.0600000   -0.1200000   2.494471e-04  1.671101e-07
     57     58   2   0.50000     0.0600000    0.0600000   6.128906e-05  1.496315e-08
     57     59   2   0.50000     0.0600000    0.0600000   6.128906e-05  1.496315e-08
     42     45   2   0.50000    -0.1200000   -0.1200000   1.015252e-03  1.866303e-06
     42     60   2   0.50000    -0.1200000    0.0600000   2.494471e-04  1.671101e-07
     42     61   2   0.50000    -0.1200000    0.0600000   2.494471e-04  1.671101e-07
     58     45   2   0.50000     0.0600000   -0.1200000   2.494471e-04  1.671101e-07
     58     60   2   0.50000     0.0600000    0.0600000   6.128906e-05  1.496315e-08
     58     61   2   0.50000     0.0600000    0.0600000   6.128906e-05  1.496315e-08
     59     45   2   0.50000     0.0600000   -0.1200000   2.494471e-04  1.671101e-07
     59     60   2   0.50000     0.0600000    0.0600000   6.128906e-05  1.496315e-08
     59     61   2   0.50000     0.0600000    0.0600000   6.128906e-05  1.496315e-08
     43     46   2   0.50000    -0.1200000    0.5000000   1.575021e-03  3.561100e-06
     43     62   2   0.50000    -0.1200000    0.0600000   2.494471e-04  1.671101e-07
     43     63   2   0.50000    -0.1200000    0.0600000   2.494471e-04  1.671101e-07
     60     46   2   0.50000     0.0600000    0.5000000   3.869820e-04  3.188634e-07
     60     62   2   0.50000     0.0600000    0.0600000   6.128906e-05  1.496315e-08
     60     63   2   0.50000     0.0600000    0.0600000   6.128906e-05  1.496315e-08
     61     46   2   0.50000     0.0600000    0.5000000   3.869820e-04  3.188634e-07
     61     62   2   0.50000     0.0600000    0.0600000   6.128906e-05  1.496315e-08
     61     63   2   0.50000     0.0600000    0.0600000   6.128906e-05  1.496315e-08
     44     47   2   0.50000    -0.1200000   -0.5000000   1.095425e-03  1.218041e-06
     44     48   2   0.50000    -0.1200000   -0.5000000   1.304585e-03  1.920112e-06
     62     47   2   0.50000     0.0600000   -0.5000000   2.691455e-04  1.090642e-07
     62     48   2   0.50000     0.0600000   -0.5000000   3.205360e-04  1.719281e-07
     63     47   2   0.50000     0.0600000   -0.5000000   2.691455e-04  1.090642e-07
     63     48   2   0.50000     0.0600000   -0.5000000   3.205360e-04  1.719281e-07
     45     49   2   0.50000    -0.1200000    0.0800000   1.015252e-03  1.866303e-06
     45     64   2   0.50000    -0.1200000    0.3000000   1.995577e-06  1.069504e-11
     47     49   2   0.50000    -0.5000000    0.0800000   1.095425e-03  1.218041e-06
     47     64   2   0.50000    -0.5000000    0.3000000   2.153164e-06  6.980110e-12
     46     50   2   0.50000     0.5000000   -0.1200000   1.575021e-03  3.561100e-06
     46     65   2   0.50000     0.5000000    0.0600000   3.869820e-04  3.188634e-07
     46     66   2   0.50000     0.5000000    0.0600000   3.869820e-04  3.188634e-07
     64     50   2   0.50000     0.3000000   -0.1200000   1.995577e-06  1.069504e-11
     64     65   2   0.50000     0.3000000    0.0600000   4.903125e-07  9.576416e-13
     64     66   2   0.50000     0.3000000    0.0600000   4.903125e-07  9.576416e-13
     48     51   2   0.50000    -0.5000000   -0.1200000   1.304585e-03  1.920112e-06
     48     67   2   0.50000    -0.5000000    0.0600000   3.205360e-04  1.719281e-07
     48     68   2   0.50000    -0.5000000    0.0600000   3.205360e-04  1.719281e-07
     65     51   2   0.50000     0.0600000   -0.1200000   2.494471e-04  1.671101e-07
     65     67   2   0.50000     0.0600000    0.0600000   6.128906e-05  1.496315e-08
     65     68   2   0.50000     0.0600000    0.0600000   6.128906e-05  1.496315e-08
     66     51   2   0.50000     0.0600000   -0.1200000   2.494471e-04  1.671101e-07
     66     67   2   0.50000     0.0600000    0.0600000   6.128906e-05  1.496315e-08
     66     68   2   0.50000     0.0600000    0.0600000   6.128906e-05  1.496315e-08
     49     52   2   0.50000     0.0800000   -0.1200000   1.015252e-03  1.866303e-06
     49     69   2   0.50000     0.0800000    0.0600000   2.494471e-04  1.671101e-07
     49     70   2   0.50000     0.0800000    0.0600000   2.494471e-04  1.671101e-07
     67     52   2   0.50000     0.0600000   -0.1200000   2.494471e-04  1.671101e-07
     67     69   2   0.50000     0.0600000    0.0600000   6.128906e-05  1.496315e-08
     67     70   2   0.50000     0.0600000    0.0600000   6.128906e-05  1.496315e-08
     68     52   2   0.50000     0.0600000   -0.1200000   2.494471e-04  1.671101e-07
     68     69   2   0.50000     0.0600000    0.0600000   6.128906e-05  1.496315e-08
     68     70   2   0.50000     0.0600000    0.0600000   6.128906e-05  1.496315e-08
     50     53   2   0.50000    -0.1200000   -0.1200000   1.015252e-03  1.866303e-06
     50     71   2   0.50000    -0.1200000    0.0600000   2.494471e-04  1.671101e-07
     50     72   2   0.50000    -0.1200000    0.0600000   2.494471e-04  1.671101e-07
     69     53   2   0.50000     0.0600000   -0.1200000   2.494471e-04  1.671101e-07
     69     71   2   0.50000     0.0600000    0.0600000   6.128906e-05  1.496315e-08
     69     72   2   0.50000     0.0600000    0.0600000   6.128906e-05  1.496315e-08
     70     53   2   0.50000     0.0600000   -0.1200000   2.494471e-04  1.671101e-07
     70     71   2   0.50000     0.0600000    0.0600000   6.128906e-05  1.496315e-08
     70     72   2   0.50000     0.0600000    0.0600000   6.128906e-05  1.496315e-08
     51     54   2   0.50000    -0.1200000    0.0800000   1.015252e-03  1.866303e-06
     51     73   2   0.50000    -0.1200000    0.0600000   2.494471e-04  1.671101e-07
     51     74   2   0.50000    -0.1200000    0.0600000   2.494471e-04  1.671101e-07
     71     54   2   0.50000     0.0600000    0.0800000   2.494471e-04  1.671101e-07
     71     73   2   0.50000     0.0600000    0.0600000   6.128906e-05  1.496315e-08
     71     74   2   0.50000     0.0600000    0.0600000   6.128906e-05  1.496315e-08
     72     54   2   0.50000     0.0600000    0.0800000   2.494471e-04  1.671101e-07
     72     73   2   0.50000     0.0600000    0.0600000   6.128906e-05  1.496315e-08
     72     74   2   0.50000     0.0600000    0.0600000   6.128906e-05  1.496315e-08
     52     55   2   0.50000    -0.1200000   -0.5000000   1.304585e-03  1.920112e-06
     52     75   2   0.50000    -0.1200000    0.0600000   2.494471e-04  1.671101e-07
     52     76   2   0.50000    -0.1200000    0.0600000   2.494471e-04  1.671101e-07
     73     55   2   0.50000     0.0600000   -0.5000000   3.205360e-04  1.719281e-07
     73     75   2   0.50000     0.0600000    0.0600000   6.128906e-05  1.496315e-08
     73     76   2   0.50000     0.0600000    0.0600000   6.128906e-05  1.496315e-08
     74     55   2   0.50000     0.0600000   -0.5000000   3.205360e-04  1.719281e-07
     74     75   2   0.50000     0.0600000    0.0600000   6.128906e-05  1.496315e-08
     74     76   2   0.50000     0.0600000    0.0600000   6.128906e-05  1.496315e-08
     53     77   2   0.50000    -0.1200000    0.3000000   1.995577e-06  1.069504e-11
     53     78   2   0.50000    -0.1200000    0.5000000   1.575021e-03  3.561100e-06
     75     77   2   0.50000     0.0600000    0.3000000   4.903125e-07  9.576416e-13
     75     78   2   0.50000     0.0600000    0.5000000   3.869820e-04  3.188634e-07
     76     77   2   0.50000     0.0600000    0.3000000   4.903125e-07  9.576416e-13
     76     78   2   0.50000     0.0600000    0.5000000   3.869820e-04  3.188634e-07
     54     79   2   0.50000     0.0800000   -0.5000000   1.095425e-03  1.218041e-06
     54     80   2   0.50000     0.0800000   -0.1200000   1.015252e-03  1.866303e-06
     77     79   2   0.50000     0.3000000   -0.5000000   2.153164e-06  6.980110e-12
     77     80   2   0.50000     0.3000000   -0.1200000   1.995577e-06  1.069504e-11
     55     81   2   0.50000    -0.5000000   -0.1200000   1.304585e-03  1.920112e-06
     55     94   2   0.50000    -0.5000000    0.0600000   3.205360e-04  1.719281e-07
     55     95   2   0.50000    -0.5000000    0.0600000   3.205360e-04  1.719281e-07
     79     81   2   0.50000    -0.5000000   -0.1200000   1.095425e-03  1.218041e-06
     79     94   2   0.50000    -0.5000000    0.0600000   2.691455e-04  1.090642e-07
     79     95   2   0.50000    -0.5000000    0.0600000   2.691455e-04  1.090642e-07
     78     82   2   0.50000     0.5000000   -0.1200000   1.575021e-03  3.561100e-06
     78     96   2   0.50000     0.5000000    0.0600000   3.869820e-04  3.188634e-07
     78     97   2   0.50000     0.5000000    0.0600000   3.869820e-04  3.188634e-07
     94     82   2   0.50000     0.0600000   -0.1200000   2.494471e-04  1.671101e-07
     94     96   2   0.50000     0.0600000    0.0600000   6.128906e-05  1.496315e-08
     94     97   2   0.50000     0.0600000    0.0600000   6.128906e-05  1.496315e-08
     95     82   2   0.50000     0.0600000   -0.1200000   2.494471e-04  1.671101e-07
     95     96   2   0.50000     0.0600000    0.0600000   6.128906e-05  1.496315e-08
     95     97   2   0.50000     0.0600000    0.0600000   6.128906e-05  1.496315e-08
     80     83   2   0.50000    -0.1200000   -0.1200000   1.015252e-03  1.866303e-06
     80     98   2   0.50000    -0.1200000    0.0600000   2.494471e-04  1.671101e-07
     80     99   2   0.50000    -0.1200000    0.0600000   2.494471e-04  1.671101e-07
     96     83   2   0.50000     0.0600000   -0.1200000   2.494471e-04  1.671101e-07
     96     98   2   0.50000     0.0600000    0.0600000   6.128906e-05  1.496315e-08
     96     99   2   0.50000     0.0600000    0.0600000   6.128906e-05  1.496315e-08
     97     83   2   0.50000     0.0600000   -0.1200000   2.494471e-04  1.671101e-07
     97     98   2   0.50000     0.0600000    0.0600000   6.128906e-05  1.496315e-08
     97     99   2   0.50000     0.0600000    0.0600000   6.128906e-05  1.496315e-08
     81     84   2   0.50000    -0.1200000    0.5000000   1.575021e-03  3.561100e-06
     81    100   2   0.50000    -0.1200000    0.0600000   2.494471e-04  1.671101e-07
     81    101   2   0.50000    -0.1200000    0.0600000   2.494471e-04  1.671101e-07
     98     84   2   0.50000     0.0600000    0.5000000   3.869820e-04  3.188634e-07
     98    100   2   0.50000     0.0600000    0.0600000   6.128906e-05  1.496315e-08
     98    101   2   0.50000     0.0600000    0.0600000   6.128906e-05  1.496315e-08
     99     84   2   0.50000     0.0600000    0.5000000   3.869820e-04  3.188634e-07
     99    100   2   0.50000     0.0600000    0.0600000   6.128906e-05  1.496315e-08
     99    101   2   0.50000     0.0600000    0.0600000   6.128906e-05  1.496315e-08
     82     85   2   0.50000    -0.1200000   -0.5000000   1.095425e-03  1.218041e-06
     82     86   2   0.50000    -0.1200000   -0.5000000   1.304585e-03  1.920112e-06
    100     85   2   0.50000     0.0600000   -0.5000000   2.691455e-04  1.090642e-07
    100     86   2   0.50000     0.0600000   -0.5000000   3.205360e-04  1.719281e-07
    101     85   2   0.50000     0.0600000   -0.5000000   2.691455e-04  1.090642e-07
    101     86   2   0.50000     0.0600000   -0.5000000   3.205360e-04  1.719281e-07
     83     87   2   0.50000    -0.1200000    0.0800000   1.015252e-03  1.866303e-06
     83    102   2   0.50000    -0.1200000    0.3000000   1.995577e-06  1.069504e-11
     85     87   2   0.50000    -0.5000000    0.0800000   1.095425e-03  1.218041e-06
     85    102   2   0.50000    -0.5000000    0.3000000   2.153164e-06  6.980110e-12
     84     88   2   0.50000     0.5000000   -0.1200000   1.575021e-03  3.561100e-06
     84    103   2   0.50000     0.5000000    0.0600000   3.869820e-04  3.188634e-07
     84    104   2   0.50000     0.5000000    0.0600000   3.869820e-04  3.188634e-07
    102     88   2   0.50000     0.3000000   -0.1200000   1.995577e-06  1.069504e-11
    102    103   2   0.50000     0.3000000    0.0600000   4.903125e-07  9.576416e-13
    102    104   2   0.50000     0.3000000    0.0600000   4.903125e-07  9.576416e-13
     86     89   2   0.50000    -0.5000000   -0.1200000   1.304585e-03  1.920112e-06
     86    105   2   0.50000    -0.5000000    0.0600000   3.205360e-04  1.719281e-07
     86    106   2   0.50000    -0.5000000    0.0600000   3.205360e-04  1.719281e-07
    103     89   2   0.50000     0.0600000   -0.1200000   2.494471e-04  1.671101e-07
    103    105   2   0.50000     0.0600000    0.0600000   6.128906e-05  1.496315e-08
    103    106   2   0.50000     0.0600000    0.0600000   6.128906e-05  1.496315e-08
    104     89   2   0.50000     0.0600000   -0.1200000   2.494471e-04  1.671101e-07
    104    105   2   0.50000     0.0600000    0.0600000   6.128906e-05  1.496315e-08
    104    106   2   0.50000     0.0600000    0.0600000   6.128906e-05  1.496315e-08
     87     90   2   0.50000     0.0800000   -0.1200000   1.015252e-03  1.866303e-06
     87    107   2   0.50000     0.0800000    0.0600000   2.494471e-04  1.671101e-07
     87    108   2   0.50000     0.0800000    0.0600000   2.494471e-04  1.671101e-07
    105     90   2   0.50000     0.0600000   -0.1200000   2.494471e-04  1.671101e-07
    105    107   2   0.50000     0.0600000    0.0600000   6.128906e-05  1.496315e-08
    105    108   2   0.50000     0.0600000    0.0600000   6.128906e-05  1.496315e-08
    106     90   2   0.50000     0.0600000   -0.1200000   2.494471e-04  1.671101e-07
    106    107   2   0.50000     0.0600000    0.0600000   6.128906e-05  1.496315e-08
    106    108   2   0.50000     0.0600000    0.0600000   6.128906e-05  1.496315e-08
     88     91   2   0.50000    -0.1200000   -0.1200000   1.015252e-03  1.866303e-06
     88    109   2   0.50000    -0.1200000    0.0600000   2.494471e-04  1.671101e-07
     88    110   2   0.50000    -0.1200000    0.0600000   2.494471e-04  1.671101e-07
    107     91   2   0.50000     0.0600000   -0.1200000   2.494471e-04  1.671101e-07
    107    109   2   0.50000     0.0600000    0.0600000   6.128906e-05  1.496315e-08
    107    110   2   0.50000     0.0600000    0.0600000   6.128906e-05  1.496315e-08
    108     91   2   0.50000     0.0600000   -0.1200000   2.494471e-04  1.671101e-07
    108    109   2   0.50000     0.0600000    0.0600000   6.128906e-05  1.496315e-08
    108    110   2   0.50000     0.0600000    0.0600000   6.128906e-05  1.496315e-08
     89     92   2   0.50000    -0.1200000    0.0800000   1.015252e-03  1.866303e-06
     89    111   2   0.50000    -0.1200000    0.0600000   2.494471e-04  1.671101e-07
     89    112   2   0.50000    -0.1200000    0.0600000   2.494471e-04  1.671101e-07
    109     92   2   0.50000     0.0600000    0.0800000   2.494471e-04  1.671101e-07
    109    111   2   0.50000     0.0600000    0.0600000   6.128906e-05  1.496315e-08
    109    112   2   0.50000     0.0600000    0.0600000   6.128906e-05  1.496315e-08
    110     92   2   0.50000     0.0600000    0.0800000   2.494471e-04  1.671101e-07
    110    111   2   0.50000     0.0600000    0.0600000   6.128906e-05  1.496315e-08
    110    112   2   0.50000     0.0600000    0.0600000   6.128906e-05  1.496315e-08
     90     93   2   0.50000    -0.1200000   -0.5000000   1.304585e-03  1.920112e-06
     90    113   2   0.50000    -0.1200000    0.0600000   2.494471e-04  1.671101e-07
     90    114   2   0.50000    -0.1200000    0.0600000   2.494471e-04  1.671101e-07
    111     93   2   0.50000     0.0600000   -0.5000000   3.205360e-04  1.719281e-07
    111    113   2   0.50000     0.0600000    0.0600000   6.128906e-05  1.496315e-08
    111    114   2   0.50000     0.0600000    0.0600000   6.128906e-05  1.496315e-08
    112     93   2   0.50000     0.0600000   -0.5000000   3.205360e-04  1.719281e-07
    112    113   2   0.50000     0.0600000    0.0600000   6.128906e-05  1.496315e-08
    112    114   2   0.50000     0.0600000    0.0600000   6.128906e-05  1.496315e-08
     91    115   2   0.50000    -0.1200000    0.3000000   1.995577e-06  1.069504e-11
     91    116   2   0.50000    -0.1200000    0.5000000   1.575021e-03  3.561100e-06
    113    115   2   0.50000     0.0600000    0.3000000   4.903125e-07  9.576416e-13
    113    116   2   0.50000     0.0600000    0.5000000   3.869820e-04  3.188634e-07
    114    115   2   0.50000     0.0600000    0.3000000   4.903125e-07  9.576416e-13
    114    116   2   0.50000     0.0600000    0.5000000   3.869820e-04  3.188634e-07
     92    117   2   0.50000     0.0800000   -0.5000000   1.095425e-03  1.218041e-06
     92    118   2   0.50000     0.0800000   -0.1200000   1.015252e-03  1.866303e-06
    115    117   2   0.50000     0.3000000   -0.5000000   2.153164e-06  6.980110e-12
    115    118   2   0.50000     0.3000000   -0.1200000   1.995577e-06  1.069504e-11
     93    119   2   0.50000    -0.5000000   -0.1200000   1.304585e-03  1.920112e-06
     93    132   2   0.50000    -0.5000000    0.0600000   3.205360e-04  1.719281e-07
     93    133   2   0.50000    -0.5000000    0.0600000   3.205360e-04  1.719281e-07
    117    119   2   0.50000    -0.5000000   -0.1200000   1.095425e-03  1.218041e-06
    117    132   2   0.50000    -0.5000000    0.0600000   2.691455e-04  1.090642e-07
    117    133   2   0.50000    -0.5000000    0.0600000   2.691455e-04  1.090642e-07
    116    120   2   0.50000     0.5000000   -0.1200000   1.575021e-03  3.561100e-06
    116    134   2   0.50000     0.5000000    0.0600000   3.869820e-04  3.188634e-07
    116    135   2   0.50000     0.5000000    0.0600000   3.869820e-04  3.188634e-07
    132    120   2   0.50000     0.0600000   -0.1200000   2.494471e-04  1.671101e-07
    132    134   2   0.50000     0.0600000    0.0600000   6.128906e-05  1.496315e-08
    132    135   2   0.50000     0.0600000    0.0600000   6.128906e-05  1.496315e-08
    133    120   2   0.50000     0.0600000   -0.1200000   2.494471e-04  1.671101e-07
    133    134   2   0.50000     0.0600000    0.0600000   6.128906e-05  1.496315e-08
    133    135   2   0.50000     0.0600000    0.0600000   6.128906e-05  1.496315e-08
    118    121   2   0.50000    -0.1200000   -0.1200000   1.015252e-03  1.866303e-06
    118    136   2   0.50000    -0.1200000    0.0600000   2.494471e-04  1.671101e-07
    118    137   2   0.50000    -0.1200000    0.0600000   2.494471e-04  1.671101e-07
    134    121   2   0.50000     0.0600000   -0.1200000   2.494471e-04  1.671101e-07
    134    136   2   0.50000     0.0600000    0.0600000   6.128906e-05  1.496315e-08
    134    137   2   0.50000     0.0600000    0.0600000   6.128906e-05  1.496315e-08
    135    121   2   0.50000     0.0600000   -0.1200000   2.494471e-04  1.671101e-07
    135    136   2   0.50000     0.0600000    0.0600000   6.128906e-05  1.496315e-08
    135    137   2   0.50000     0.0600000    0.0600000   6.128906e-05  1.496315e-08
    119    122   2   0.50000    -0.1200000    0.5000000   1.575021e-03  3.561100e-06
    119    138   2   0.50000    -0.1200000    0.0600000   2.494471e-04  1.671101e-07
    119    139   2   0.50000    -0.1200000    0.0600000   2.494471e-04  1.671101e-07
    136    122   2   0.50000     0.0600000    0.5000000   3.869820e-04  3.188634e-07
    136    138   2   0.50000     0.0600000    0.0600000   6.128906e-05  1.496315e-08
    136    139   2   0.50000     0.0600000    0.0600000   6.128906e-05  1.496315e-08
    137    122   2   0.50000     0.0600000    0.5000000   3.869820e-04  3.188634e-07
    137    138   2   0.50000     0.0600000    0.0600000   6.128906e-05  1.496315e-08
    137    139   2   0.50000     0.0600000    0.0600000   6.128906e-05  1.496315e-08
    120    123   2   0.50000    -0.1200000   -0.5000000   1.095425e-03  1.218041e-06
    120    124   2   0.50000    -0.1200000   -0.5000000   1.304585e-03  1.920112e-06
    138    123   2   0.50000     0.0600000   -0.5000000   2.691455e-04  1.090642e-07
    138    124   2   0.50000     0.0600000   -0.5000000   3.205360e-04  1.719281e-07
    139    123   2   0.50000     0.0600000   -0.5000000   2.691455e-04  1.090642e-07
    139    124   2   0.50000     0.0600000   -0.5000000   3.205360e-04  1.719281e-07
    121    125   2   0.50000    -0.1200000    0.0800000   1.015252e-03  1.866303e-06
    121    140   2   0.50000    -0.1200000    0.3000000   1.995577e-06  1.069504e-11
    123    125   2   0.50000    -0.5000000    0.0800000   1.095425e-03  1.218041e-06
    123    140   2   0.50000    -0.5000000    0.3000000   2.153164e-06  6.980110e-12
    122    126   2   0.50000     0.5000000   -0.1200000   1.575021e-03  3.561100e-06
    122    141   2   0.50000     0.5000000    0.0600000   3.869820e-04  3.188634e-07
    122    142   2   0.50000     0.5000000    0.0600000   3.869820e-04  3.188634e-07
    140    126   2   0.50000     0.3000000   -0.1200000   1.995577e-06  1.069504e-11
    140    141   2   0.50000     0.3000000    0.0600000   4.903125e-07  9.576416e-13
    140    142   2   0.50000     0.3000000    0.0600000   4.903125e-07  9.576416e-13
    124    127   2   0.50000    -0.5000000   -0.1200000   1.304585e-03  1.920112e-06
    124    143   2   0.50000    -0.5000000    0.0600000   3.205360e-04  1.719281e-07
    124    144   2   0.50000    -0.5000000    0.0600000   3.205360e-04  1.719281e-07
    141    127   2   0.50000     0.0600000   -0.1200000   2.494471e-04  1.671101e-07
    141    143   2   0.50000     0.0600000    0.0600000   6.128906e-05  1.496315e-08
    141    144   2   0.50000     0.0600000    0.0600000   6.128906e-05  1.496315e-08
    142    127   2   0.50000     0.0600000   -0.1200000   2.494471e-04  1.671101e-07
    142    143   2   0.50000     0.0600000    0.0600000   6.128906e-05  1.496315e-08
    142    144   2   0.50000     0.0600000    0.0600000   6.128906e-05  1.496315e-08
    125    128   2   0.50000     0.0800000   -0.1200000   1.015252e-03  1.866303e-06
    125    145   2   0.50000     0.0800000    0.0600000   2.494471e-04  1.671101e-07
    125    146   2   0.50000     0.0800000    0.0600000   2.494471e-04  1.671101e-07
    143    128   2   0.50000     0.0600000   -0.1200000   2.494471e-04  1.671101e-07
    143    145   2   0.50000     0.0600000    0.0600000   6.128906e-05  1.496315e-08
    143    146   2   0.50000     0.0600000    0.0600000   6.128906e-05  1.496315e-08
    144    128   2   0.50000     0.0600000   -0.1200000   2.494471e-04  1.671101e-07
    144    145   2   0.50000     0.0600000    0.0600000   6.128906e-05  1.496315e-08
    144    146   2   0.50000     0.0600000    0.0600000   6.128906e-05  1.496315e-08
    126    129   2   0.50000    -0.1200000   -0.1200000   1.015252e-03  1.866303e-06
    126    147   2   0.50000    -0.1200000    0.0600000   2.494471e-04  1.671101e-07
    126    148   2   0.50000    -0.1200000    0.0600000   2.494471e-04  1.671101e-07
    145    129   2   0.50000     0.0600000   -0.1200000   2.494471e-04  1.671101e-07
    145    147   2   0.50000     0.0600000    0.0600000   6.128906e-05  1.496315e-08
    145    148   2   0.50000     0.0600000    0.0600000   6.128906e-05  1.496315e-08
    146    129   2   0.50000     0.0600000   -0.1200000   2.494471e-04  1.671101e-07
    146    147   2   0.50000     0.0600000    0.0600000   6.128906e-05  1.496315e-08
    146    148   2   0.50000     0.0600000    0.0600000   6.128906e-05  1.496315e-08
    127    130   2   0.50000    -0.1200000    0.0800000   1.015252e-03  1.866303e-06
    127    149   2   0.50000    -0.1200000    0.0600000   2.494471e-04  1.671101e-07
    127    150   2   0.50000    -0.1200000    0.0600000   2.494471e-04  1.671101e-07
    147    130   2   0.50000     0.0600000    0.0800000   2.494471e-04  1.671101e-07
    147    149   2   0.50000     0.0600000    0.0600000   6.128906e-05  1.496315e-08
    147    150   2   0.50000     0.0600000    0.0600000   6.128906e-05  1.496315e-08
    148    130   2   0.50000     0.0600000    0.0800000   2.494471e-04  1.671101e-07
    148    149   2   0.50000     0.0600000    0.0600000   6.128906e-05  1.496315e-08
    148    150   2   0.50000     0.0600000    0.0600000   6.128906e-05  1.496315e-08
    128    131   2   0.50000    -0.1200000   -0.5000000   1.304585e-03  1.920112e-06
    128    151   2   0.50000    -0.1200000    0.0600000   2.494471e-04  1.671101e-07
    128    152   2   0.50000    -0.1200000    0.0600000   2.494471e-04  1.671101e-07
    149    131   2   0.50000     0.0600000   -0.5000000   3.205360e-04  1.719281e-07
    149    151   2   0.50000     0.0600000    0.0600000   6.128906e-05  1.496315e-08
    149    152   2   0.50000     0.0600000    0.0600000   6.128906e-05  1.496315e-08
    150    131   2   0.50000     0.0600000   -0.5000000   3.205360e-04  1.719281e-07
    150    151   2   0.50000     0.0600000    0.0600000   6.128906e-05  1.496315e-08
    150    152   2   0.50000     0.0600000    0.0600000   6.128906e-05  1.496315e-08
    129    153   2   0.50000    -0.1200000    0.3000000   1.995577e-06  1.069504e-11
    129    154   2   0.50000    -0.1200000    0.5000000   1.575021e-03  3.561100e-06
    151    153   2   0.50000     0.0600000    0.3000000   4.903125e-07  9.576416e-13
    151    154   2   0.50000     0.0600000    0.5000000   3.869820e-04  3.188634e-07
    152    153   2   0.50000     0.0600000    0.3000000   4.903125e-07  9.576416e-13
    152    154   2   0.50000     0.0600000    0.5000000   3.869820e-04  3.188634e-07
    130    155   2   0.50000     0.0800000   -0.5000000   1.095425e-03  1.218041e-06
    130    156   2   0.50000     0.0800000   -0.1200000   1.015252e-03  1.866303e-06
    153    155   2   0.50000     0.3000000   -0.5000000   2.153164e-06  6.980110e-12
    153    156   2   0.50000     0.3000000   -0.1200000   1.995577e-06  1.069504e-11
    131    157   2   0.50000    -0.5000000   -0.1200000   1.304585e-03  1.920112e-06
    131    170   2   0.50000    -0.5000000    0.0600000   3.205360e-04  1.719281e-07
    131    171   2   0.50000    -0.5000000    0.0600000   3.205360e-04  1.719281e-07
    155    157   2   0.50000    -0.5000000   -0.1200000   1.095425e-03  1.218041e-06
    155    170   2   0.50000    -0.5000000    0.0600000   2.691455e-04  1.090642e-07
    155    171   2   0.50000    -0.5000000    0.0600000   2.691455e-04  1.090642e-07
    154    158   2   0.50000     0.5000000   -0.1200000   1.575021e-03  3.561100e-06
    154    172   2   0.50000     0.5000000    0.0600000   3.869820e-04  3.188634e-07
    154    173   2   0.50000     0.5000000    0.0600000   3.869820e-04  3.188634e-07
    170    158   2   0.50000     0.0600000   -0.1200000   2.494471e-04  1.671101e-07
    170    172   2   0.50000     0.0600000    0.0600000   6.128906e-05  1.496315e-08
    170    173   2   0.50000     0.0600000    0.0600000   6.128906e-05  1.496315e-08
    171    158   2   0.50000     0.0600000   -0.1200000   2.494471e-04  1.671101e-07
    171    172   2   0.50000     0.0600000    0.0600000   6.128906e-05  1.496315e-08
    171    173   2   0.50000     0.0600000    0.0600000   6.128906e-05  1.496315e-08
    156    159   2   0.50000    -0.1200000   -0.1200000   1.015252e-03  1.866303e-06
    156    174   2   0.50000    -0.1200000    0.0600000   2.494471e-04  1.671101e-07
    156    175   2   0.50000    -0.1200000    0.0600000   2.494471e-04  1.671101e-07
    172    159   2   0.50000     0.0600000   -0.1200000   2.494471e-04  1.671101e-07
    172    174   2   0.50000     0.0600000    0.0600000   6.128906e-05  1.496315e-08
    172    175   2   0.50000     0.0600000    0.0600000   6.128906e-05  1.496315e-08
    173    159   2   0.50000     0.0600000   -0.1200000   2.494471e-04  1.671101e-07
    173    174   2   0.50000     0.0600000    0.0600000   6.128906e-05  1.496315e-08
    173    175   2   0.50000     0.0600000    0.0600000   6.128906e-05  1.496315e-08
    157    160   2   0.50000    -0.1200000    0.5000000   1.575021e-03  3.561100e-06
    157    176   2   0.50000    -0.1200000    0.0600000   2.494471e-04  1.671101e-07
    157    177   2   0.50000    -0.1200000    0.0600000   2.494471e-04  1.671101e-07
    174    160   2   0.50000     0.0600000    0.5000000   3.869820e-04  3.188634e-07
    174    176   2   0.50000     0.0600000    0.0600000   6.128906e-05  1.496315e-08
    174    177   2   0.50000     0.0600000    0.0600000   6.128906e-05  1.496315e-08
    175    160   2   0.50000     0.0600000    0.5000000   3.869820e-04  3.188634e-07
    175    176   2   0.50000     0.0600000    0.0600000   6.128906e-05  1.496315e-08
    175    177   2   0.50000     0.0600000    0.0600000   6.128906e-05  1.496315e-08
    158    161   2   0.50000    -0.1200000   -0.5000000   1.095425e-03  1.218041e-06
    158    162   2   0.50000    -0.1200000   -0.5000000   1.304585e-03  1.920112e-06
    176    161   2   0.50000     0.0600000   -0.5000000   2.691455e-04  1.090642e-07
    176    162   2   0.50000     0.0600000   -0.5000000   3.205360e-04  1.719281e-07
    177    161   2   0.50000     0.0600000   -0.5000000   2.691455e-04  1.090642e-07
    177    162   2   0.50000     0.0600000   -0.5000000   3.205360e-04  1.719281e-07
    159    163   2   0.50000    -0.1200000    0.0800000   1.015252e-03  1.866303e-06
    159    178   2   0.50000    -0.1200000    0.3000000   1.995577e-06  1.069504e-11
    161    163   2   0.50000    -0.5000000    0.0800000   1.095425e-03  1.218041e-06
    161    178   2   0.50000    -0.5000000    0.3000000   2.153164e-06  6.980110e-12
    160    164   2   0.50000     0.5000000   -0.1200000   1.575021e-03  3.561100e-06
    160    179   2   0.50000     0.5000000    0.0600000   3.869820e-04  3.188634e-07
    160    180   2   0.50000     0.5000000    0.0600000   3.869820e-04  3.188634e-07
    178    164   2   0.50000     0.3000000   -0.1200000   1.995577e-06  1.069504e-11
    178    179   2   0.50000     0.3000000    0.0600000   4.903125e-07  9.576416e-13
    178    180   2   0.50000     0.3000000    0.0600000   4.903125e-07  9.576416e-13
    162    165   2   0.50000    -0.5000000   -0.1200000   1.304585e-03  1.920112e-06
    162    181   2   0.50000    -0.5000000    0.0600000   3.205360e-04  1.719281e-07
    162    182   2   0.50000    -0.5000000    0.0600000   3.205360e-04  1.719281e-07
    179    165   2   0.50000     0.0600000   -0.1200000   2.494471e-04  1.671101e-07
    179    181   2   0.50000     0.0600000    0.0600000   6.128906e-05  1.496315e-08
    179    182   2   0.50000     0.0600000    0.0600000   6.128906e-05  1.496315e-08
    180    165   2   0.50000     0.0600000   -0.1200000   2.494471e-04  1.671101e-07
    180    181   2   0.50000     0.0600000    0.0600000   6.128906e-05  1.496315e-08
    180    182   2   0.50000     0.0600000    0.0600000   6.128906e-05  1.496315e-08
    163    166   2   0.50000     0.0800000   -0.1200000   1.015252e-03  1.866303e-06
    163    183   2   0.50000     0.0800000    0.0600000   2.494471e-04  1.671101e-07
    163    184   2   0.50000     0.0800000    0.0600000   2.494471e-04  1.671101e-07
    181    166   2   0.50000     0.0600000   -0.1200000   2.494471e-04  1.671101e-07
    181    183   2   0.50000     0.0600000    0.0600000   6.128906e-05  1.496315e-08
    181    184   2   0.50000     0.0600000    0.0600000   6.128906e-05  1.496315e-08
    182    166   2   0.50000     0.0600000   -0.1200000   2.494471e-04  1.671101e-07
    182    183   2   0.50000     0.0600000    0.0600000   6.128906e-05  1.496315e-08
    182    184   2   0.50000     0.0600000    0.0600000   6.128906e-05  1.496315e-08
    164    167   2   0.50000    -0.1200000   -0.1200000   1.015252e-03  1.866303e-06
    164    185   2   0.50000    -0.1200000    0.0600000   2.494471e-04  1.671101e-07
    164    186   2   0.50000    -0.1200000    0.0600000   2.494471e-04  1.671101e-07
    183    167   2   0.50000     0.0600000   -0.1200000   2.494471e-04  1.671101e-07
    183    185   2   0.50000     0.0600000    0.0600000   6.128906e-05  1.496315e-08
    183    186   2   0.50000     0.0600000    0.0600000   6.128906e-05  1.496315e-08
    184    167   2   0.50000     0.0600000   -0.1200000   2.494471e-04  1.671101e-07
    184    185   2   0.50000     0.0600000    0.0600000   6.128906e-05  1.496315e-08
    184    186   2   0.50000     0.0600000    0.0600000   6.128906e-05  1.496315e-08
    165    168   2   0.50000    -0.1200000    0.0800000   1.015252e-03  1.866303e-06
    165    187   2   0.50000    -0.1200000    0.0600000   2.494471e-04  1.671101e-07
    165    188   2   0.50000    -0.1200000    0.0600000   2.494471e-04  1.671101e-07
    185    168   2   0.50000     0.0600000    0.0800000   2.494471e-04  1.671101e-07
    185    187   2   0.50000     0.0600000    0.0600000   6.128906e-05  1.496315e-08
    185    188   2   0.50000     0.0600000    0.0600000   6.128906e-05  1.496315e-08
    186    168   2   0.50000     0.0600000    0.0800000   2.494471e-04  1.671101e-07
    186    187   2   0.50000     0.0600000    0.0600000   6.128906e-05  1.496315e-08
    186    188   2   0.50000     0.0600000    0.0600000   6.128906e-05  1.496315e-08
    166    169   2   0.50000    -0.1200000   -0.5000000   1.304585e-03  1.920112e-06
    166    189   2   0.50000    -0.1200000    0.0600000   2.494471e-04  1.671101e-07
    166    190   2   0.50000    -0.1200000    0.0600000   2.494471e-04  1.671101e-07
    187    169   2   0.50000     0.0600000   -0.5000000   3.205360e-04  1.719281e-07
    187    189   2   0.50000     0.0600000    0.0600000   6.128906e-05  1.496315e-08
    187    190   2   0.50000     0.0600000    0.0600000   6.128906e-05  1.496315e-08
    188    169   2   0.50000     0.0600000   -0.5000000   3.205360e-04  1.719281e-07
    188    189   2   0.50000     0.0600000    0.0600000   6.128906e-05  1.496315e-08
    188    190   2   0.50000     0.0600000    0.0600000   6.128906e-05  1.496315e-08
    167    191   2   0.50000    -0.1200000    0.3000000   1.995577e-06  1.069504e-11
    167    192   2   0.50000    -0.1200000    0.5000000   1.575021e-03  3.561100e-06
    189    191   2   0.50000     0.0600000    0.3000000   4.903125e-07  9.576416e-13
    189    192   2   0.50000     0.0600000    0.5000000   3.869820e-04  3.188634e-07
    190    191   2   0.50000     0.0600000    0.3000000   4.903125e-07  9.576416e-13
    190    192   2   0.50000     0.0600000    0.5000000   3.869820e-04  3.188634e-07
    168    193   2   0.50000     0.0800000   -0.5000000   1.095425e-03  1.218041e-06
    168    194   2   0.50000     0.0800000   -0.1200000   1.015252e-03  1.866303e-06
    191    193   2   0.50000     0.3000000   -0.5000000   2.153164e-06  6.980110e-12
    191    194   2   0.50000     0.3000000   -0.1200000   1.995577e-06  1.069504e-11
    169    195   2   0.50000    -0.5000000   -0.1200000   1.304585e-03  1.920112e-06
    169    208   2   0.50000    -0.5000000    0.0600000   3.205360e-04  1.719281e-07
    169    209   2   0.50000    -0.5000000    0.0600000   3.205360e-04  1.719281e-07
    193    195   2   0.50000    -0.5000000   -0.1200000   1.095425e-03  1.218041e-06
    193    208   2   0.50000    -0.5000000    0.0600000   2.691455e-04  1.090642e-07
    193    209   2   0.50000    -0.5000000    0.0600000   2.691455e-04  1.090642e-07
    192    196   2   0.50000     0.5000000   -0.1200000   1.575021e-03  3.561100e-06
    192    210   2   0.50000     0.5000000    0.0600000   3.869820e-04  3.188634e-07
    192    211   2   0.50000     0.5000000    0.0600000   3.869820e-04  3.188634e-07
    208    196   2   0.50000     0.0600000   -0.1200000   2.494471e-04  1.671101e-07
    208    210   2   0.50000     0.0600000    0.0600000   6.128906e-05  1.496315e-08
    208    211   2   0.50000     0.0600000    0.0600000   6.128906e-05  1.496315e-08
    209    196   2   0.50000     0.0600000   -0.1200000   2.494471e-04  1.671101e-07
    209    210   2   0.50000     0.0600000    0.0600000   6.128906e-05  1.496315e-08
    209    211   2   0.50000     0.0600000    0.0600000   6.128906e-05  1.496315e-08
    194    197   2   0.50000    -0.1200000   -0.1200000   1.015252e-03  1.866303e-06
    194    212   2   0.50000    -0.1200000    0.0600000   2.494471e-04  1.671101e-07
    194    213   2   0.50000    -0.1200000    0.0600000   2.494471e-04  1.671101e-07
    210    197   2   0.50000     0.0600000   -0.1200000   2.494471e-04  1.671101e-07
    210    212   2   0.50000     0.0600000    0.0600000   6.128906e-05  1.496315e-08
    210    213   2   0.50000     0.0600000    0.0600000   6.128906e-05  1.496315e-08
    211    197   2   0.50000     0.0600000   -0.1200000   2.494471e-04  1.671101e-07
    211    212   2   0.50000     0.0600000    0.0600000   6.128906e-05  1.496315e-08
    211    213   2   0.50000     0.0600000    0.0600000   6.128906e-05  1.496315e-08
    195    198   2   0.50000    -0.1200000    0.5000000   1.575021e-03  3.561100e-06
    195    214   2   0.50000    -0.1200000    0.0600000   2.494471e-04  1.671101e-07
    195    215   2   0.50000    -0.1200000    0.0600000   2.494471e-04  1.671101e-07
    212    198   2   0.50000     0.0600000    0.5000000   3.869820e-04  3.188634e-07
    212    214   2   0.50000     0.0600000    0.0600000   6.128906e-05  1.496315e-08
    212    215   2   0.50000     0.0600000    0.0600000   6.128906e-05  1.496315e-08
    213    198   2   0.50000     0.0600000    0.5000000   3.869820e-04  3.188634e-07
    213    214   2   0.50000     0.0600000    0.0600000   6.128906e-05  1.496315e-08
    213    215   2   0.50000     0.0600000    0.0600000   6.128906e-05  1.496315e-08
    196    199   2   0.50000    -0.1200000   -0.5000000   1.095425e-03  1.218041e-06
    196    200   2   0.50000    -0.1200000   -0.5000000   1.304585e-03  1.920112e-06
    214    199   2   0.50000     0.0600000   -0.5000000   2.691455e-04  1.090642e-07
    214    200   2   0.50000     0.0600000   -0.5000000   3.205360e-04  1.719281e-07
    215    199   2   0.50000     0.0600000   -0.5000000   2.691455e-04  1.090642e-07
    215    200   2   0.50000     0.0600000   -0.5000000   3.205360e-04  1.719281e-07
    197    201   2   0.50000    -0.1200000    0.0800000   1.015252e-03  1.866303e-06
    197    216   2   0.50000    -0.1200000    0.3000000   1.995577e-06  1.069504e-11
    199    201   2   0.50000    -0.5000000    0.0800000   1.095425e-03  1.218041e-06
    199    216   2   0.50000    -0.5000000    0.3000000   2.153164e-06  6.980110e-12
    198    202   2   0.50000     0.5000000   -0.1200000   1.575021e-03  3.561100e-06
    198    217   2   0.50000     0.5000000    0.0600000   3.869820e-04  3.188634e-07
    198    218   2   0.50000     0.5000000    0.0600000   3.869820e-04  3.188634e-07
    216    202   2   0.50000     0.3000000   -0.1200000   1.995577e-06  1.069504e-11
    216    217   2   0.50000     0.3000000    0.0600000   4.903125e-07  9.576416e-13
    216    218   2   0.50000     0.3000000    0.0600000   4.903125e-07  9.576416e-13
    200    203   2   0.50000    -0.5000000   -0.1200000   1.304585e-03  1.920112e-06
    200    219   2   0.50000    -0.5000000    0.0600000   3.205360e-04  1.719281e-07
    200    220   2   0.50000    -0.5000000    0.0600000   3.205360e-04  1.719281e-07
    217    203   2   0.50000     0.0600000   -0.1200000   2.494471e-04  1.671101e-07
    217    219   2   0.50000     0.0600000    0.0600000   6.128906e-05  1.496315e-08
    217    220   2   0.50000     0.0600000    0.0600000   6.128906e-05  1.496315e-08
    218    203   2   0.50000     0.0600000   -0.1200000   2.494471e-04  1.671101e-07
    218    219   2   0.50000     0.0600000    0.0600000   6.128906e-05  1.496315e-08
    218    220   2   0.50000     0.0600000    0.0600000   6.128906e-05  1.496315e-08
    201    204   2   0.50000     0.0800000   -0.1200000   1.015252e-03  1.866303e-06
    201    221   2   0.50000     0.0800000    0.0600000   2.494471e-04  1.671101e-07
    201    222   2   0.50000     0.0800000    0.0600000   2.494471e-04  1.671101e-07
    219    204   2   0.50000     0.0600000   -0.1200000   2.494471e-04  1.671101e-07
    219    221   2   0.50000     0.0600000    0.0600000   6.128906e-05  1.496315e-08
    219    222   2   0.50000     0.0600000    0.0600000   6.128906e-05  1.496315e-08
    220    204   2   0.50000     0.0600000   -0.1200000   2.494471e-04  1.671101e-07
    220    221   2   0.50000     0.0600000    0.0600000   6.128906e-05  1.496315e-08
    220    222   2   0.50000     0.0600000    0.0600000   6.128906e-05  1.496315e-08
    202    205   2   0.50000    -0.1200000   -0.1200000   1.015252e-03  1.866303e-06
    202    223   2   0.50000    -0.1200000    0.0600000   2.494471e-04  1.671101e-07
    202    224   2   0.50000    -0.1200000    0.0600000   2.494471e-04  1.671101e-07
    221    205   2   0.50000     0.0600000   -0.1200000   2.494471e-04  1.671101e-07
    221    223   2   0.50000     0.0600000    0.0600000   6.128906e-05  1.496315e-08
    221    224   2   0.50000     0.0600000    0.0600000   6.128906e-05  1.496315e-08
    222    205   2   0.50000     0.0600000   -0.1200000   2.494471e-04  1.671101e-07
    222    223   2   0.50000     0.0600000    0.0600000   6.128906e-05  1.496315e-08
    222    224   2   0.50000     0.0600000    0.0600000   6.128906e-05  1.496315e-08
    203    206   2   0.50000    -0.1200000    0.0800000   1.015252e-03  1.866303e-06
    203    225   2   0.50000    -0.1200000    0.0600000   2.494471e-04  1.671101e-07
    203    226   2   0.50000    -0.1200000    0.0600000   2.494471e-04  1.671101e-07
    223    206   2   0.50000     0.0600000    0.0800000   2.494471e-04  1.671101e-07
    223    225   2   0.50000     0.0600000    0.0600000   6.128906e-05  1.496315e-08
    223    226   2   0.50000     0.0600000    0.0600000   6.128906e-05  1.496315e-08
    224    206   2   0.50000     0.0600000    0.0800000   2.494471e-04  1.671101e-07
    224    225   2   0.50000     0.0600000    0.0600000   6.128906e-05  1.496315e-08
    224    226   2   0.50000     0.0600000    0.0600000   6.128906e-05  1.496315e-08
    204    207   2   0.50000    -0.1200000   -0.5000000   1.304585e-03  1.920112e-06
    204    227   2   0.50000    -0.1200000    0.0600000   2.494471e-04  1.671101e-07
    204    228   2   0.50000    -0.1200000    0.0600000   2.494471e-04  1.671101e-07
    225    207   2   0.50000     0.0600000   -0.5000000   3.205360e-04  1.719281e-07
    225    227   2   0.50000     0.0600000    0.0600000   6.128906e-05  1.496315e-08
    225    228   2   0.50000     0.0600000    0.0600000   6.128906e-05  1.496315e-08
    226    207   2   0.50000     0.0600000   -0.5000000   3.205360e-04  1.719281e-07
    226    227   2   0.50000     0.0600000    0.0600000   6.128906e-05  1.496315e-08
    226    228   2   0.50000     0.0600000    0.0600000   6.128906e-05  1.496315e-08
    205    229   2   0.50000    -0.1200000    0.3000000   1.995577e-06  1.069504e-11
    205    230   2   0.50000    -0.1200000    0.5000000   1.575021e-03  3.561100e-06
    227    229   2   0.50000     0.0600000    0.3000000   4.903125e-07  9.576416e-13
    227    230   2   0.50000     0.0600000    0.5000000   3.869820e-04  3.188634e-07
    228    229   2   0.50000     0.0600000    0.3000000   4.903125e-07  9.576416e-13
    228    230   2   0.50000     0.0600000    0.5000000   3.869820e-04  3.188634e-07
    206    231   2   0.50000     0.0800000   -0.5000000   1.095425e-03  1.218041e-06
    206    232   2   0.50000     0.0800000   -0.1200000   1.015252e-03  1.866303e-06
    229    231   2   0.50000     0.3000000   -0.5000000   2.153164e-06  6.980110e-12
    229    232   2   0.50000     0.3000000   -0.1200000   1.995577e-06  1.069504e-11
    207    233   2   0.50000    -0.5000000   -0.1200000   1.304585e-03  1.920112e-06
    207    246   2   0.50000    -0.5000000    0.0600000   3.205360e-04  1.719281e-07
    207    247   2   0.50000    -0.5000000    0.0600000   3.205360e-04  1.719281e-07
    231    233   2   0.50000    -0.5000000   -0.1200000   1.095425e-03  1.218041e-06
    231    246   2   0.50000    -0.5000000    0.0600000   2.691455e-04  1.090642e-07
    231    247   2   0.50000    -0.5000000    0.0600000   2.691455e-04  1.090642e-07
    230    234   2   0.50000     0.5000000   -0.1200000   1.575021e-03  3.561100e-06
    230    248   2   0.50000     0.5000000    0.0600000   3.869820e-04  3.188634e-07
    230    249   2   0.50000     0.5000000    0.0600000   3.869820e-04  3.188634e-07
    246    234   2   0.50000     0.0600000   -0.1200000   2.494471e-04  1.671101e-07
    246    248   2   0.50000     0.0600000    0.0600000   6.128906e-05  1.496315e-08
    246    249   2   0.50000     0.0600000    0.0600000   6.128906e-05  1.496315e-08
    247    234   2   0.50000     0.0600000   -0.1200000   2.494471e-04  1.671101e-07
    247    248   2   0.50000     0.0600000    0.0600000   6.128906e-05  1.496315e-08
    247    249   2   0.50000     0.0600000    0.0600000   6.128906e-05  1.496315e-08
    232    235   2   0.50000    -0.1200000   -0.1200000   1.015252e-03  1.866303e-06
    232    250   2   0.50000    -0.1200000    0.0600000   2.494471e-04  1.671101e-07
    232    251   2   0.50000    -0.1200000    0.0600000   2.494471e-04  1.671101e-07
    248    235   2   0.50000     0.0600000   -0.1200000   2.494471e-04  1.671101e-07
    248    250   2   0.50000     0.0600000    0.0600000   6.128906e-05  1.496315e-08
    248    251   2   0.50000     0.0600000    0.0600000   6.128906e-05  1.496315e-08
    249    235   2   0.50000     0.0600000   -0.1200000   2.494471e-04  1.671101e-07
    249    250   2   0.50000     0.0600000    0.0600000   6.128906e-05  1.496315e-08
    249    251   2   0.50000     0.0600000    0.0600000   6.128906e-05  1.496315e-08
    233    236   2   0.50000    -0.1200000    0.5000000   1.575021e-03  3.561100e-06
    233    252   2   0.50000    -0.1200000    0.0600000   2.494471e-04  1.671101e-07
    233    253   2   0.50000    -0.1200000    0.0600000   2.494471e-04  1.671101e-07
    250    236   2   0.50000     0.0600000    0.5000000   3.869820e-04  3.188634e-07
    250    252   2   0.50000     0.0600000    0.0600000   6.128906e-05  1.496315e-08
    250    253   2   0.50000     0.0600000    0.0600000   6.128906e-05  1.496315e-08
    251    236   2   0.50000     0.0600000    0.5000000   3.869820e-04  3.188634e-07
    251    252   2   0.50000     0.0600000    0.0600000   6.128906e-05  1.496315e-08
    251    253   2   0.50000     0.0600000    0.0600000   6.128906e-05  1.496315e-08
    234    237   2   0.50000    -0.1200000   -0.5000000   1.095425e-03  1.218041e-06
    234    238   2   0.50000    -0.1200000   -0.5000000   1.304585e-03  1.920112e-06
    252    237   2   0.50000     0.0600000   -0.5000000   2.691455e-04  1.090642e-07
    252    238   2   0.50000     0.0600000   -0.5000000   3.205360e-04  1.719281e-07
    253    237   2   0.50000     0.0600000   -0.5000000   2.691455e-04  1.090642e-07
    253    238   2   0.50000     0.0600000   -0.5000000   3.205360e-04  1.719281e-07
    235    239   2   0.50000    -0.1200000    0.0800000   1.015252e-03  1.866303e-06
    235    254   2   0.50000    -0.1200000    0.3000000   1.995577e-06  1.069504e-11
    237    239   2   0.50000    -0.5000000    0.0800000   1.095425e-03  1.218041e-06
    237    254   2   0.50000    -0.5000000    0.3000000   2.153164e-06  6.980110e-12
    236    240   2   0.50000     0.5000000   -0.1200000   1.575021e-03  3.561100e-06
    236    255   2   0.50000     0.5000000    0.0600000   3.869820e-04  3.188634e-07
    236    256   2   0.50000     0.5000000    0.0600000   3.869820e-04  3.188634e-07
    254    240   2   0.50000     0.3000000   -0.1200000   1.995577e-06  1.069504e-11
    254    255   2   0.50000     0.3000000    0.0600000   4.903125e-07  9.576416e-13
    254    256   2   0.50000     0.3000000    0.0600000   4.903125e-07  9.576416e-13
    238    241   2   0.50000    -0.5000000   -0.1200000   1.304585e-03  1.920112e-06
    238    257   2   0.50000    -0.5000000    0.0600000   3.205360e-04  1.719281e-07
    238    258   2   0.50000    -0.5000000    0.0600000   3.205360e-04  1.719281e-07
    255    241   2   0.50000     0.0600000   -0.1200000   2.494471e-04  1.671101e-07
    255    257   2   0.50000     0.0600000    0.0600000   6.128906e-05  1.496315e-08
    255    258   2   0.50000     0.0600000    0.0600000   6.128906e-05  1.496315e-08
    256    241   2   0.50000     0.0600000   -0.1200000   2.494471e-04  1.671101e-07
    256    257   2   0.50000     0.0600000    0.0600000   6.128906e-05  1.496315e-08
    256    258   2   0.50000     0.0600000    0.0600000   6.128906e-05  1.496315e-08
    239    242   2   0.50000     0.0800000   -0.1200000   1.015252e-03  1.866303e-06
    239    259   2   0.50000     0.0800000    0.0600000   2.494471e-04  1.671101e-07
    239    260   2   0.50000     0.0800000    0.0600000   2.494471e-04  1.671101e-07
    257    242   2   0.50000     0.0600000   -0.1200000   2.494471e-04  1.671101e-07
    257    259   2   0.50000     0.0600000    0.0600000   6.128906e-05  1.496315e-08
    257    260   2   0.50000     0.0600000    0.0600000   6.128906e-05  1.496315e-08
    258    242   2   0.50000     0.0600000   -0.1200000   2.494471e-04  1.671101e-07
    258    259   2   0.50000     0.0600000    0.0600000   6.128906e-05  1.496315e-08
    258    260   2   0.50000     0.0600000    0.0600000   6.128906e-05  1.496315e-08
    240    243   2   0.50000    -0.1200000   -0.1200000   1.015252e-03  1.866303e-06
    240    261   2   0.50000    -0.1200000    0.0600000   2.494471e-04  1.671101e-07
    240    262   2   0.50000    -0.1200000    0.0600000   2.494471e-04  1.671101e-07
    259    243   2   0.50000     0.0600000   -0.1200000   2.494471e-04  1.671101e-07
    259    261   2   0.50000     0.0600000    0.0600000   6.128906e-05  1.496315e-08
    259    262   2   0.50000     0.0600000    0.0600000   6.128906e-05  1.496315e-08
    260    243   2   0.50000     0.0600000   -0.1200000   2.494471e-04  1.671101e-07
    260    261   2   0.50000     0.0600000    0.0600000   6.128906e-05  1.496315e-08
    260    262   2   0.50000     0.0600000    0.0600000   6.128906e-05  1.496315e-08
    241    244   2   0.50000    -0.1200000    0.0800000   1.015252e-03  1.866303e-06
    241    263   2   0.50000    -0.1200000    0.0600000   2.494471e-04  1.671101e-07
    241    264   2   0.50000    -0.1200000    0.0600000   2.494471e-04  1.671101e-07
    261    244   2   0.50000     0.0600000    0.0800000   2.494471e-04  1.671101e-07
    261    263   2   0.50000     0.0600000    0.0600000   6.128906e-05  1.496315e-08
    261    264   2   0.50000     0.0600000    0.0600000   6.128906e-05  1.496315e-08
    262    244   2   0.50000     0.0600000    0.0800000   2.494471e-04  1.671101e-07
    262    263   2   0.50000     0.0600000    0.0600000   6.128906e-05  1.496315e-08
    262    264   2   0.50000     0.0600000    0.0600000   6.128906e-05  1.496315e-08
    242    245   2   0.50000    -0.1200000   -0.5000000   1.304585e-03  1.920112e-06
    242    265   2   0.50000    -0.1200000    0.0600000   2.494471e-04  1.671101e-07
    242    266   2   0.50000    -0.1200000    0.0600000   2.494471e-04  1.671101e-07
    263    245   2   0.50000     0.0600000   -0.5000000   3.205360e-04  1.719281e-07
    263    265   2   0.50000     0.0600000    0.0600000   6.128906e-05  1.496315e-08
    263    266   2   0.50000     0.0600000    0.0600000   6.128906e-05  1.496315e-08
    264    245   2   0.50000     0.0600000   -0.5000000   3.205360e-04  1.719281e-07
    264    265   2   0.50000     0.0600000    0.0600000   6.128906e-05  1.496315e-08
    264    266   2   0.50000     0.0600000    0.0600000   6.128906e-05  1.496315e-08
    243    267   2   0.50000    -0.1200000    0.3000000   1.995577e-06  1.069504e-11
    243    268   2   0.50000    -0.1200000    0.5000000   1.575021e-03  3.561100e-06
    265    267   2   0.50000     0.0600000    0.3000000   4.903125e-07  9.576416e-13
    265    268   2   0.50000     0.0600000    0.5000000   3.869820e-04  3.188634e-07
    266    267   2   0.50000     0.0600000    0.3000000   4.903125e-07  9.576416e-13
    266    268   2   0.50000     0.0600000    0.5000000   3.869820e-04  3.188634e-07
    244    269   2   0.50000     0.0800000   -0.5000000   1.095425e-03  1.218041e-06
    244    270   2   0.50000     0.0800000   -0.1200000   1.015252e-03  1.866303e-06
    267    269   2   0.50000     0.3000000   -0.5000000   2.153164e-06  6.980110e-12
    267    270   2   0.50000     0.3000000   -0.1200000   1.995577e-06  1.069504e-11
    245    271   2   0.50000    -0.5000000   -0.1200000   1.304585e-03  1.920112e-06
    245    284   2   0.50000    -0.5000000    0.0600000   3.205360e-04  1.719281e-07
    245    285   2   0.50000    -0.5000000    0.0600000   3.205360e-04  1.719281e-07
    269    271   2   0.50000    -0.5000000   -0.1200000   1.095425e-03  1.218041e-06
    269    284   2   0.50000    -0.5000000    0.0600000   2.691455e-04  1.090642e-07
    269    285   2   0.50000    -0.5000000    0.0600000   2.691455e-04  1.090642e-07
    268    272   2   0.50000     0.5000000   -0.1200000   1.575021e-03  3.561100e-06
    268    286   2   0.50000     0.5000000    0.0600000   3.869820e-04  3.188634e-07
    268    287   2   0.50000     0.5000000    0.0600000   3.869820e-04  3.188634e-07
    284    272   2   0.50000     0.0600000   -0.1200000   2.494471e-04  1.671101e-07
    284    286   2   0.50000     0.0600000    0.0600000   6.128906e-05  1.496315e-08
    284    287   2   0.50000     0.0600000    0.0600000   6.128906e-05  1.496315e-08
    285    272   2   0.50000     0.0600000   -0.1200000   2.494471e-04  1.671101e-07
    285    286   2   0.50000     0.0600000    0.0600000   6.128906e-05  1.496315e-08
    285    287   2   0.50000     0.0600000    0.0600000   6.128906e-05  1.496315e-08
    270    273   2   0.50000    -0.1200000   -0.1200000   1.015252e-03  1.866303e-06
    270    288   2   0.50000    -0.1200000    0.0600000   2.494471e-04  1.671101e-07
    270    289   2   0.50000    -0.1200000    0.0600000   2.494471e-04  1.671101e-07
    286    273   2   0.50000     0.0600000   -0.1200000   2.494471e-04  1.671101e-07
    286    288   2   0.50000     0.0600000    0.0600000   6.128906e-05  1.496315e-08
    286    289   2   0.50000     0.0600000    0.0600000   6.128906e-05  1.496315e-08
    287    273   2   0.50000     0.0600000   -0.1200000   2.494471e-04  1.671101e-07
    287    288   2   0.50000     0.0600000    0.0600000   6.128906e-05  1.496315e-08
    287    289   2   0.50000     0.0600000    0.0600000   6.128906e-05  1.496315e-08
    271    274   2   0.50000    -0.1200000    0.5000000   1.575021e-03  3.561100e-06
    271    290   2   0.50000    -0.1200000    0.0600000   2.494471e-04  1.671101e-07
    271    291   2   0.50000    -0.1200000    0.0600000   2.494471e-04  1.671101e-07
    288    274   2   0.50000     0.0600000    0.5000000   3.869820e-04  3.188634e-07
    288    290   2   0.50000     0.0600000    0.0600000   6.128906e-05  1.496315e-08
    288    291   2   0.50000     0.0600000    0.0600000   6.128906e-05  1.496315e-08
    289    274   2   0.50000     0.0600000    0.5000000   3.869820e-04  3.188634e-07
    289    290   2   0.50000     0.0600000    0.0600000   6.128906e-05  1.496315e-08
    289    291   2   0.50000     0.0600000    0.0600000   6.128906e-05  1.496315e-08
    272    275   2   0.50000    -0.1200000   -0.5000000   1.095425e-03  1.218041e-06
    272    276   2   0.50000    -0.1200000   -0.5000000   1.304585e-03  1.920112e-06
    290    275   2   0.50000     0.0600000   -0.5000000   2.691455e-04  1.090642e-07
    290    276   2   0.50000     0.0600000   -0.5000000   3.205360e-04  1.719281e-07
    291    275   2   0.50000     0.0600000   -0.5000000   2.691455e-04  1.090642e-07
    291    276   2   0.50000     0.0600000   -0.5000000   3.205360e-04  1.719281e-07
    273    277   2   0.50000    -0.1200000    0.0800000   1.015252e-03  1.866303e-06
    273    292   2   0.50000    -0.1200000    0.3000000   1.995577e-06  1.069504e-11
    275    277   2   0.50000    -0.5000000    0.0800000   1.095425e-03  1.218041e-06
    275    292   2   0.50000    -0.5000000    0.3000000   2.153164e-06  6.980110e-12
    274    278   2   0.50000     0.5000000   -0.1200000   1.575021e-03  3.561100e-06
    274    293   2   0.50000     0.5000000    0.0600000   3.869820e-04  3.188634e-07
    274    294   2   0.50000     0.5000000    0.0600000   3.869820e-04  3.188634e-07
    292    278   2   0.50000     0.3000000   -0.1200000   1.995577e-06  1.069504e-11
    292    293   2   0.50000     0.3000000    0.0600000   4.903125e-07  9.576416e-13
    292    294   2   0.50000     0.3000000    0.0600000   4.903125e-07  9.576416e-13
    276    279   2   0.50000    -0.5000000   -0.1200000   1.304585e-03  1.920112e-06
    276    295   2   0.50000    -0.5000000    0.0600000   3.205360e-04  1.719281e-07
    276    296   2   0.50000    -0.5000000    0.0600000   3.205360e-04  1.719281e-07
    293    279   2   0.50000     0.0600000   -0.1200000   2.494471e-04  1.671101e-07
    293    295   2   0.50000     0.0600000    0.0600000   6.128906e-05  1.496315e-08
    293    296   2   0.50000     0.0600000    0.0600000   6.128906e-05  1.496315e-08
    294    279   2   0.50000     0.0600000   -0.1200000   2.494471e-04  1.671101e-07
    294    295   2   0.50000     0.0600000    0.0600000   6.128906e-05  1.496315e-08
    294    296   2   0.50000     0.0600000    0.0600000   6.128906e-05  1.496315e-08
    277    280   2   0.50000     0.0800000   -0.1200000   1.015252e-03  1.866303e-06
    277    297   2   0.50000     0.0800000    0.0600000   2.494471e-04  1.671101e-07
    277    298   2   0.50000     0.0800000    0.0600000   2.494471e-04  1.671101e-07
    295    280   2   0.50000     0.0600000   -0.1200000   2.494471e-04  1.671101e-07
    295    297   2   0.50000     0.0600000    0.0600000   6.128906e-05  1.496315e-08
    295    298   2   0.50000     0.0600000    0.0600000   6.128906e-05  1.496315e-08
    296    280   2   0.50000     0.0600000   -0.1200000   2.494471e-04  1.671101e-07
    296    297   2   0.50000     0.0600000    0.0600000   6.128906e-05  1.496315e-08
    296    298   2   0.50000     0.0600000    0.0600000   6.128906e-05  1.496315e-08
    278    281   2   0.50000    -0.1200000   -0.1200000   1.015252e-03  1.866303e-06
    278    299   2   0.50000    -0.1200000    0.0600000   2.494471e-04  1.671101e-07
    278    300   2   0.50000    -0.1200000    0.0600000   2.494471e-04  1.671101e-07
    297    281   2   0.50000     0.0600000   -0.1200000   2.494471e-04  1.671101e-07
    297    299   2   0.50000     0.0600000    0.0600000   6.128906e-05  1.496315e-08
    297    300   2   0.50000     0.0600000    0.0600000   6.128906e-05  1.496315e-08
    298    281   2   0.50000     0.0600000   -0.1200000   2.494471e-04  1.671101e-07
    298    299   2   0.50000     0.0600000    0.0600000   6.128906e-05  1.496315e-08
    298    300   2   0.50000     0.0600000    0.0600000   6.128906e-05  1.496315e-08
    279    282   2   0.50000    -0.1200000    0.0800000   1.015252e-03  1.866303e-06
    279    301   2   0.50000    -0.1200000    0.0600000   2.494471e-04  1.671101e-07
    279    302   2   0.50000    -0.1200000    0.0600000   2.494471e-04  1.671101e-07
    299    282   2   0.50000     0.0600000    0.0800000   2.494471e-04  1.671101e-07
    299    301   2   0.50000     0.0600000    0.0600000   6.128906e-05  1.496315e-08
    299    302   2   0.50000     0.0600000    0.0600000   6.128906e-05  1.496315e-08
    300    282   2   0.50000     0.0600000    0.0800000   2.494471e-04  1.671101e-07
    300    301   2   0.50000     0.0600000    0.0600000   6.128906e-05  1.496315e-08
    300    302   2   0.50000     0.0600000    0.0600000   6.128906e-05  1.496315e-08
    280    283   2   0.50000    -0.1200000   -0.5000000   1.304585e-03  1.920112e-06
    280    303   2   0.50000    -0.1200000    0.0600000   2.494471e-04  1.671101e-07
    280    304   2   0.50000    -0.1200000    0.0600000   2.494471e-04  1.671101e-07
    301    283   2   0.50000     0.0600000   -0.5000000   3.205360e-04  1.719281e-07
    301    303   2   0.50000     0.0600000    0.0600000   6.128906e-05  1.496315e-08
    301    304   2   0.50000     0.0600000    0.0600000   6.128906e-05  1.496315e-08
    302    283   2   0.50000     0.0600000   -0.5000000   3.205360e-04  1.719281e-07
    302    303   2   0.50000     0.0600000    0.0600000   6.128906e-05  1.496315e-08
    302    304   2   0.50000     0.0600000    0.0600000   6.128906e-05  1.496315e-08
    281    305   2   0.50000    -0.1200000    0.3000000   1.995577e-06  1.069504e-11
    281    306   2   0.50000    -0.1200000    0.5000000   1.575021e-03  3.561100e-06
    303    305   2   0.50000     0.0600000    0.3000000   4.903125e-07  9.576416e-13
    303    306   2   0.50000     0.0600000    0.5000000   3.869820e-04  3.188634e-07
    304    305   2   0.50000     0.0600000    0.3000000   4.903125e-07  9.576416e-13
    304    306   2   0.50000     0.0600000    0.5000000   3.869820e-04  3.188634e-07
    282    307   2   0.50000     0.0800000   -0.5000000   1.095425e-03  1.218041e-06
    282    308   2   0.50000     0.0800000   -0.1200000   1.015252e-03  1.866303e-06
    305    307   2   0.50000     0.3000000   -0.5000000   2.153164e-06  6.980110e-12
    305    308   2   0.50000     0.3000000   -0.1200000   1.995577e-06  1.069504e-11
    283    309   2   0.50000    -0.5000000   -0.1200000   1.304585e-03  1.920112e-06
    283    322   2   0.50000    -0.5000000    0.0600000   3.205360e-04  1.719281e-07
    283    323   2   0.50000    -0.5000000    0.0600000   3.205360e-04  1.719281e-07
    307    309   2   0.50000    -0.5000000   -0.1200000   1.095425e-03  1.218041e-06
    307    322   2   0.50000    -0.5000000    0.0600000   2.691455e-04  1.090642e-07
    307    323   2   0.50000    -0.5000000    0.0600000   2.691455e-04  1.090642e-07
    306    310   2   0.50000     0.5000000   -0.1200000   1.575021e-03  3.561100e-06
    306    324   2   0.50000     0.5000000    0.0600000   3.869820e-04  3.188634e-07
    306    325   2   0.50000     0.5000000    0.0600000   3.869820e-04  3.188634e-07
    322    310   2   0.50000     0.0600000   -0.1200000   2.494471e-04  1.671101e-07
    322    324   2   0.50000     0.0600000    0.0600000   6.128906e-05  1.496315e-08
    322    325   2   0.50000     0.0600000    0.0600000   6.128906e-05  1.496315e-08
    323    310   2   0.50000     0.0600000   -0.1200000   2.494471e-04  1.671101e-07
    323    324   2   0.50000     0.0600000    0.0600000   6.128906e-05  1.496315e-08
    323    325   2   0.50000     0.0600000    0.0600000   6.128906e-05  1.496315e-08
    308    311   2   0.50000    -0.1200000   -0.1200000   1.015252e-03  1.866303e-06
    308    326   2   0.50000    -0.1200000    0.0600000   2.494471e-04  1.671101e-07
    308    327   2   0.50000    -0.1200000    0.0600000   2.494471e-04  1.671101e-07
    324    311   2   0.50000     0.0600000   -0.1200000   2.494471e-04  1.671101e-07
    324    326   2   0.50000     0.0600000    0.0600000   6.128906e-05  1.496315e-08
    324    327   2   0.50000     0.0600000    0.0600000   6.128906e-05  1.496315e-08
    325    311   2   0.50000     0.0600000   -0.1200000   2.494471e-04  1.671101e-07
    325    326   2   0.50000     0.0600000    0.0600000   6.128906e-05  1.496315e-08
    325    327   2   0.50000     0.0600000    0.0600000   6.128906e-05  1.496315e-08
    309    312   2   0.50000    -0.1200000    0.5000000   1.575021e-03  3.561100e-06
    309    328   2   0.50000    -0.1200000    0.0600000   2.494471e-04  1.671101e-07
    309    329   2   0.50000    -0.1200000    0.0600000   2.494471e-04  1.671101e-07
    326    312   2   0.50000     0.0600000    0.5000000   3.869820e-04  3.188634e-07
    326    328   2   0.50000     0.0600000    0.0600000   6.128906e-05  1.496315e-08
    326    329   2   0.50000     0.0600000    0.0600000   6.128906e-05  1.496315e-08
    327    312   2   0.50000     0.0600000    0.5000000   3.869820e-04  3.188634e-07
    327    328   2   0.50000     0.0600000    0.0600000   6.128906e-05  1.496315e-08
    327    329   2   0.50000     0.0600000    0.0600000   6.128906e-05  1.496315e-08
    310    313   2   0.50000    -0.1200000   -0.5000000   1.095425e-03  1.218041e-06
    310    314   2   0.50000    -0.1200000   -0.5000000   1.304585e-03  1.920112e-06
    328    313   2   0.50000     0.0600000   -0.5000000   2.691455e-04  1.090642e-07
    328    314   2   0.50000     0.0600000   -0.5000000   3.205360e-04  1.719281e-07
    329    313   2   0.50000     0.0600000   -0.5000000   2.691455e-04  1.090642e-07
    329    314   2   0.50000     0.0600000   -0.5000000   3.205360e-04  1.719281e-07
    311    315   2   0.50000    -0.1200000    0.0800000   1.015252e-03  1.866303e-06
    311    330   2   0.50000    -0.1200000    0.3000000   1.995577e-06  1.069504e-11
    313    315   2   0.50000    -0.5000000    0.0800000   1.095425e-03  1.218041e-06
    313    330   2   0.50000    -0.5000000    0.3000000   2.153164e-06  6.980110e-12
    312    316   2   0.50000     0.5000000   -0.1200000   1.575021e-03  3.561100e-06
    312    331   2   0.50000     0.5000000    0.0600000   3.869820e-04  3.188634e-07
    312    332   2   0.50000     0.5000000    0.0600000   3.869820e-04  3.188634e-07
    330    316   2   0.50000     0.3000000   -0.1200000   1.995577e-06  1.069504e-11
    330    331   2   0.50000     0.3000000    0.0600000   4.903125e-07  9.576416e-13
    330    332   2   0.50000     0.3000000    0.0600000   4.903125e-07  9.576416e-13
    314    317   2   0.50000    -0.5000000   -0.1200000   1.304585e-03  1.920112e-06
    314    333   2   0.50000    -0.5000000    0.0600000   3.205360e-04  1.719281e-07
    314    334   2   0.50000    -0.5000000    0.0600000   3.205360e-04  1.719281e-07
    331    317   2   0.50000     0.0600000   -0.1200000   2.494471e-04  1.671101e-07
    331    333   2   0.50000     0.0600000    0.0600000   6.128906e-05  1.496315e-08
    331    334   2   0.50000     0.0600000    0.0600000   6.128906e-05  1.496315e-08
    332    317   2   0.50000     0.0600000   -0.1200000   2.494471e-04  1.671101e-07
    332    333   2   0.50000     0.0600000    0.0600000   6.128906e-05  1.496315e-08
    332    334   2   0.50000     0.0600000    0.0600000   6.128906e-05  1.496315e-08
    315    318   2   0.50000     0.0800000   -0.1200000   1.015252e-03  1.866303e-06
    315    335   2   0.50000     0.0800000    0.0600000   2.494471e-04  1.671101e-07
    315    336   2   0.50000     0.0800000    0.0600000   2.494471e-04  1.671101e-07
    333    318   2   0.50000     0.0600000   -0.1200000   2.494471e-04  1.671101e-07
    333    335   2   0.50000     0.0600000    0.0600000   6.128906e-05  1.496315e-08
    333    336   2   0.50000     0.0600000    0.0600000   6.128906e-05  1.496315e-08
    334    318   2   0.50000     0.0600000   -0.1200000   2.494471e-04  1.671101e-07
    334    335   2   0.50000     0.0600000    0.0600000   6.128906e-05  1.496315e-08
    334    336   2   0.50000     0.0600000    0.0600000   6.128906e-05  1.496315e-08
    316    319   2   0.50000    -0.1200000   -0.1200000   1.015252e-03  1.866303e-06
    316    337   2   0.50000    -0.1200000    0.0600000   2.494471e-04  1.671101e-07
    316    338   2   0.50000    -0.1200000    0.0600000   2.494471e-04  1.671101e-07
    335    319   2   0.50000     0.0600000   -0.1200000   2.494471e-04  1.671101e-07
    335    337   2   0.50000     0.0600000    0.0600000   6.128906e-05  1.496315e-08
    335    338   2   0.50000     0.0600000    0.0600000   6.128906e-05  1.496315e-08
    336    319   2   0.50000     0.0600000   -0.1200000   2.494471e-04  1.671101e-07
    336    337   2   0.50000     0.0600000    0.0600000   6.128906e-05  1.496315e-08
    336    338   2   0.50000     0.0600000    0.0600000   6.128906e-05  1.496315e-08
    317    320   2   0.50000    -0.1200000    0.0800000   1.015252e-03  1.866303e-06
    317    339   2   0.50000    -0.1200000    0.0600000   2.494471e-04  1.671101e-07
    317    340   2   0.50000    -0.1200000    0.0600000   2.494471e-04  1.671101e-07
    337    320   2   0.50000     0.0600000    0.0800000   2.494471e-04  1.671101e-07
    337    339   2   0.50000     0.0600000    0.0600000   6.128906e-05  1.496315e-08
    337    340   2   0.50000     0.0600000    0.0600000   6.128906e-05  1.496315e-08
    338    320   2   0.50000     0.0600000    0.0800000   2.494471e-04  1.671101e-07
    338    339   2   0.50000     0.0600000    0.0600000   6.128906e-05  1.496315e-08
    338    340   2   0.50000     0.0600000    0.0600000   6.128906e-05  1.496315e-08
    318    321   2   0.50000    -0.1200000   -0.5000000   1.304585e-03  1.920112e-06
    318    341   2   0.50000    -0.1200000    0.0600000   2.494471e-04  1.671101e-07
    318    342   2   0.50000    -0.1200000    0.0600000   2.494471e-04  1.671101e-07
    339    321   2   0.50000     0.0600000   -0.5000000   3.205360e-04  1.719281e-07
    339    341   2   0.50000     0.0600000    0.0600000   6.128906e-05  1.496315e-08
    339    342   2   0.50000     0.0600000    0.0600000   6.128906e-05  1.496315e-08
    340    321   2   0.50000     0.0600000   -0.5000000   3.205360e-04  1.719281e-07
    340    341   2   0.50000     0.0600000    0.0600000   6.128906e-05  1.496315e-08
    340    342   2   0.50000     0.0600000    0.0600000   6.128906e-05  1.496315e-08
    319    343   2   0.50000    -0.1200000    0.3000000   1.995577e-06  1.069504e-11
    319    344   2   0.50000    -0.1200000    0.5000000   1.575021e-03  3.561100e-06
    341    343   2   0.50000     0.0600000    0.3000000   4.903125e-07  9.576416e-13
    341    344   2   0.50000     0.0600000    0.5000000   3.869820e-04  3.188634e-07
    342    343   2   0.50000     0.0600000    0.3000000   4.903125e-07  9.576416e-13
    342    344   2   0.50000     0.0600000    0.5000000   3.869820e-04  3.188634e-07
    320    345   2   0.50000     0.0800000   -0.5000000   1.095425e-03  1.218041e-06
    320    346   2   0.50000     0.0800000   -0.1200000   1.015252e-03  1.866303e-06
    343    345   2   0.50000     0.3000000   -0.5000000   2.153164e-06  6.980110e-12
    343    346   2   0.50000     0.3000000   -0.1200000   1.995577e-06  1.069504e-11
    321    347   2   0.50000    -0.5000000   -0.1200000   1.304585e-03  1.920112e-06
    321    360   2   0.50000    -0.5000000    0.0600000   3.205360e-04  1.719281e-07
    321    361   2   0.50000    -0.5000000    0.0600000   3.205360e-04  1.719281e-07
    345    347   2   0.50000    -0.5000000   -0.1200000   1.095425e-03  1.218041e-06
    345    360   2   0.50000    -0.5000000    0.0600000   2.691455e-04  1.090642e-07
    345    361   2   0.50000    -0.5000000    0.0600000   2.691455e-04  1.090642e-07
    344    348   2   0.50000     0.5000000   -0.1200000   1.575021e-03  3.561100e-06
    344    362   2   0.50000     0.5000000    0.0600000   3.869820e-04  3.188634e-07
    344    363   2   0.50000     0.5000000    0.0600000   3.869820e-04  3.188634e-07
    360    348   2   0.50000     0.0600000   -0.1200000   2.494471e-04  1.671101e-07
    360    362   2   0.50000     0.0600000    0.0600000   6.128906e-05  1.496315e-08
    360    363   2   0.50000     0.0600000    0.0600000   6.128906e-05  1.496315e-08
    361    348   2   0.50000     0.0600000   -0.1200000   2.494471e-04  1.671101e-07
    361    362   2   0.50000     0.0600000    0.0600000   6.128906e-05  1.496315e-08
    361    363   2   0.50000     0.0600000    0.0600000   6.128906e-05  1.496315e-08
    346    349   2   0.50000    -0.1200000   -0.1200000   1.015252e-03  1.866303e-06
    346    364   2   0.50000    -0.1200000    0.0600000   2.494471e-04  1.671101e-07
    346    365   2   0.50000    -0.1200000    0.0600000   2.494471e-04  1.671101e-07
    362    349   2   0.50000     0.0600000   -0.1200000   2.494471e-04  1.671101e-07
    362    364   2   0.50000     0.0600000    0.0600000   6.128906e-05  1.496315e-08
    362    365   2   0.50000     0.0600000    0.0600000   6.128906e-05  1.496315e-08
    363    349   2   0.50000     0.0600000   -0.1200000   2.494471e-04  1.671101e-07
    363    364   2   0.50000     0.0600000    0.0600000   6.128906e-05  1.496315e-08
    363    365   2   0.50000     0.0600000    0.0600000   6.128906e-05  1.496315e-08
    347    350   2   0.50000    -0.1200000    0.5000000   1.575021e-03  3.561100e-06
    347    366   2   0.50000    -0.1200000    0.0600000   2.494471e-04  1.671101e-07
    347    367   2   0.50000    -0.1200000    0.0600000   2.494471e-04  1.671101e-07
    364    350   2   0.50000     0.0600000    0.5000000   3.869820e-04  3.188634e-07
    364    366   2   0.50000     0.0600000    0.0600000   6.128906e-05  1.496315e-08
    364    367   2   0.50000     0.0600000    0.0600000   6.128906e-05  1.496315e-08
    365    350   2   0.50000     0.0600000    0.5000000   3.869820e-04  3.188634e-07
    365    366   2   0.50000     0.0600000    0.0600000   6.128906e-05  1.496315e-08
    365    367   2   0.50000     0.0600000    0.0600000   6.128906e-05  1.496315e-08
    348    351   2   0.50000    -0.1200000   -0.5000000   1.095425e-03  1.218041e-06
    348    352   2   0.50000    -0.1200000   -0.5000000   1.304585e-03  1.920112e-06
    366    351   2   0.50000     0.0600000   -0.5000000   2.691455e-04  1.090642e-07
    366    352   2   0.50000     0.0600000   -0.5000000   3.205360e-04  1.719281e-07
    367    351   2   0.50000     0.0600000   -0.5000000   2.691455e-04  1.090642e-07
    367    352   2   0.50000     0.0600000   -0.5000000   3.205360e-04  1.719281e-07
    349    353   2   0.50000    -0.1200000    0.0800000   1.015252e-03  1.866303e-06
    349    368   2   0.50000    -0.1200000    0.3000000   1.995577e-06  1.069504e-11
    351    353   2   0.50000    -0.5000000    0.0800000   1.095425e-03  1.218041e-06
    351    368   2   0.50000    -0.5000000    0.3000000   2.153164e-06  6.980110e-12
    350    354   2   0.50000     0.5000000   -0.1200000   1.575021e-03  3.561100e-06
    350    369   2   0.50000     0.5000000    0.0600000   3.869820e-04  3.188634e-07
    350    370   2   0.50000     0.5000000    0.0600000   3.869820e-04  3.188634e-07
    368    354   2   0.50000     0.3000000   -0.1200000   1.995577e-06  1.069504e-11
    368    369   2   0.50000     0.3000000    0.0600000   4.903125e-07  9.576416e-13
    368    370   2   0.50000     0.3000000    0.0600000   4.903125e-07  9.576416e-13
    352    355   2   0.50000    -0.5000000   -0.1200000   1.304585e-03  1.920112e-06
    352    371   2   0.50000    -0.5000000    0.0600000   3.205360e-04  1.719281e-07
    352    372   2   0.50000    -0.5000000    0.0600000   3.205360e-04  1.719281e-07
    369    355   2   0.50000     0.0600000   -0.1200000   2.494471e-04  1.671101e-07
    369    371   2   0.50000     0.0600000    0.0600000   6.128906e-05  1.496315e-08
    369    372   2   0.50000     0.0600000    0.0600000   6.128906e-05  1.496315e-08
    370    355   2   0.50000     0.0600000   -0.1200000   2.494471e-04  1.671101e-07
    370    371   2   0.50000     0.0600000    0.0600000   6.128906e-05  1.496315e-08
    370    372   2   0.50000     0.0600000    0.0600000   6.128906e-05  1.496315e-08
    353    356   2   0.50000     0.0800000   -0.1200000   1.015252e-03  1.866303e-06
    353    373   2   0.50000     0.0800000    0.0600000   2.494471e-04  1.671101e-07
    353    374   2   0.50000     0.0800000    0.0600000   2.494471e-04  1.671101e-07
    371    356   2   0.50000     0.0600000   -0.1200000   2.494471e-04  1.671101e-07
    371    373   2   0.50000     0.0600000    0.0600000   6.128906e-05  1.496315e-08
    371    374   2   0.50000     0.0600000    0.0600000   6.128906e-05  1.496315e-08
    372    356   2   0.50000     0.0600000   -0.1200000   2.494471e-04  1.671101e-07
    372    373   2   0.50000     0.0600000    0.0600000   6.128906e-05  1.496315e-08
    372    374   2   0.50000     0.0600000    0.0600000   6.128906e-05  1.496315e-08
    354    357   2   0.50000    -0.1200000   -0.1200000   1.015252e-03  1.866303e-06
    354    375   2   0.50000    -0.1200000    0.0600000   2.494471e-04  1.671101e-07
    354    376   2   0.50000    -0.1200000    0.0600000   2.494471e-04  1.671101e-07
    373    357   2   0.50000     0.0600000   -0.1200000   2.494471e-04  1.671101e-07
    373    375   2   0.50000     0.0600000    0.0600000   6.128906e-05  1.496315e-08
    373    376   2   0.50000     0.0600000    0.0600000   6.128906e-05  1.496315e-08
    374    357   2   0.50000     0.0600000   -0.1200000   2.494471e-04  1.671101e-07
    374    375   2   0.50000     0.0600000    0.0600000   6.128906e-05  1.496315e-08
    374    376   2   0.50000     0.0600000    0.0600000   6.128906e-05  1.496315e-08
    355    358   2   0.50000    -0.1200000    0.0800000   1.015252e-03  1.866303e-06
    355    377   2   0.50000    -0.1200000    0.0600000   2.494471e-04  1.671101e-07
    355    378   2   0.50000    -0.1200000    0.0600000   2.494471e-04  1.671101e-07
    375    358   2   0.50000     0.0600000    0.0800000   2.494471e-04  1.671101e-07
    375    377   2   0.50000     0.0600000    0.0600000   6.128906e-05  1.496315e-08
    375    378   2   0.50000     0.0600000    0.0600000   6.128906e-05  1.496315e-08
    376    358   2   0.50000     0.0600000    0.0800000   2.494471e-04  1.671101e-07
    376    377   2   0.50000     0.0600000    0.0600000   6.128906e-05  1.496315e-08
    376    378   2   0.50000     0.0600000    0.0600000   6.128906e-05  1.496315e-08
    356    359   2   0.50000    -0.1200000   -0.5000000   1.304585e-03  1.920112e-06
    356    379   2   0.50000    -0.1200000    0.0600000   2.494471e-04  1.671101e-07
    356    380   2   0.50000    -0.1200000    0.0600000   2.494471e-04  1.671101e-07
    377    359   2   0.50000     0.0600000   -0.5000000   3.205360e-04  1.719281e-07
    377    379   2   0.50000     0.0600000    0.0600000   6.128906e-05  1.496315e-08
    377    380   2   0.50000     0.0600000    0.0600000   6.128906e-05  1.496315e-08
    378    359   2   0.50000     0.0600000   -0.5000000   3.205360e-04  1.719281e-07
    378    379   2   0.50000     0.0600000    0.0600000   6.128906e-05  1.496315e-08
    378    380   2   0.50000     0.0600000    0.0600000   6.128906e-05  1.496315e-08
    357    381   2   0.50000    -0.1200000    0.3000000   1.995577e-06  1.069504e-11
    357    382   2   0.50000    -0.1200000    0.5000000   1.575021e-03  3.561100e-06
    379    381   2   0.50000     0.0600000    0.3000000   4.903125e-07  9.576416e-13
    379    382   2   0.50000     0.0600000    0.5000000   3.869820e-04  3.188634e-07
    380    381   2   0.50000     0.0600000    0.3000000   4.903125e-07  9.576416e-13
    380    382   2   0.50000     0.0600000    0.5000000   3.869820e-04  3.188634e-07
    358    383   2   0.50000     0.0800000   -0.5000000   1.095425e-03  1.218041e-06
    358    384   2   0.50000     0.0800000   -0.1200000   1.015252e-03  1.866303e-06
    381    383   2   0.50000     0.3000000   -0.5000000   2.153164e-06  6.980110e-12
    381    384   2   0.50000     0.3000000   -0.1200000   1.995577e-06  1.069504e-11
    359    385   2   0.50000    -0.5000000   -0.1200000   1.304585e-03  1.920112e-06
    359    398   2   0.50000    -0.5000000    0.0600000   3.205360e-04  1.719281e-07
    359    399   2   0.50000    -0.5000000    0.0600000   3.205360e-04  1.719281e-07
    383    385   2   0.50000    -0.5000000   -0.1200000   1.095425e-03  1.218041e-06
    383    398   2   0.50000    -0.5000000    0.0600000   2.691455e-04  1.090642e-07
    383    399   2   0.50000    -0.5000000    0.0600000   2.691455e-04  1.090642e-07
    382    386   2   0.50000     0.5000000   -0.1200000   1.575021e-03  3.561100e-06
    382    400   2   0.50000     0.5000000    0.0600000   3.869820e-04  3.188634e-07
    382    401   2   0.50000     0.5000000    0.0600000   3.869820e-04  3.188634e-07
    398    386   2   0.50000     0.0600000   -0.1200000   2.494471e-04  1.671101e-07
    398    400   2   0.50000     0.0600000    0.0600000   6.128906e-05  1.496315e-08
    398    401   2   0.50000     0.0600000    0.0600000   6.128906e-05  1.496315e-08
    399    386   2   0.50000     0.0600000   -0.1200000   2.494471e-04  1.671101e-07
    399    400   2   0.50000     0.0600000    0.0600000   6.128906e-05  1.496315e-08
    399    401   2   0.50000     0.0600000    0.0600000   6.128906e-05  1.496315e-08
    384    387   2   0.50000    -0.1200000   -0.1200000   1.015252e-03  1.866303e-06
    384    402   2   0.50000    -0.1200000    0.0600000   2.494471e-04  1.671101e-07
    384    403   2   0.50000    -0.1200000    0.0600000   2.494471e-04  1.671101e-07
    400    387   2   0.50000     0.0600000   -0.1200000   2.494471e-04  1.671101e-07
    400    402   2   0.50000     0.0600000    0.0600000   6.128906e-05  1.496315e-08
    400    403   2   0.50000     0.0600000    0.0600000   6.128906e-05  1.496315e-08
    401    387   2   0.50000     0.0600000   -0.1200000   2.494471e-04  1.671101e-07
    401    402   2   0.50000     0.0600000    0.0600000   6.128906e-05  1.496315e-08
    401    403   2   0.50000     0.0600000    0.0600000   6.128906e-05  1.496315e-08
    385    388   2   0.50000    -0.1200000    0.5000000   1.575021e-03  3.561100e-06
    385    404   2   0.50000    -0.1200000    0.0600000   2.494471e-04  1.671101e-07
    385    405   2   0.50000    -0.1200000    0.0600000   2.494471e-04  1.671101e-07
    402    388   2   0.50000     0.0600000    0.5000000   3.869820e-04  3.188634e-07
    402    404   2   0.50000     0.0600000    0.0600000   6.128906e-05  1.496315e-08
    402    405   2   0.50000     0.0600000    0.0600000   6.128906e-05  1.496315e-08
    403    388   2   0.50000     0.0600000    0.5000000   3.869820e-04  3.188634e-07
    403    404   2   0.50000     0.0600000    0.0600000   6.128906e-05  1.496315e-08
    403    405   2   0.50000     0.0600000    0.0600000   6.128906e-05  1.496315e-08
    386    389   2   0.50000    -0.1200000   -0.5000000   1.095425e-03  1.218041e-06
    386    390   2   0.50000    -0.1200000   -0.5000000   1.304585e-03  1.920112e-06
    404    389   2   0.50000     0.0600000   -0.5000000   2.691455e-04  1.090642e-07
    404    390   2   0.50000     0.0600000   -0.5000000   3.205360e-04  1.719281e-07
    405    389   2   0.50000     0.0600000   -0.5000000   2.691455e-04  1.090642e-07
    405    390   2   0.50000     0.0600000   -0.5000000   3.205360e-04  1.719281e-07
    387    391   2   0.50000    -0.1200000    0.0800000   1.015252e-03  1.866303e-06
    387    406   2   0.50000    -0.1200000    0.3000000   1.995577e-06  1.069504e-11
    389    391   2   0.50000    -0.5000000    0.0800000   1.095425e-03  1.218041e-06
    389    406   2   0.50000    -0.5000000    0.3000000   2.153164e-06  6.980110e-12
    388    392   2   0.50000     0.5000000   -0.1200000   1.575021e-03  3.561100e-06
    388    407   2   0.50000     0.5000000    0.0600000   3.869820e-04  3.188634e-07
    388    408   2   0.50000     0.5000000    0.0600000   3.869820e-04  3.188634e-07
    406    392   2   0.50000     0.3000000   -0.1200000   1.995577e-06  1.069504e-11
    406    407   2   0.50000     0.3000000    0.0600000   4.903125e-07  9.576416e-13
    406    408   2   0.50000     0.3000000    0.0600000   4.903125e-07  9.576416e-13
    390    393   2   0.50000    -0.5000000   -0.1200000   1.304585e-03  1.920112e-06
    390    409   2   0.50000    -0.5000000    0.0600000   3.205360e-04  1.719281e-07
    390    410   2   0.50000    -0.5000000    0.0600000   3.205360e-04  1.719281e-07
    407    393   2   0.50000     0.0600000   -0.1200000   2.494471e-04  1.671101e-07
    407    409   2   0.50000     0.0600000    0.0600000   6.128906e-05  1.496315e-08
    407    410   2   0.50000     0.0600000    0.0600000   6.128906e-05  1.496315e-08
    408    393   2   0.50000     0.0600000   -0.1200000   2.494471e-04  1.671101e-07
    408    409   2   0.50000     0.0600000    0.0600000   6.128906e-05  1.496315e-08
    408    410   2   0.50000     0.0600000    0.0600000   6.128906e-05  1.496315e-08
    391    394   2   0.50000     0.0800000   -0.1200000   1.015252e-03  1.866303e-06
    391    411   2   0.50000     0.0800000    0.0600000   2.494471e-04  1.671101e-07
    391    412   2   0.50000     0.0800000    0.0600000   2.494471e-04  1.671101e-07
    409    394   2   0.50000     0.0600000   -0.1200000   2.494471e-04  1.671101e-07
    409    411   2   0.50000     0.0600000    0.0600000   6.128906e-05  1.496315e-08
    409    412   2   0.50000     0.0600000    0.0600000   6.128906e-05  1.496315e-08
    410    394   2   0.50000     0.0600000   -0.1200000   2.494471e-04  1.671101e-07
    410    411   2   0.50000     0.0600000    0.0600000   6.128906e-05  1.496315e-08
    410    412   2   0.50000     0.0600000    0.0600000   6.128906e-05  1.496315e-08
    392    395   2   0.50000    -0.1200000   -0.1200000   1.015252e-03  1.866303e-06
    392    413   2   0.50000    -0.1200000    0.0600000   2.494471e-04  1.671101e-07
    392    414   2   0.50000    -0.1200000    0.0600000   2.494471e-04  1.671101e-07
    411    395   2   0.50000     0.0600000   -0.1200000   2.494471e-04  1.671101e-07
    411    413   2   0.50000     0.0600000    0.0600000   6.128906e-05  1.496315e-08
    411    414   2   0.50000     0.0600000    0.0600000   6.128906e-05  1.496315e-08
    412    395   2   0.50000     0.0600000   -0.1200000   2.494471e-04  1.671101e-07
    412    413   2   0.50000     0.0600000    0.0600000   6.128906e-05  1.496315e-08
    412    414   2   0.50000     0.0600000    0.0600000   6.128906e-05  1.496315e-08
    393    396   2   0.50000    -0.1200000    0.0800000   1.015252e-03  1.866303e-06
    393    415   2   0.50000    -0.1200000    0.0600000   2.494471e-04  1.671101e-07
    393    416   2   0.50000    -0.1200000    0.0600000   2.494471e-04  1.671101e-07
    413    396   2   0.50000     0.0600000    0.0800000   2.494471e-04  1.671101e-07
    413    415   2   0.50000     0.0600000    0.0600000   6.128906e-05  1.496315e-08
    413    416   2   0.50000     0.0600000    0.0600000   6.128906e-05  1.496315e-08
    414    396   2   0.50000     0.0600000    0.0800000   2.494471e-04  1.671101e-07
    414    415   2   0.50000     0.0600000    0.0600000   6.128906e-05  1.496315e-08
    414    416   2   0.50000     0.0600000    0.0600000   6.128906e-05  1.496315e-08
    394    397   2   0.50000    -0.1200000   -0.5000000   1.304585e-03  1.920112e-06
    394    417   2   0.50000    -0.1200000    0.0600000   2.494471e-04  1.671101e-07
    394    418   2   0.50000    -0.1200000    0.0600000   2.494471e-04  1.671101e-07
    415    397   2   0.50000     0.0600000   -0.5000000   3.205360e-04  1.719281e-07
    415    417   2   0.50000     0.0600000    0.0600000   6.128906e-05  1.496315e-08
    415    418   2   0.50000     0.0600000    0.0600000   6.128906e-05  1.496315e-08
    416    397   2   0.50000     0.0600000   -0.5000000   3.205360e-04  1.719281e-07
    416    417   2   0.50000     0.0600000    0.0600000   6.128906e-05  1.496315e-08
    416    418   2   0.50000     0.0600000    0.0600000   6.128906e-05  1.496315e-08
    395    419   2   0.50000    -0.1200000    0.3000000   1.995577e-06  1.069504e-11
    395    420   2   0.50000    -0.1200000    0.5000000   1.575021e-03  3.561100e-06
    417    419   2   0.50000     0.0600000    0.3000000   4.903125e-07  9.576416e-13
    417    420   2   0.50000     0.0600000    0.5000000   3.869820e-04  3.188634e-07
    418    419   2   0.50000     0.0600000    0.3000000   4.903125e-07  9.576416e-13
    418    420   2   0.50000     0.0600000    0.5000000   3.869820e-04  3.188634e-07
    396    421   2   0.50000     0.0800000   -0.5000000   1.095425e-03  1.218041e-06
    396    422   2   0.50000     0.0800000   -0.1200000   1.015252e-03  1.866303e-06
    419    421   2   0.50000     0.3000000   -0.5000000   2.153164e-06  6.980110e-12
    419    422   2   0.50000     0.3000000   -0.1200000   1.995577e-06  1.069504e-11
    397    423   2   0.50000    -0.5000000   -0.1200000   1.304585e-03  1.920112e-06
    397    436   2   0.50000    -0.5000000    0.0600000   3.205360e-04  1.719281e-07
    397    437   2   0.50000    -0.5000000    0.0600000   3.205360e-04  1.719281e-07
    421    423   2   0.50000    -0.5000000   -0.1200000   1.095425e-03  1.218041e-06
    421    436   2   0.50000    -0.5000000    0.0600000   2.691455e-04  1.090642e-07
    421    437   2   0.50000    -0.5000000    0.0600000   2.691455e-04  1.090642e-07
    420    424   2   0.50000     0.5000000   -0.1200000   1.575021e-03  3.561100e-06
    420    438   2   0.50000     0.5000000    0.0600000   3.869820e-04  3.188634e-07
    420    439   2   0.50000     0.5000000    0.0600000   3.869820e-04  3.188634e-07
    436    424   2   0.50000     0.0600000   -0.1200000   2.494471e-04  1.671101e-07
    436    438   2   0.50000     0.0600000    0.0600000   6.128906e-05  1.496315e-08
    436    439   2   0.50000     0.0600000    0.0600000   6.128906e-05  1.496315e-08
    437    424   2   0.50000     0.0600000   -0.1200000   2.494471e-04  1.671101e-07
    437    438   2   0.50000     0.0600000    0.0600000   6.128906e-05  1.496315e-08
    437    439   2   0.50000     0.0600000    0.0600000   6.128906e-05  1.496315e-08
    422    425   2   0.50000    -0.1200000   -0.1200000   1.015252e-03  1.866303e-06
    422    440   2   0.50000    -0.1200000    0.0600000   2.494471e-04  1.671101e-07
    422    441   2   0.50000    -0.1200000    0.0600000   2.494471e-04  1.671101e-07
    438    425   2   0.50000     0.0600000   -0.1200000   2.494471e-04  1.671101e-07
    438    440   2   0.50000     0.0600000    0.0600000   6.128906e-05  1.496315e-08
    438    441   2   0.50000     0.0600000    0.0600000   6.128906e-05  1.496315e-08
    439    425   2   0.50000     0.0600000   -0.1200000   2.494471e-04  1.671101e-07
    439    440   2   0.50000     0.0600000    0.0600000   6.128906e-05  1.496315e-08
    439    441   2   0.50000     0.0600000    0.0600000   6.128906e-05  1.496315e-08
    423    426   2   0.50000    -0.1200000    0.5000000   1.575021e-03  3.561100e-06
    423    442   2   0.50000    -0.1200000    0.0600000   2.494471e-04  1.671101e-07
    423    443   2   0.50000    -0.1200000    0.0600000   2.494471e-04  1.671101e-07
    440    426   2   0.50000     0.0600000    0.5000000   3.869820e-04  3.188634e-07
    440    442   2   0.50000     0.0600000    0.0600000   6.128906e-05  1.496315e-08
    440    443   2   0.50000     0.0600000    0.0600000   6.128906e-05  1.496315e-08
    441    426   2   0.50000     0.0600000    0.5000000   3.869820e-04  3.188634e-07
    441    442   2   0.50000     0.0600000    0.0600000   6.128906e-05  1.496315e-08
    441    443   2   0.50000     0.0600000    0.0600000   6.128906e-05  1.496315e-08
    424    427   2   0.50000    -0.1200000   -0.5000000   1.095425e-03  1.218041e-06
    424    428   2   0.50000    -0.1200000   -0.5000000   1.304585e-03  1.920112e-06
    442    427   2   0.50000     0.0600000   -0.5000000   2.691455e-04  1.090642e-07
    442    428   2   0.50000     0.0600000   -0.5000000   3.205360e-04  1.719281e-07
    443    427   2   0.50000     0.0600000   -0.5000000   2.691455e-04  1.090642e-07
    443    428   2   0.50000     0.0600000   -0.5000000   3.205360e-04  1.719281e-07
    425    429   2   0.50000    -0.1200000    0.0800000   1.015252e-03  1.866303e-06
    425    444   2   0.50000    -0.1200000    0.3000000   1.995577e-06  1.069504e-11
    427    429   2   0.50000    -0.5000000    0.0800000   1.095425e-03  1.218041e-06
    427    444   2   0.50000    -0.5000000    0.3000000   2.153164e-06  6.980110e-12
    426    430   2   0.50000     0.5000000   -0.1200000   1.575021e-03  3.561100e-06
    426    445   2   0.50000     0.5000000    0.0600000   3.869820e-04  3.188634e-07
    426    446   2   0.50000     0.5000000    0.0600000   3.869820e-04  3.188634e-07
    444    430   2   0.50000     0.3000000   -0.1200000   1.995577e-06  1.069504e-11
    444    445   2   0.50000     0.3000000    0.0600000   4.903125e-07  9.576416e-13
    444    446   2   0.50000     0.3000000    0.0600000   4.903125e-07  9.576416e-13
    428    431   2   0.50000    -0.5000000   -0.1200000   1.304585e-03  1.920112e-06
    428    447   2   0.50000    -0.5000000    0.0600000   3.205360e-04  1.719281e-07
    428    448   2   0.50000    -0.5000000    0.0600000   3.205360e-04  1.719281e-07
    445    431   2   0.50000     0.0600000   -0.1200000   2.494471e-04  1.671101e-07
    445    447   2   0.50000     0.0600000    0.0600000   6.128906e-05  1.496315e-08
    445    448   2   0.50000     0.0600000    0.0600000   6.128906e-05  1.496315e-08
    446    431   2   0.50000     0.0600000   -0.1200000   2.494471e-04  1.671101e-07
    446    447   2   0.50000     0.0600000    0.0600000   6.128906e-05  1.496315e-08
    446    448   2   0.50000     0.0600000    0.0600000   6.128906e-05  1.496315e-08
    429    432   2   0.50000     0.0800000   -0.1200000   1.015252e-03  1.866303e-06
    429    449   2   0.50000     0.0800000    0.0600000   2.494471e-04  1.671101e-07
    429    450   2   0.50000     0.0800000    0.0600000   2.494471e-04  1.671101e-07
    447    432   2   0.50000     0.0600000   -0.1200000   2.494471e-04  1.671101e-07
    447    449   2   0.50000     0.0600000    0.0600000   6.128906e-05  1.496315e-08
    447    450   2   0.50000     0.0600000    0.0600000   6.128906e-05  1.496315e-08
    448    432   2   0.50000     0.0600000   -0.1200000   2.494471e-04  1.671101e-07
    448    449   2   0.50000     0.0600000    0.0600000   6.128906e-05  1.496315e-08
    448    450   2   0.50000     0.0600000    0.0600000   6.128906e-05  1.496315e-08
    430    433   2   0.50000    -0.1200000   -0.1200000   1.015252e-03  1.866303e-06
    430    451   2   0.50000    -0.1200000    0.0600000   2.494471e-04  1.671101e-07
    430    452   2   0.50000    -0.1200000    0.0600000   2.494471e-04  1.671101e-07
    449    433   2   0.50000     0.0600000   -0.1200000   2.494471e-04  1.671101e-07
    449    451   2   0.50000     0.0600000    0.0600000   6.128906e-05  1.496315e-08
    449    452   2   0.50000     0.0600000    0.0600000   6.128906e-05  1.496315e-08
    450    433   2   0.50000     0.0600000   -0.1200000   2.494471e-04  1.671101e-07
    450    451   2   0.50000     0.0600000    0.0600000   6.128906e-05  1.496315e-08
    450    452   2   0.50000     0.0600000    0.0600000   6.128906e-05  1.496315e-08
    431    434   2   0.50000    -0.1200000    0.0800000   1.015252e-03  1.866303e-06
    431    453   2   0.50000    -0.1200000    0.0600000   2.494471e-04  1.671101e-07
    431    454   2   0.50000    -0.1200000    0.0600000   2.494471e-04  1.671101e-07
    451    434   2   0.50000     0.0600000    0.0800000   2.494471e-04  1.671101e-07
    451    453   2   0.50000     0.0600000    0.0600000   6.128906e-05  1.496315e-08
    451    454   2   0.50000     0.0600000    0.0600000   6.128906e-05  1.496315e-08
    452    434   2   0.50000     0.0600000    0.0800000   2.494471e-04  1.671101e-07
    452    453   2   0.50000     0.0600000    0.0600000   6.128906e-05  1.496315e-08
    452    454   2   0.50000     0.0600000    0.0600000   6.128906e-05  1.496315e-08
    432    435   2   0.50000    -0.1200000   -0.5000000   1.304585e-03  1.920112e-06
    432    455   2   0.50000    -0.1200000    0.0600000   2.494471e-04  1.671101e-07
    432    456   2   0.50000    -0.1200000    0.0600000   2.494471e-04  1.671101e-07
    453    435   2   0.50000     0.0600000   -0.5000000   3.205360e-04  1.719281e-07
    453    455   2   0.50000     0.0600000    0.0600000   6.128906e-05  1.496315e-08
    453    456   2   0.50000     0.0600000    0.0600000   6.128906e-05  1.496315e-08
    454    435   2   0.50000     0.0600000   -0.5000000   3.205360e-04  1.719281e-07
    454    455   2   0.50000     0.0600000    0.0600000   6.128906e-05  1.496315e-08
    454    456   2   0.50000     0.0600000    0.0600000   6.128906e-05  1.496315e-08
    433    457   2   0.50000    -0.1200000    0.3000000   1.995577e-06  1.069504e-11
    433    458   2   0.50000    -0.1200000    0.5000000   1.575021e-03  3.561100e-06
    455    457   2   0.50000     0.0600000    0.3000000   4.903125e-07  9.576416e-13
    455    458   2   0.50000     0.0600000    0.5000000   3.869820e-04  3.188634e-07
    456    457   2   0.50000     0.0600000    0.3000000   4.903125e-07  9.576416e-13
    456    458   2   0.50000     0.0600000    0.5000000   3.869820e-04  3.188634e-07
    434    459   2   0.50000     0.0800000   -0.5000000   1.095425e-03  1.218041e-06
    434    460   2   0.50000     0.0800000   -0.1200000   1.015252e-03  1.866303e-06
    457    459   2   0.50000     0.3000000   -0.5000000   2.153164e-06  6.980110e-12
    457    460   2   0.50000     0.3000000   -0.1200000   1.995577e-06  1.069504e-11
    435    461   2   0.50000    -0.5000000   -0.1200000   1.304585e-03  1.920112e-06
    435    474   2   0.50000    -0.5000000    0.0600000   3.205360e-04  1.719281e-07
    435    475   2   0.50000    -0.5000000    0.0600000   3.205360e-04  1.719281e-07
    459    461   2   0.50000    -0.5000000   -0.1200000   1.095425e-03  1.218041e-06
    459    474   2   0.50000    -0.5000000    0.0600000   2.691455e-04  1.090642e-07
    459    475   2   0.50000    -0.5000000    0.0600000   2.691455e-04  1.090642e-07
    458    462   2   0.50000     0.5000000   -0.1200000   1.575021e-03  3.561100e-06
    458    476   2   0.50000     0.5000000    0.0600000   3.869820e-04  3.188634e-07
    458    477   2   0.50000     0.5000000    0.0600000   3.869820e-04  3.188634e-07
    474    462   2   0.50000     0.0600000   -0.1200000   2.494471e-04  1.671101e-07
    474    476   2   0.50000     0.0600000    0.0600000   6.128906e-05  1.496315e-08
    474    477   2   0.50000     0.0600000    0.0600000   6.128906e-05  1.496315e-08
    475    462   2   0.50000     0.0600000   -0.1200000   2.494471e-04  1.671101e-07
    475    476   2   0.50000     0.0600000    0.0600000   6.128906e-05  1.496315e-08
    475    477   2   0.50000     0.0600000    0.0600000   6.128906e-05  1.496315e-08
    460    463   2   0.50000    -0.1200000   -0.1200000   1.015252e-03  1.866303e-06
    460    478   2   0.50000    -0.1200000    0.0600000   2.494471e-04  1.671101e-07
    460    479   2   0.50000    -0.1200000    0.0600000   2.494471e-04  1.671101e-07
    476    463   2   0.50000     0.0600000   -0.1200000   2.494471e-04  1.671101e-07
    476    478   2   0.50000     0.0600000    0.0600000   6.128906e-05  1.496315e-08
    476    479   2   0.50000     0.0600000    0.0600000   6.128906e-05  1.496315e-08
    477    463   2   0.50000     0.0600000   -0.1200000   2.494471e-04  1.671101e-07
    477    478   2   0.50000     0.0600000    0.0600000   6.128906e-05  1.496315e-08
    477    479   2   0.50000     0.0600000    0.0600000   6.128906e-05  1.496315e-08
    461    464   2   0.50000    -0.1200000    0.5000000   1.575021e-03  3.561100e-06
    461    480   2   0.50000    -0.1200000    0.0600000   2.494471e-04  1.671101e-07
    461    481   2   0.50000    -0.1200000    0.0600000   2.494471e-04  1.671101e-07
    478    464   2   0.50000     0.0600000    0.5000000   3.869820e-04  3.188634e-07
    478    480   2   0.50000     0.0600000    0.0600000   6.128906e-05  1.496315e-08
    478    481   2   0.50000     0.0600000    0.0600000   6.128906e-05  1.496315e-08
    479    464   2   0.50000     0.0600000    0.5000000   3.869820e-04  3.188634e-07
    479    480   2   0.50000     0.0600000    0.0600000   6.128906e-05  1.496315e-08
    479    481   2   0.50000     0.0600000    0.0600000   6.128906e-05  1.496315e-08
    462    465   2   0.50000    -0.1200000   -0.5000000   1.095425e-03  1.218041e-06
    462    466   2   0.50000    -0.1200000   -0.5000000   1.304585e-03  1.920112e-06
    480    465   2   0.50000     0.0600000   -0.5000000   2.691455e-04  1.090642e-07
    480    466   2   0.50000     0.0600000   -0.5000000   3.205360e-04  1.719281e-07
    481    465   2   0.50000     0.0600000   -0.5000000   2.691455e-04  1.090642e-07
    481    466   2   0.50000     0.0600000   -0.5000000   3.205360e-04  1.719281e-07
    463    467   2   0.50000    -0.1200000    0.0800000   1.015252e-03  1.866303e-06
    463    482   2   0.50000    -0.1200000    0.3000000   1.995577e-06  1.069504e-11
    465    467   2   0.50000    -0.5000000    0.0800000   1.095425e-03  1.218041e-06
    465    482   2   0.50000    -0.5000000    0.3000000   2.153164e-06  6.980110e-12
    464    468   2   0.50000     0.5000000   -0.1200000   1.575021e-03  3.561100e-06
    464    483   2   0.50000     0.5000000    0.0600000   3.869820e-04  3.188634e-07
    464    484   2   0.50000     0.5000000    0.0600000   3.869820e-04  3.188634e-07
    482    468   2   0.50000     0.3000000   -0.1200000   1.995577e-06  1.069504e-11
    482    483   2   0.50000     0.3000000    0.0600000   4.903125e-07  9.576416e-13
    482    484   2   0.50000     0.3000000    0.0600000   4.903125e-07  9.576416e-13
    466    469   2   0.50000    -0.5000000   -0.1200000   1.304585e-03  1.920112e-06
    466    485   2   0.50000    -0.5000000    0.0600000   3.205360e-04  1.719281e-07
    466    486   2   0.50000    -0.5000000    0.0600000   3.205360e-04  1.719281e-07
    483    469   2   0.50000     0.0600000   -0.1200000   2.494471e-04  1.671101e-07
    483    485   2   0.50000     0.0600000    0.0600000   6.128906e-05  1.496315e-08
    483    486   2   0.50000     0.0600000    0.0600000   6.128906e-05  1.496315e-08
    484    469   2   0.50000     0.0600000   -0.1200000   2.494471e-04  1.671101e-07
    484    485   2   0.50000     0.0600000    0.0600000   6.128906e-05  1.496315e-08
    484    486   2   0.50000     0.0600000    0.0600000   6.128906e-05  1.496315e-08
    467    470   2   0.50000     0.0800000   -0.1200000   1.015252e-03  1.866303e-06
    467    487   2   0.50000     0.0800000    0.0600000   2.494471e-04  1.671101e-07
    467    488   2   0.50000     0.0800000    0.0600000   2.494471e-04  1.671101e-07
    485    470   2   0.50000     0.0600000   -0.1200000   2.494471e-04  1.671101e-07
    485    487   2   0.50000     0.0600000    0.0600000   6.128906e-05  1.496315e-08
    485    488   2   0.50000     0.0600000    0.0600000   6.128906e-05  1.496315e-08
    486    470   2   0.50000     0.0600000   -0.1200000   2.494471e-04  1.671101e-07
    486    487   2   0.50000     0.0600000    0.0600000   6.128906e-05  1.496315e-08
    486    488   2   0.50000     0.0600000    0.0600000   6.128906e-05  1.496315e-08
    468    471   2   0.50000    -0.1200000   -0.1200000   1.015252e-03  1.866303e-06
    468    489   2   0.50000    -0.1200000    0.0600000   2.494471e-04  1.671101e-07
    468    490   2   0.50000    -0.1200000    0.0600000   2.494471e-04  1.671101e-07
    487    471   2   0.50000     0.0600000   -0.1200000   2.494471e-04  1.671101e-07
    487    489   2   0.50000     0.0600000    0.0600000   6.128906e-05  1.496315e-08
    487    490   2   0.50000     0.0600000    0.0600000   6.128906e-05  1.496315e-08
    488    471   2   0.50000     0.0600000   -0.1200000   2.494471e-04  1.671101e-07
    488    489   2   0.50000     0.0600000    0.0600000   6.128906e-05  1.496315e-08
    488    490   2   0.50000     0.0600000    0.0600000   6.128906e-05  1.496315e-08
    469    472   2   0.50000    -0.1200000    0.0800000   1.015252e-03  1.866303e-06
    469    491   2   0.50000    -0.1200000    0.0600000   2.494471e-04  1.671101e-07
    469    492   2   0.50000    -0.1200000    0.0600000   2.494471e-04  1.671101e-07
    489    472   2   0.50000     0.0600000    0.0800000   2.494471e-04  1.671101e-07
    489    491   2   0.50000     0.0600000    0.0600000   6.128906e-05  1.496315e-08
    489    492   2   0.50000     0.0600000    0.0600000   6.128906e-05  1.496315e-08
    490    472   2   0.50000     0.0600000    0.0800000   2.494471e-04  1.671101e-07
    490    491   2   0.50000     0.0600000    0.0600000   6.128906e-05  1.496315e-08
    490    492   2   0.50000     0.0600000    0.0600000   6.128906e-05  1.496315e-08
    470    473   2   0.50000    -0.1200000   -0.5000000   1.304585e-03  1.920112e-06
    470    493   2   0.50000    -0.1200000    0.0600000   2.494471e-04  1.671101e-07
    470    494   2   0.50000    -0.1200000    0.0600000   2.494471e-04  1.671101e-07
    491    473   2   0.50000     0.0600000   -0.5000000   3.205360e-04  1.719281e-07
    491    493   2   0.50000     0.0600000    0.0600000   6.128906e-05  1.496315e-08
    491    494   2   0.50000     0.0600000    0.0600000   6.128906e-05  1.496315e-08
    492    473   2   0.50000     0.0600000   -0.5000000   3.205360e-04  1.719281e-07
    492    493   2   0.50000     0.0600000    0.0600000   6.128906e-05  1.496315e-08
    492    494   2   0.50000     0.0600000    0.0600000   6.128906e-05  1.496315e-08
    471    495   2   0.50000    -0.1200000    0.3000000   1.995577e-06  1.069504e-11
    471    496   2   0.50000    -0.1200000    0.5000000   1.575021e-03  3.561100e-06
    493    495   2   0.50000     0.0600000    0.3000000   4.903125e-07  9.576416e-13
    493    496   2   0.50000     0.0600000    0.5000000   3.869820e-04  3.188634e-07
    494    495   2   0.50000     0.0600000    0.3000000   4.903125e-07  9.576416e-13
    494    496   2   0.50000     0.0600000    0.5000000   3.869820e-04  3.188634e-07
    472    497   2   0.50000     0.0800000   -0.5000000   1.095425e-03  1.218041e-06
    472    498   2   0.50000     0.0800000   -0.1200000   1.015252e-03  1.866303e-06
    495    497   2   0.50000     0.3000000   -0.5000000   2.153164e-06  6.980110e-12
    495    498   2   0.50000     0.3000000   -0.1200000   1.995577e-06  1.069504e-11
    473    499   2   0.50000    -0.5000000   -0.1200000   1.304585e-03  1.920112e-06
    473    512   2   0.50000    -0.5000000    0.0600000   3.205360e-04  1.719281e-07
    473    513   2   0.50000    -0.5000000    0.0600000   3.205360e-04  1.719281e-07
    497    499   2   0.50000    -0.5000000   -0.1200000   1.095425e-03  1.218041e-06
    497    512   2   0.50000    -0.5000000    0.0600000   2.691455e-04  1.090642e-07
    497    513   2   0.50000    -0.5000000    0.0600000   2.691455e-04  1.090642e-07
    496    500   2   0.50000     0.5000000   -0.1200000   1.575021e-03  3.561100e-06
    496    514   2   0.50000     0.5000000    0.0600000   3.869820e-04  3.188634e-07
    496    515   2   0.50000     0.5000000    0.0600000   3.869820e-04  3.188634e-07
    512    500   2   0.50000     0.0600000   -0.1200000   2.494471e-04  1.671101e-07
    512    514   2   0.50000     0.0600000    0.0600000   6.128906e-05  1.496315e-08
    512    515   2   0.50000     0.0600000    0.0600000   6.128906e-05  1.496315e-08
    513    500   2   0.50000     0.0600000   -0.1200000   2.494471e-04  1.671101e-07
    513    514   2   0.50000     0.0600000    0.0600000   6.128906e-05  1.496315e-08
    513    515   2   0.50000     0.0600000    0.0600000   6.128906e-05  1.496315e-08
    498    501   2   0.50000    -0.1200000   -0.1200000   1.015252e-03  1.866303e-06
    498    516   2   0.50000    -0.1200000    0.0600000   2.494471e-04  1.671101e-07
    498    517   2   0.50000    -0.1200000    0.0600000   2.494471e-04  1.671101e-07
    514    501   2   0.50000     0.0600000   -0.1200000   2.494471e-04  1.671101e-07
    514    516   2   0.50000     0.0600000    0.0600000   6.128906e-05  1.496315e-08
    514    517   2   0.50000     0.0600000    0.0600000   6.128906e-05  1.496315e-08
    515    501   2   0.50000     0.0600000   -0.1200000   2.494471e-04  1.671101e-07
    515    516   2   0.50000     0.0600000    0.0600000   6.128906e-05  1.496315e-08
    515    517   2   0.50000     0.0600000    0.0600000   6.128906e-05  1.496315e-08
    499    502   2   0.50000    -0.1200000    0.5000000   1.575021e-03  3.561100e-06
    499    518   2   0.50000    -0.1200000    0.0600000   2.494471e-04  1.671101e-07
    499    519   2   0.50000    -0.1200000    0.0600000   2.494471e-04  1.671101e-07
    516    502   2   0.50000     0.0600000    0.5000000   3.869820e-04  3.188634e-07
    516    518   2   0.50000     0.0600000    0.0600000   6.128906e-05  1.496315e-08
    516    519   2   0.50000     0.0600000    0.0600000   6.128906e-05  1.496315e-08
    517    502   2   0.50000     0.0600000    0.5000000   3.869820e-04  3.188634e-07
    517    518   2   0.50000     0.0600000    0.0600000   6.128906e-05  1.496315e-08
    517    519   2   0.50000     0.0600000    0.0600000   6.128906e-05  1.496315e-08
    500    503   2   0.50000    -0.1200000   -0.5000000   1.095425e-03  1.218041e-06
    500    504   2   0.50000    -0.1200000   -0.5000000   1.304585e-03  1.920112e-06
    518    503   2   0.50000     0.0600000   -0.5000000   2.691455e-04  1.090642e-07
    518    504   2   0.50000     0.0600000   -0.5000000   3.205360e-04  1.719281e-07
    519    503   2   0.50000     0.0600000   -0.5000000   2.691455e-04  1.090642e-07
    519    504   2   0.50000     0.0600000   -0.5000000   3.205360e-04  1.719281e-07
    501    505   2   0.50000    -0.1200000    0.0800000   1.015252e-03  1.866303e-06
    501    520   2   0.50000    -0.1200000    0.3000000   1.995577e-06  1.069504e-11
    503    505   2   0.50000    -0.5000000    0.0800000   1.095425e-03  1.218041e-06
    503    520   2   0.50000    -0.5000000    0.3000000   2.153164e-06  6.980110e-12
    502    506   2   0.50000     0.5000000   -0.1200000   1.575021e-03  3.561100e-06
    502    521   2   0.50000     0.5000000    0.0600000   3.869820e-04  3.188634e-07
    502    522   2   0.50000     0.5000000    0.0600000   3.869820e-04  3.188634e-07
    520    506   2   0.50000     0.3000000   -0.1200000   1.995577e-06  1.069504e-11
    520    521   2   0.50000     0.3000000    0.0600000   4.903125e-07  9.576416e-13
    520    522   2   0.50000     0.3000000    0.0600000   4.903125e-07  9.576416e-13
    504    507   2   0.50000    -0.5000000   -0.1200000   1.304585e-03  1.920112e-06
    504    523   2   0.50000    -0.5000000    0.0600000   3.205360e-04  1.719281e-07
    504    524   2   0.50000    -0.5000000    0.0600000   3.205360e-04  1.719281e-07
    521    507   2   0.50000     0.0600000   -0.1200000   2.494471e-04  1.671101e-07
    521    523   2   0.50000     0.0600000    0.0600000   6.128906e-05  1.496315e-08
    521    524   2   0.50000     0.0600000    0.0600000   6.128906e-05  1.496315e-08
    522    507   2   0.50000     0.0600000   -0.1200000   2.494471e-04  1.671101e-07
    522    523   2   0.50000     0.0600000    0.0600000   6.128906e-05  1.496315e-08
    522    524   2   0.50000     0.0600000    0.0600000   6.128906e-05  1.496315e-08
    505    508   2   0.50000     0.0800000   -0.1200000   1.015252e-03  1.866303e-06
    505    525   2   0.50000     0.0800000    0.0600000   2.494471e-04  1.671101e-07
    505    526   2   0.50000     0.0800000    0.0600000   2.494471e-04  1.671101e-07
    523    508   2   0.50000     0.0600000   -0.1200000   2.494471e-04  1.671101e-07
    523    525   2   0.50000     0.0600000    0.0600000   6.128906e-05  1.496315e-08
    523    526   2   0.50000     0.0600000    0.0600000   6.128906e-05  1.496315e-08
    524    508   2   0.50000     0.0600000   -0.1200000   2.494471e-04  1.671101e-07
    524    525   2   0.50000     0.0600000    0.0600000   6.128906e-05  1.496315e-08
    524    526   2   0.50000     0.0600000    0.0600000   6.128906e-05  1.496315e-08
    506    509   2   0.50000    -0.1200000   -0.1200000   1.015252e-03  1.866303e-06
    506    527   2   0.50000    -0.1200000    0.0600000   2.494471e-04  1.671101e-07
    506    528   2   0.50000    -0.1200000    0.0600000   2.494471e-04  1.671101e-07
    525    509   2   0.50000     0.0600000   -0.1200000   2.494471e-04  1.671101e-07
    525    527   2   0.50000     0.0600000    0.0600000   6.128906e-05  1.496315e-08
    525    528   2   0.50000     0.0600000    0.0600000   6.128906e-05  1.496315e-08
    526    509   2   0.50000     0.0600000   -0.1200000   2.494471e-04  1.671101e-07
    526    527   2   0.50000     0.0600000    0.0600000   6.128906e-05  1.496315e-08
    526    528   2   0.50000     0.0600000    0.0600000   6.128906e-05  1.496315e-08
    507    510   2   0.50000    -0.1200000    0.0800000   1.015252e-03  1.866303e-06
    507    529   2   0.50000    -0.1200000    0.0600000   2.494471e-04  1.671101e-07
    507    530   2   0.50000    -0.1200000    0.0600000   2.494471e-04  1.671101e-07
    527    510   2   0.50000     0.0600000    0.0800000   2.494471e-04  1.671101e-07
    527    529   2   0.50000     0.0600000    0.0600000   6.128906e-05  1.496315e-08
    527    530   2   0.50000     0.0600000    0.0600000   6.128906e-05  1.496315e-08
    528    510   2   0.50000     0.0600000    0.0800000   2.494471e-04  1.671101e-07
    528    529   2   0.50000     0.0600000    0.0600000   6.128906e-05  1.496315e-08
    528    530   2   0.50000     0.0600000    0.0600000   6.128906e-05  1.496315e-08
    508    511   2   0.50000    -0.1200000   -0.5000000   1.304585e-03  1.920112e-06
    508    531   2   0.50000    -0.1200000    0.0600000   2.494471e-04  1.671101e-07
    508    532   2   0.50000    -0.1200000    0.0600000   2.494471e-04  1.671101e-07
    529    511   2   0.50000     0.0600000   -0.5000000   3.205360e-04  1.719281e-07
    529    531   2   0.50000     0.0600000    0.0600000   6.128906e-05  1.496315e-08
    529    532   2   0.50000     0.0600000    0.0600000   6.128906e-05  1.496315e-08
    530    511   2   0.50000     0.0600000   -0.5000000   3.205360e-04  1.719281e-07
    530    531   2   0.50000     0.0600000    0.0600000   6.128906e-05  1.496315e-08
    530    532   2   0.50000     0.0600000    0.0600000   6.128906e-05  1.496315e-08
    509    533   2   0.50000    -0.1200000    0.3000000   1.995577e-06  1.069504e-11
    509    534   2   0.50000    -0.1200000    0.5000000   1.575021e-03  3.561100e-06
    531    533   2   0.50000     0.0600000    0.3000000   4.903125e-07  9.576416e-13
    531    534   2   0.50000     0.0600000    0.5000000   3.869820e-04  3.188634e-07
    532    533   2   0.50000     0.0600000    0.3000000   4.903125e-07  9.576416e-13
    532    534   2   0.50000     0.0600000    0.5000000   3.869820e-04  3.188634e-07
    510    535   2   0.50000     0.0800000   -0.5000000   1.095425e-03  1.218041e-06
    510    536   2   0.50000     0.0800000   -0.1200000   1.015252e-03  1.866303e-06
    533    535   2   0.50000     0.3000000   -0.5000000   2.153164e-06  6.980110e-12
    533    536   2   0.50000     0.3000000   -0.1200000   1.995577e-06  1.069504e-11
    511    537   2   0.50000    -0.5000000   -0.1200000   1.304585e-03  1.920112e-06
    511    550   2   0.50000    -0.5000000    0.0600000   3.205360e-04  1.719281e-07
    511    551   2   0.50000    -0.5000000    0.0600000   3.205360e-04  1.719281e-07
    535    537   2   0.50000    -0.5000000   -0.1200000   1.095425e-03  1.218041e-06
    535    550   2   0.50000    -0.5000000    0.0600000   2.691455e-04  1.090642e-07
    535    551   2   0.50000    -0.5000000    0.0600000   2.691455e-04  1.090642e-07
    534    538   2   0.50000     0.5000000   -0.1200000   1.575021e-03  3.561100e-06
    534    552   2   0.50000     0.5000000    0.0600000   3.869820e-04  3.188634e-07
    534    553   2   0.50000     0.5000000    0.0600000   3.869820e-04  3.188634e-07
    550    538   2   0.50000     0.0600000   -0.1200000   2.494471e-04  1.671101e-07
    550    552   2   0.50000     0.0600000    0.0600000   6.128906e-05  1.496315e-08
    550    553   2   0.50000     0.0600000    0.0600000   6.128906e-05  1.496315e-08
    551    538   2   0.50000     0.0600000   -0.1200000   2.494471e-04  1.671101e-07
    551    552   2   0.50000     0.0600000    0.0600000   6.128906e-05  1.496315e-08
    551    553   2   0.50000     0.0600000    0.0600000   6.128906e-05  1.496315e-08
    536    539   2   0.50000    -0.1200000   -0.1200000   1.015252e-03  1.866303e-06
    536    554   2   0.50000    -0.1200000    0.0600000   2.494471e-04  1.671101e-07
    536    555   2   0.50000    -0.1200000    0.0600000   2.494471e-04  1.671101e-07
    552    539   2   0.50000     0.0600000   -0.1200000   2.494471e-04  1.671101e-07
    552    554   2   0.50000     0.0600000    0.0600000   6.128906e-05  1.496315e-08
    552    555   2   0.50000     0.0600000    0.0600000   6.128906e-05  1.496315e-08
    553    539   2   0.50000     0.0600000   -0.1200000   2.494471e-04  1.671101e-07
    553    554   2   0.50000     0.0600000    0.0600000   6.128906e-05  1.496315e-08
    553    555   2   0.50000     0.0600000    0.0600000   6.128906e-05  1.496315e-08
    537    540   2   0.50000    -0.1200000    0.5000000   1.575021e-03  3.561100e-06
    537    556   2   0.50000    -0.1200000    0.0600000   2.494471e-04  1.671101e-07
    537    557   2   0.50000    -0.1200000    0.0600000   2.494471e-04  1.671101e-07
    554    540   2   0.50000     0.0600000    0.5000000   3.869820e-04  3.188634e-07
    554    556   2   0.50000     0.0600000    0.0600000   6.128906e-05  1.496315e-08
    554    557   2   0.50000     0.0600000    0.0600000   6.128906e-05  1.496315e-08
    555    540   2   0.50000     0.0600000    0.5000000   3.869820e-04  3.188634e-07
    555    556   2   0.50000     0.0600000    0.0600000   6.128906e-05  1.496315e-08
    555    557   2   0.50000     0.0600000    0.0600000   6.128906e-05  1.496315e-08
    538    541   2   0.50000    -0.1200000   -0.5000000   1.095425e-03  1.218041e-06
    538    542   2   0.50000    -0.1200000   -0.5000000   1.304585e-03  1.920112e-06
    556    541   2   0.50000     0.0600000   -0.5000000   2.691455e-04  1.090642e-07
    556    542   2   0.50000     0.0600000   -0.5000000   3.205360e-04  1.719281e-07
    557    541   2   0.50000     0.0600000   -0.5000000   2.691455e-04  1.090642e-07
    557    542   2   0.50000     0.0600000   -0.5000000   3.205360e-04  1.719281e-07
    539    543   2   0.50000    -0.1200000    0.0800000   1.015252e-03  1.866303e-06
    539    558   2   0.50000    -0.1200000    0.3000000   1.995577e-06  1.069504e-11
    541    543   2   0.50000    -0.5000000    0.0800000   1.095425e-03  1.218041e-06
    541    558   2   0.50000    -0.5000000    0.3000000   2.153164e-06  6.980110e-12
    540    544   2   0.50000     0.5000000   -0.1200000   1.575021e-03  3.561100e-06
    540    559   2   0.50000     0.5000000    0.0600000   3.869820e-04  3.188634e-07
    540    560   2   0.50000     0.5000000    0.0600000   3.869820e-04  3.188634e-07
    558    544   2   0.50000     0.3000000   -0.1200000   1.995577e-06  1.069504e-11
    558    559   2   0.50000     0.3000000    0.0600000   4.903125e-07  9.576416e-13
    558    560   2   0.50000     0.3000000    0.0600000   4.903125e-07  9.576416e-13
    542    545   2   0.50000    -0.5000000   -0.1200000   1.304585e-03  1.920112e-06
    542    561   2   0.50000    -0.5000000    0.0600000   3.205360e-04  1.719281e-07
    542    562   2   0.50000    -0.5000000    0.0600000   3.205360e-04  1.719281e-07
    559    545   2   0.50000     0.0600000   -0.1200000   2.494471e-04  1.671101e-07
    559    561   2   0.50000     0.0600000    0.0600000   6.128906e-05  1.496315e-08
    559    562   2   0.50000     0.0600000    0.0600000   6.128906e-05  1.496315e-08
    560    545   2   0.50000     0.0600000   -0.1200000   2.494471e-04  1.671101e-07
    560    561   2   0.50000     0.0600000    0.0600000   6.128906e-05  1.496315e-08
    560    562   2   0.50000     0.0600000    0.0600000   6.128906e-05  1.496315e-08
    543    546   2   0.50000     0.0800000   -0.1200000   1.015252e-03  1.866303e-06
    543    563   2   0.50000     0.0800000    0.0600000   2.494471e-04  1.671101e-07
    543    564   2   0.50000     0.0800000    0.0600000   2.494471e-04  1.671101e-07
    561    546   2   0.50000     0.0600000   -0.1200000   2.494471e-04  1.671101e-07
    561    563   2   0.50000     0.0600000    0.0600000   6.128906e-05  1.496315e-08
    561    564   2   0.50000     0.0600000    0.0600000   6.128906e-05  1.496315e-08
    562    546   2   0.50000     0.0600000   -0.1200000   2.494471e-04  1.671101e-07
    562    563   2   0.50000     0.0600000    0.0600000   6.128906e-05  1.496315e-08
    562    564   2   0.50000     0.0600000    0.0600000   6.128906e-05  1.496315e-08
    544    547   2   0.50000    -0.1200000   -0.1200000   1.015252e-03  1.866303e-06
    544    565   2   0.50000    -0.1200000    0.0600000   2.494471e-04  1.671101e-07
    544    566   2   0.50000    -0.1200000    0.0600000   2.494471e-04  1.671101e-07
    563    547   2   0.50000     0.0600000   -0.1200000   2.494471e-04  1.671101e-07
    563    565   2   0.50000     0.0600000    0.0600000   6.128906e-05  1.496315e-08
    563    566   2   0.50000     0.0600000    0.0600000   6.128906e-05  1.496315e-08
    564    547   2   0.50000     0.0600000   -0.1200000   2.494471e-04  1.671101e-07
    564    565   2   0.50000     0.0600000    0.0600000   6.128906e-05  1.496315e-08
    564    566   2   0.50000     0.0600000    0.0600000   6.128906e-05  1.496315e-08
    545    548   2   0.50000    -0.1200000    0.0800000   1.015252e-03  1.866303e-06
    545    567   2   0.50000    -0.1200000    0.0600000   2.494471e-04  1.671101e-07
    545    568   2   0.50000    -0.1200000    0.0600000   2.494471e-04  1.671101e-07
    565    548   2   0.50000     0.0600000    0.0800000   2.494471e-04  1.671101e-07
    565    567   2   0.50000     0.0600000    0.0600000   6.128906e-05  1.496315e-08
    565    568   2   0.50000     0.0600000    0.0600000   6.128906e-05  1.496315e-08
    566    548   2   0.50000     0.0600000    0.0800000   2.494471e-04  1.671101e-07
    566    567   2   0.50000     0.0600000    0.0600000   6.128906e-05  1.496315e-08
    566    568   2   0.50000     0.0600000    0.0600000   6.128906e-05  1.496315e-08
    546    549   2   0.50000    -0.1200000   -0.5000000   1.304585e-03  1.920112e-06
    546    569   2   0.50000    -0.1200000    0.0600000   2.494471e-04  1.671101e-07
    546    570   2   0.50000    -0.1200000    0.0600000   2.494471e-04  1.671101e-07
    567    549   2   0.50000     0.0600000   -0.5000000   3.205360e-04  1.719281e-07
    567    569   2   0.50000     0.0600000    0.0600000   6.128906e-05  1.496315e-08
    567    570   2   0.50000     0.0600000    0.0600000   6.128906e-05  1.496315e-08
    568    549   2   0.50000     0.0600000   -0.5000000   3.205360e-04  1.719281e-07
    568    569   2   0.50000     0.0600000    0.0600000   6.128906e-05  1.496315e-08
    568    570   2   0.50000     0.0600000    0.0600000   6.128906e-05  1.496315e-08
    547    571   2   0.50000    -0.1200000    0.3000000   1.995577e-06  1.069504e-11
    547    572   2   0.50000    -0.1200000    0.5000000   1.575021e-03  3.561100e-06
    569    571   2   0.50000     0.0600000    0.3000000   4.903125e-07  9.576416e-13
    569    572   2   0.50000     0.0600000    0.5000000   3.869820e-04  3.188634e-07
    570    571   2   0.50000     0.0600000    0.3000000   4.903125e-07  9.576416e-13
    570    572   2   0.50000     0.0600000    0.5000000   3.869820e-04  3.188634e-07
    548    573   2   0.50000     0.0800000   -0.5000000   1.095425e-03  1.218041e-06
    548    574   2   0.50000     0.0800000   -0.1200000   1.015252e-03  1.866303e-06
    571    573   2   0.50000     0.3000000   -0.5000000   2.153164e-06  6.980110e-12
    571    574   2   0.50000     0.3000000   -0.1200000   1.995577e-06  1.069504e-11
    549    575   2   0.50000    -0.5000000   -0.1200000   1.304585e-03  1.920112e-06
    549    588   2   0.50000    -0.5000000    0.0600000   3.205360e-04  1.719281e-07
    549    589   2   0.50000    -0.5000000    0.0600000   3.205360e-04  1.719281e-07
    573    575   2   0.50000    -0.5000000   -0.1200000   1.095425e-03  1.218041e-06
    573    588   2   0.50000    -0.5000000    0.0600000   2.691455e-04  1.090642e-07
    573    589   2   0.50000    -0.5000000    0.0600000   2.691455e-04  1.090642e-07
    572    576   2   0.50000     0.5000000   -0.1200000   1.575021e-03  3.561100e-06
    572    590   2   0.50000     0.5000000    0.0600000   3.869820e-04  3.188634e-07
    572    591   2   0.50000     0.5000000    0.0600000   3.869820e-04  3.188634e-07
    588    576   2   0.50000     0.0600000   -0.1200000   2.494471e-04  1.671101e-07
    588    590   2   0.50000     0.0600000    0.0600000   6.128906e-05  1.496315e-08
    588    591   2   0.50000     0.0600000    0.0600000   6.128906e-05  1.496315e-08
    589    576   2   0.50000     0.0600000   -0.1200000   2.494471e-04  1.671101e-07
    589    590   2   0.50000     0.0600000    0.0600000   6.128906e-05  1.496315e-08
    589    591   2   0.50000     0.0600000    0.0600000   6.128906e-05  1.496315e-08
    574    577   2   0.50000    -0.1200000   -0.1200000   1.015252e-03  1.866303e-06
    574    592   2   0.50000    -0.1200000    0.0600000   2.494471e-04  1.671101e-07
    574    593   2   0.50000    -0.1200000    0.0600000   2.494471e-04  1.671101e-07
    590    577   2   0.50000     0.0600000   -0.1200000   2.494471e-04  1.671101e-07
    590    592   2   0.50000     0.0600000    0.0600000   6.128906e-05  1.496315e-08
    590    593   2   0.50000     0.0600000    0.0600000   6.128906e-05  1.496315e-08
    591    577   2   0.50000     0.0600000   -0.1200000   2.494471e-04  1.671101e-07
    591    592   2   0.50000     0.0600000    0.0600000   6.128906e-05  1.496315e-08
    591    593   2   0.50000     0.0600000    0.0600000   6.128906e-05  1.496315e-08
    575    578   2   0.50000    -0.1200000    0.5000000   1.575021e-03  3.561100e-06
    575    594   2   0.50000    -0.1200000    0.0600000   2.494471e-04  1.671101e-07
    575    595   2   0.50000    -0.1200000    0.0600000   2.494471e-04  1.671101e-07
    592    578   2   0.50000     0.0600000    0.5000000   3.869820e-04  3.188634e-07
    592    594   2   0.50000     0.0600000    0.0600000   6.128906e-05  1.496315e-08
    592    595   2   0.50000     0.0600000    0.0600000   6.128906e-05  1.496315e-08
    593    578   2   0.50000     0.0600000    0.5000000   3.869820e-04  3.188634e-07
    593    594   2   0.50000     0.0600000    0.0600000   6.128906e-05  1.496315e-08
    593    595   2   0.50000     0.0600000    0.0600000   6.128906e-05  1.496315e-08
    576    579   2   0.50000    -0.1200000   -0.5000000   1.095425e-03  1.218041e-06
    576    580   2   0.50000    -0.1200000   -0.5000000   1.304585e-03  1.920112e-06
    594    579   2   0.50000     0.0600000   -0.5000000   2.691455e-04  1.090642e-07
    594    580   2   0.50000     0.0600000   -0.5000000   3.205360e-04  1.719281e-07
    595    579   2   0.50000     0.0600000   -0.5000000   2.691455e-04  1.090642e-07
    595    580   2   0.50000     0.0600000   -0.5000000   3.205360e-04  1.719281e-07
    577    581   2   0.50000    -0.1200000    0.0800000   1.015252e-03  1.866303e-06
    577    596   2   0.50000    -0.1200000    0.3000000   1.995577e-06  1.069504e-11
    579    581   2   0.50000    -0.5000000    0.0800000   1.095425e-03  1.218041e-06
    579    596   2   0.50000    -0.5000000    0.3000000   2.153164e-06  6.980110e-12
    578    582   2   0.50000     0.5000000   -0.1200000   1.575021e-03  3.561100e-06
    578    597   2   0.50000     0.5000000    0.0600000   3.869820e-04  3.188634e-07
    578    598   2   0.50000     0.5000000    0.0600000   3.869820e-04  3.188634e-07
    596    582   2   0.50000     0.3000000   -0.1200000   1.995577e-06  1.069504e-11
    596    597   2   0.50000     0.3000000    0.0600000   4.903125e-07  9.576416e-13
    596    598   2   0.50000     0.3000000    0.0600000   4.903125e-07  9.576416e-13
    580    583   2   0.50000    -0.5000000   -0.1200000   1.304585e-03  1.920112e-06
    580    599   2   0.50000    -0.5000000    0.0600000   3.205360e-04  1.719281e-07
    580    600   2   0.50000    -0.5000000    0.0600000   3.205360e-04  1.719281e-07
    597    583   2   0.50000     0.0600000   -0.1200000   2.494471e-04  1.671101e-07
    597    599   2   0.50000     0.0600000    0.0600000   6.128906e-05  1.496315e-08
    597    600   2   0.50000     0.0600000    0.0600000   6.128906e-05  1.496315e-08
    598    583   2   0.50000     0.0600000   -0.1200000   2.494471e-04  1.671101e-07
    598    599   2   0.50000     0.0600000    0.0600000   6.128906e-05  1.496315e-08
    598    600   2   0.50000     0.0600000    0.0600000   6.128906e-05  1.496315e-08
    581    584   2   0.50000     0.0800000   -0.1200000   1.015252e-03  1.866303e-06
    581    601   2   0.50000     0.0800000    0.0600000   2.494471e-04  1.671101e-07
    581    602   2   0.50000     0.0800000    0.0600000   2.494471e-04  1.671101e-07
    599    584   2   0.50000     0.0600000   -0.1200000   2.494471e-04  1.671101e-07
    599    601   2   0.50000     0.0600000    0.0600000   6.128906e-05  1.496315e-08
    599    602   2   0.50000     0.0600000    0.0600000   6.128906e-05  1.496315e-08
    600    584   2   0.50000     0.0600000   -0.1200000   2.494471e-04  1.671101e-07
    600    601   2   0.50000     0.0600000    0.0600000   6.128906e-05  1.496315e-08
    600    602   2   0.50000     0.0600000    0.0600000   6.128906e-05  1.496315e-08
    582    585   2   0.50000    -0.1200000   -0.1200000   1.015252e-03  1.866303e-06
    582    603   2   0.50000    -0.1200000    0.0600000   2.494471e-04  1.671101e-07
    582    604   2   0.50000    -0.1200000    0.0600000   2.494471e-04  1.671101e-07
    601    585   2   0.50000     0.0600000   -0.1200000   2.494471e-04  1.671101e-07
    601    603   2   0.50000     0.0600000    0.0600000   6.128906e-05  1.496315e-08
    601    604   2   0.50000     0.0600000    0.0600000   6.128906e-05  1.496315e-08
    602    585   2   0.50000     0.0600000   -0.1200000   2.494471e-04  1.671101e-07
    602    603   2   0.50000     0.0600000    0.0600000   6.128906e-05  1.496315e-08
    602    604   2   0.50000     0.0600000    0.0600000   6.128906e-05  1.496315e-08
    583    586   2   0.50000    -0.1200000    0.0800000   1.015252e-03  1.866303e-06
    583    605   2   0.50000    -0.1200000    0.0600000   2.494471e-04  1.671101e-07
    583    606   2   0.50000    -0.1200000    0.0600000   2.494471e-04  1.671101e-07
    603    586   2   0.50000     0.0600000    0.0800000   2.494471e-04  1.671101e-07
    603    605   2   0.50000     0.0600000    0.0600000   6.128906e-05  1.496315e-08
    603    606   2   0.50000     0.0600000    0.0600000   6.128906e-05  1.496315e-08
    604    586   2   0.50000     0.0600000    0.0800000   2.494471e-04  1.671101e-07
    604    605   2   0.50000     0.0600000    0.0600000   6.128906e-05  1.496315e-08
    604    606   2   0.50000     0.0600000    0.0600000   6.128906e-05  1.496315e-08
    584    587   2   0.50000    -0.1200000   -0.5000000   1.304585e-03  1.920112e-06
    584    607   2   0.50000    -0.1200000    0.0600000   2.494471e-04  1.671101e-07
    584    608   2   0.50000    -0.1200000    0.0600000   2.494471e-04  1.671101e-07
    605    587   2   0.50000     0.0600000   -0.5000000   3.205360e-04  1.719281e-07
    605    607   2   0.50000     0.0600000    0.0600000   6.128906e-05  1.496315e-08
    605    608   2   0.50000     0.0600000    0.0600000   6.128906e-05  1.496315e-08
    606    587   2   0.50000     0.0600000   -0.5000000   3.205360e-04  1.719281e-07
    606    607   2   0.50000     0.0600000    0.0600000   6.128906e-05  1.496315e-08
    606    608   2   0.50000     0.0600000    0.0600000   6.128906e-05  1.496315e-08
    585    609   2   0.50000    -0.1200000    0.3000000   1.995577e-06  1.069504e-11
    585    610   2   0.50000    -0.1200000    0.5000000   1.575021e-03  3.561100e-06
    607    609   2   0.50000     0.0600000    0.3000000   4.903125e-07  9.576416e-13
    607    610   2   0.50000     0.0600000    0.5000000   3.869820e-04  3.188634e-07
    608    609   2   0.50000     0.0600000    0.3000000   4.903125e-07  9.576416e-13
    608    610   2   0.50000     0.0600000    0.5000000   3.869820e-04  3.188634e-07
    586    611   2   0.50000     0.0800000   -0.5000000   1.095425e-03  1.218041e-06
    586    612   2   0.50000     0.0800000   -0.1200000   1.015252e-03  1.866303e-06
    609    611   2   0.50000     0.3000000   -0.5000000   2.153164e-06  6.980110e-12
    609    612   2   0.50000     0.3000000   -0.1200000   1.995577e-06  1.069504e-11
    587    613   2   0.50000    -0.5000000   -0.1200000   1.304585e-03  1.920112e-06
    587    626   2   0.50000    -0.5000000    0.0600000   3.205360e-04  1.719281e-07
    587    627   2   0.50000    -0.5000000    0.0600000   3.205360e-04  1.719281e-07
    611    613   2   0.50000    -0.5000000   -0.1200000   1.095425e-03  1.218041e-06
    611    626   2   0.50000    -0.5000000    0.0600000   2.691455e-04  1.090642e-07
    611    627   2   0.50000    -0.5000000    0.0600000   2.691455e-04  1.090642e-07
    610    614   2   0.50000     0.5000000   -0.1200000   1.575021e-03  3.561100e-06
    610    628   2   0.50000     0.5000000    0.0600000   3.869820e-04  3.188634e-07
    610    629   2   0.50000     0.5000000    0.0600000   3.869820e-04  3.188634e-07
    626    614   2   0.50000     0.0600000   -0.1200000   2.494471e-04  1.671101e-07
    626    628   2   0.50000     0.0600000    0.0600000   6.128906e-05  1.496315e-08
    626    629   2   0.50000     0.0600000    0.0600000   6.128906e-05  1.496315e-08
    627    614   2   0.50000     0.0600000   -0.1200000   2.494471e-04  1.671101e-07
    627    628   2   0.50000     0.0600000    0.0600000   6.128906e-05  1.496315e-08
    627    629   2   0.50000     0.0600000    0.0600000   6.128906e-05  1.496315e-08
    612    615   2   0.50000    -0.1200000   -0.1200000   1.015252e-03  1.866303e-06
    612    630   2   0.50000    -0.1200000    0.0600000   2.494471e-04  1.671101e-07
    612    631   2   0.50000    -0.1200000    0.0600000   2.494471e-04  1.671101e-07
    628    615   2   0.50000     0.0600000   -0.1200000   2.494471e-04  1.671101e-07
    628    630   2   0.50000     0.0600000    0.0600000   6.128906e-05  1.496315e-08
    628    631   2   0.50000     0.0600000    0.0600000   6.128906e-05  1.496315e-08
    629    615   2   0.50000     0.0600000   -0.1200000   2.494471e-04  1.671101e-07
    629    630   2   0.50000     0.0600000    0.0600000   6.128906e-05  1.496315e-08
    629    631   2   0.50000     0.0600000    0.0600000   6.128906e-05  1.496315e-08
    613    616   2   0.50000    -0.1200000    0.5000000   1.575021e-03  3.561100e-06
    613    632   2   0.50000    -0.1200000    0.0600000   2.494471e-04  1.671101e-07
    613    633   2   0.50000    -0.1200000    0.0600000   2.494471e-04  1.671101e-07
    630    616   2   0.50000     0.0600000    0.5000000   3.869820e-04  3.188634e-07
    630    632   2   0.50000     0.0600000    0.0600000   6.128906e-05  1.496315e-08
    630    633   2   0.50000     0.0600000    0.0600000   6.128906e-05  1.496315e-08
    631    616   2   0.50000     0.0600000    0.5000000   3.869820e-04  3.188634e-07
    631    632   2   0.50000     0.0600000    0.0600000   6.128906e-05  1.496315e-08
    631    633   2   0.50000     0.0600000    0.0600000   6.128906e-05  1.496315e-08
    614    617   2   0.50000    -0.1200000   -0.5000000   1.095425e-03  1.218041e-06
    614    618   2   0.50000    -0.1200000   -0.5000000   1.304585e-03  1.920112e-06
    632    617   2   0.50000     0.0600000   -0.5000000   2.691455e-04  1.090642e-07
    632    618   2   0.50000     0.0600000   -0.5000000   3.205360e-04  1.719281e-07
    633    617   2   0.50000     0.0600000   -0.5000000   2.691455e-04  1.090642e-07
    633    618   2   0.50000     0.0600000   -0.5000000   3.205360e-04  1.719281e-07
    615    619   2   0.50000    -0.1200000    0.0800000   1.015252e-03  1.866303e-06
    615    634   2   0.50000    -0.1200000    0.3000000   1.995577e-06  1.069504e-11
    617    619   2   0.50000    -0.5000000    0.0800000   1.095425e-03  1.218041e-06
    617    634   2   0.50000    -0.5000000    0.3000000   2.153164e-06  6.980110e-12
    616    620   2   0.50000     0.5000000   -0.1200000   1.575021e-03  3.561100e-06
    616    635   2   0.50000     0.5000000    0.0600000   3.869820e-04  3.188634e-07
    616    636   2   0.50000     0.5000000    0.0600000   3.869820e-04  3.188634e-07
    634    620   2   0.50000     0.3000000   -0.1200000   1.995577e-06  1.069504e-11
    634    635   2   0.50000     0.3000000    0.0600000   4.903125e-07  9.576416e-13
    634    636   2   0.50000     0.3000000    0.0600000   4.903125e-07  9.576416e-13
    618    621   2   0.50000    -0.5000000   -0.1200000   1.304585e-03  1.920112e-06
    618    637   2   0.50000    -0.5000000    0.0600000   3.205360e-04  1.719281e-07
    618    638   2   0.50000    -0.5000000    0.0600000   3.205360e-04  1.719281e-07
    635    621   2   0.50000     0.0600000   -0.1200000   2.494471e-04  1.671101e-07
    635    637   2   0.50000     0.0600000    0.0600000   6.128906e-05  1.496315e-08
    635    638   2   0.50000     0.0600000    0.0600000   6.128906e-05  1.496315e-08
    636    621   2   0.50000     0.0600000   -0.1200000   2.494471e-04  1.671101e-07
    636    637   2   0.50000     0.0600000    0.0600000   6.128906e-05  1.496315e-08
    636    638   2   0.50000     0.0600000    0.0600000   6.128906e-05  1.496315e-08
    619    622   2   0.50000     0.0800000   -0.1200000   1.015252e-03  1.866303e-06
    619    639   2   0.50000     0.0800000    0.0600000   2.494471e-04  1.671101e-07
    619    640   2   0.50000     0.0800000    0.0600000   2.494471e-04  1.671101e-07
    637    622   2   0.50000     0.0600000   -0.1200000   2.494471e-04  1.671101e-07
    637    639   2   0.50000     0.0600000    0.0600000   6.128906e-05  1.496315e-08
    637    640   2   0.50000     0.0600000    0.0600000   6.128906e-05  1.496315e-08
    638    622   2   0.50000     0.0600000   -0.1200000   2.494471e-04  1.671101e-07
    638    639   2   0.50000     0.0600000    0.0600000   6.128906e-05  1.496315e-08
    638    640   2   0.50000     0.0600000    0.0600000   6.128906e-05  1.496315e-08
    620    623   2   0.50000    -0.1200000   -0.1200000   1.015252e-03  1.866303e-06
    620    641   2   0.50000    -0.1200000    0.0600000   2.494471e-04  1.671101e-07
    620    642   2   0.50000    -0.1200000    0.0600000   2.494471e-04  1.671101e-07
    639    623   2   0.50000     0.0600000   -0.1200000   2.494471e-04  1.671101e-07
    639    641   2   0.50000     0.0600000    0.0600000   6.128906e-05  1.496315e-08
    639    642   2   0.50000     0.0600000    0.0600000   6.128906e-05  1.496315e-08
    640    623   2   0.50000     0.0600000   -0.1200000   2.494471e-04  1.671101e-07
    640    641   2   0.50000     0.0600000    0.0600000   6.128906e-05  1.496315e-08
    640    642   2   0.50000     0.0600000    0.0600000   6.128906e-05  1.496315e-08
    621    624   2   0.50000    -0.1200000    0.0800000   1.015252e-03  1.866303e-06
    621    643   2   0.50000    -0.1200000    0.0600000   2.494471e-04  1.671101e-07
    621    644   2   0.50000    -0.1200000    0.0600000   2.494471e-04  1.671101e-07
    641    624   2   0.50000     0.0600000    0.0800000   2.494471e-04  1.671101e-07
    641    643   2   0.50000     0.0600000    0.0600000   6.128906e-05  1.496315e-08
    641    644   2   0.50000     0.0600000    0.0600000   6.128906e-05  1.496315e-08
    642    624   2   0.50000     0.0600000    0.0800000   2.494471e-04  1.671101e-07
    642    643   2   0.50000     0.0600000    0.0600000   6.128906e-05  1.496315e-08
    642    644   2   0.50000     0.0600000    0.0600000   6.128906e-05  1.496315e-08
    622    625   2   0.50000    -0.1200000   -0.5000000   1.304585e-03  1.920112e-06
    622    645   2   0.50000    -0.1200000    0.0600000   2.494471e-04  1.671101e-07
    622    646   2   0.50000    -0.1200000    0.0600000   2.494471e-04  1.671101e-07
    643    625   2   0.50000     0.0600000   -0.5000000   3.205360e-04  1.719281e-07
    643    645   2   0.50000     0.0600000    0.0600000   6.128906e-05  1.496315e-08
    643    646   2   0.50000     0.0600000    0.0600000   6.128906e-05  1.496315e-08
    644    625   2   0.50000     0.0600000   -0.5000000   3.205360e-04  1.719281e-07
    644    645   2   0.50000     0.0600000    0.0600000   6.128906e-05  1.496315e-08
    644    646   2   0.50000     0.0600000    0.0600000   6.128906e-05  1.496315e-08
    623    647   2   0.50000    -0.1200000    0.3000000   1.995577e-06  1.069504e-11
    623    648   2   0.50000    -0.1200000    0.5000000   1.575021e-03  3.561100e-06
    645    647   2   0.50000     0.0600000    0.3000000   4.903125e-07  9.576416e-13
    645    648   2   0.50000     0.0600000    0.5000000   3.869820e-04  3.188634e-07
    646    647   2   0.50000     0.0600000    0.3000000   4.903125e-07  9.576416e-13
    646    648   2   0.50000     0.0600000    0.5000000   3.869820e-04  3.188634e-07
    624    649   2   0.50000     0.0800000   -0.5000000   1.095425e-03  1.218041e-06
    624    650   2   0.50000     0.0800000   -0.1200000   1.015252e-03  1.866303e-06
    647    649   2   0.50000     0.3000000   -0.5000000   2.153164e-06  6.980110e-12
    647    650   2   0.50000     0.3000000   -0.1200000   1.995577e-06  1.069504e-11
    625    651   2   0.50000    -0.5000000   -0.1200000   1.304585e-03  1.920112e-06
    625    664   2   0.50000    -0.5000000    0.0600000   3.205360e-04  1.719281e-07
    625    665   2   0.50000    -0.5000000    0.0600000   3.205360e-04  1.719281e-07
    649    651   2   0.50000    -0.5000000   -0.1200000   1.095425e-03  1.218041e-06
    649    664   2   0.50000    -0.5000000    0.0600000   2.691455e-04  1.090642e-07
    649    665   2   0.50000    -0.5000000    0.0600000   2.691455e-04  1.090642e-07
    648    652   2   0.50000     0.5000000   -0.1200000   1.575021e-03  3.561100e-06
    648    666   2   0.50000     0.5000000    0.0600000   3.869820e-04  3.188634e-07
    648    667   2   0.50000     0.5000000    0.0600000   3.869820e-04  3.188634e-07
    664    652   2   0.50000     0.0600000   -0.1200000   2.494471e-04  1.671101e-07
    664    666   2   0.50000     0.0600000    0.0600000   6.128906e-05  1.496315e-08
    664    667   2   0.50000     0.0600000    0.0600000   6.128906e-05  1.496315e-08
    665    652   2   0.50000     0.0600000   -0.1200000   2.494471e-04  1.671101e-07
    665    666   2   0.50000     0.0600000    0.0600000   6.128906e-05  1.496315e-08
    665    667   2   0.50000     0.0600000    0.0600000   6.128906e-05  1.496315e-08
    650    653   2   0.50000    -0.1200000   -0.1200000   1.015252e-03  1.866303e-06
    650    668   2   0.50000    -0.1200000    0.0600000   2.494471e-04  1.671101e-07
    650    669   2   0.50000    -0.1200000    0.0600000   2.494471e-04  1.671101e-07
    666    653   2   0.50000     0.0600000   -0.1200000   2.494471e-04  1.671101e-07
    666    668   2   0.50000     0.0600000    0.0600000   6.128906e-05  1.496315e-08
    666    669   2   0.50000     0.0600000    0.0600000   6.128906e-05  1.496315e-08
    667    653   2   0.50000     0.0600000   -0.1200000   2.494471e-04  1.671101e-07
    667    668   2   0.50000     0.0600000    0.0600000   6.128906e-05  1.496315e-08
    667    669   2   0.50000     0.0600000    0.0600000   6.128906e-05  1.496315e-08
    651    654   2   0.50000    -0.1200000    0.5000000   1.575021e-03  3.561100e-06
    651    670   2   0.50000    -0.1200000    0.0600000   2.494471e-04  1.671101e-07
    651    671   2   0.50000    -0.1200000    0.0600000   2.494471e-04  1.671101e-07
    668    654   2   0.50000     0.0600000    0.5000000   3.869820e-04  3.188634e-07
    668    670   2   0.50000     0.0600000    0.0600000   6.128906e-05  1.496315e-08
    668    671   2   0.50000     0.0600000    0.0600000   6.128906e-05  1.496315e-08
    669    654   2   0.50000     0.0600000    0.5000000   3.869820e-04  3.188634e-07
    669    670   2   0.50000     0.0600000    0.0600000   6.128906e-05  1.496315e-08
    669    671   2   0.50000     0.0600000    0.0600000   6.128906e-05  1.496315e-08
    652    655   2   0.50000    -0.1200000   -0.5000000   1.095425e-03  1.218041e-06
    652    656   2   0.50000    -0.1200000   -0.5000000   1.304585e-03  1.920112e-06
    670    655   2   0.50000     0.0600000   -0.5000000   2.691455e-04  1.090642e-07
    670    656   2   0.50000     0.0600000   -0.5000000   3.205360e-04  1.719281e-07
    671    655   2   0.50000     0.0600000   -0.5000000   2.691455e-04  1.090642e-07
    671    656   2   0.50000     0.0600000   -0.5000000   3.205360e-04  1.719281e-07
    653    657   2   0.50000    -0.1200000    0.0800000   1.015252e-03  1.866303e-06
    653    672   2   0.50000    -0.1200000    0.3000000   1.995577e-06  1.069504e-11
    655    657   2   0.50000    -0.5000000    0.0800000   1.095425e-03  1.218041e-06
    655    672   2   0.50000    -0.5000000    0.3000000   2.153164e-06  6.980110e-12
    654    658   2   0.50000     0.5000000   -0.1200000   1.575021e-03  3.561100e-06
    654    673   2   0.50000     0.5000000    0.0600000   3.869820e-04  3.188634e-07
    654    674   2   0.50000     0.5000000    0.0600000   3.869820e-04  3.188634e-07
    672    658   2   0.50000     0.3000000   -0.1200000   1.995577e-06  1.069504e-11
    672    673   2   0.50000     0.3000000    0.0600000   4.903125e-07  9.576416e-13
    672    674   2   0.50000     0.3000000    0.0600000   4.903125e-07  9.576416e-13
    656    659   2   0.50000    -0.5000000   -0.1200000   1.304585e-03  1.920112e-06
    656    675   2   0.50000    -0.5000000    0.0600000   3.205360e-04  1.719281e-07
    656    676   2   0.50000    -0.5000000    0.0600000   3.205360e-04  1.719281e-07
    673    659   2   0.50000     0.0600000   -0.1200000   2.494471e-04  1.671101e-07
    673    675   2   0.50000     0.0600000    0.0600000   6.128906e-05  1.496315e-08
    673    676   2   0.50000     0.0600000    0.0600000   6.128906e-05  1.496315e-08
    674    659   2   0.50000     0.0600000   -0.1200000   2.494471e-04  1.671101e-07
    674    675   2   0.50000     0.0600000    0.0600000   6.128906e-05  1.496315e-08
    674    676   2   0.50000     0.0600000    0.0600000   6.128906e-05  1.496315e-08
    657    660   2   0.50000     0.0800000   -0.1200000   1.015252e-03  1.866303e-06
    657    677   2   0.50000     0.0800000    0.0600000   2.494471e-04  1.671101e-07
    657    678   2   0.50000     0.0800000    0.0600000   2.494471e-04  1.671101e-07
    675    660   2   0.50000     0.0600000   -0.1200000   2.494471e-04  1.671101e-07
    675    677   2   0.50000     0.0600000    0.0600000   6.128906e-05  1.496315e-08
    675    678   2   0.50000     0.0600000    0.0600000   6.128906e-05  1.496315e-08
    676    660   2   0.50000     0.0600000   -0.1200000   2.494471e-04  1.671101e-07
    676    677   2   0.50000     0.0600000    0.0600000   6.128906e-05  1.496315e-08
    676    678   2   0.50000     0.0600000    0.0600000   6.128906e-05  1.496315e-08
    658    661   2   0.50000    -0.1200000   -0.1200000   1.015252e-03  1.866303e-06
    658    679   2   0.50000    -0.1200000    0.0600000   2.494471e-04  1.671101e-07
    658    680   2   0.50000    -0.1200000    0.0600000   2.494471e-04  1.671101e-07
    677    661   2   0.50000     0.0600000   -0.1200000   2.494471e-04  1.671101e-07
    677    679   2   0.50000     0.0600000    0.0600000   6.128906e-05  1.496315e-08
    677    680   2   0.50000     0.0600000    0.0600000   6.128906e-05  1.496315e-08
    678    661   2   0.50000     0.0600000   -0.1200000   2.494471e-04  1.671101e-07
    678    679   2   0.50000     0.0600000    0.0600000   6.128906e-05  1.496315e-08
    678    680   2   0.50000     0.0600000    0.0600000   6.128906e-05  1.496315e-08
    659    662   2   0.50000    -0.1200000    0.0800000   1.015252e-03  1.866303e-06
    659    681   2   0.50000    -0.1200000    0.0600000   2.494471e-04  1.671101e-07
    659    682   2   0.50000    -0.1200000    0.0600000   2.494471e-04  1.671101e-07
    679    662   2   0.50000     0.0600000    0.0800000   2.494471e-04  1.671101e-07
    679    681   2   0.50000     0.0600000    0.0600000   6.128906e-05  1.496315e-08
    679    682   2   0.50000     0.0600000    0.0600000   6.128906e-05  1.496315e-08
    680    662   2   0.50000     0.0600000    0.0800000   2.494471e-04  1.671101e-07
    680    681   2   0.50000     0.0600000    0.0600000   6.128906e-05  1.496315e-08
    680    682   2   0.50000     0.0600000    0.0600000   6.128906e-05  1.496315e-08
    660    663   2   0.50000    -0.1200000   -0.5000000   1.304585e-03  1.920112e-06
    660    683   2   0.50000    -0.1200000    0.0600000   2.494471e-04  1.671101e-07
    660    684   2   0.50000    -0.1200000    0.0600000   2.494471e-04  1.671101e-07
    681    663   2   0.50000     0.0600000   -0.5000000   3.205360e-04  1.719281e-07
    681    683   2   0.50000     0.0600000    0.0600000   6.128906e-05  1.496315e-08
    681    684   2   0.50000     0.0600000    0.0600000   6.128906e-05  1.496315e-08
    682    663   2   0.50000     0.0600000   -0.5000000   3.205360e-04  1.719281e-07
    682    683   2   0.50000     0.0600000    0.0600000   6.128906e-05  1.496315e-08
    682    684   2   0.50000     0.0600000    0.0600000   6.128906e-05  1.496315e-08
    661    685   2   0.50000    -0.1200000    0.3000000   1.995577e-06  1.069504e-11
    661    686   2   0.50000    -0.1200000    0.5000000   1.575021e-03  3.561100e-06
    683    685   2   0.50000     0.0600000    0.3000000   4.903125e-07  9.576416e-13
    683    686   2   0.50000     0.0600000    0.5000000   3.869820e-04  3.188634e-07
    684    685   2   0.50000     0.0600000    0.3000000   4.903125e-07  9.576416e-13
    684    686   2   0.50000     0.0600000    0.5000000   3.869820e-04  3.188634e-07
    662    687   2   0.50000     0.0800000   -0.5000000   1.095425e-03  1.218041e-06
    662    688   2   0.50000     0.0800000   -0.1200000   1.015252e-03  1.866303e-06
    685    687   2   0.50000     0.3000000   -0.5000000   2.153164e-06  6.980110e-12
    685    688   2   0.50000     0.3000000   -0.1200000   1.995577e-06  1.069504e-11
    663    689   2   0.50000    -0.5000000   -0.1200000   1.304585e-03  1.920112e-06
    663    702   2   0.50000    -0.5000000    0.0600000   3.205360e-04  1.719281e-07
    663    703   2   0.50000    -0.5000000    0.0600000   3.205360e-04  1.719281e-07
    687    689   2   0.50000    -0.5000000   -0.1200000   1.095425e-03  1.218041e-06
    687    702   2   0.50000    -0.5000000    0.0600000   2.691455e-04  1.090642e-07
    687    703   2   0.50000    -0.5000000    0.0600000   2.691455e-04  1.090642e-07
    686    690   2   0.50000     0.5000000   -0.1200000   1.575021e-03  3.561100e-06
    686    704   2   0.50000     0.5000000    0.0600000   3.869820e-04  3.188634e-07
    686    705   2   0.50000     0.5000000    0.0600000   3.869820e-04  3.188634e-07
    702    690   2   0.50000     0.0600000   -0.1200000   2.494471e-04  1.671101e-07
    702    704   2   0.50000     0.0600000    0.0600000   6.128906e-05  1.496315e-08
    702    705   2   0.50000     0.0600000    0.0600000   6.128906e-05  1.496315e-08
    703    690   2   0.50000     0.0600000   -0.1200000   2.494471e-04  1.671101e-07
    703    704   2   0.50000     0.0600000    0.0600000   6.128906e-05  1.496315e-08
    703    705   2   0.50000     0.0600000    0.0600000   6.128906e-05  1.496315e-08
    688    691   2   0.50000    -0.1200000   -0.1200000   1.015252e-03  1.866303e-06
    688    706   2   0.50000    -0.1200000    0.0600000   2.494471e-04  1.671101e-07
    688    707   2   0.50000    -0.1200000    0.0600000   2.494471e-04  1.671101e-07
    704    691   2   0.50000     0.0600000   -0.1200000   2.494471e-04  1.671101e-07
    704    706   2   0.50000     0.0600000    0.0600000   6.128906e-05  1.496315e-08
    704    707   2   0.50000     0.0600000    0.0600000   6.128906e-05  1.496315e-08
    705    691   2   0.50000     0.0600000   -0.1200000   2.494471e-04  1.671101e-07
    705    706   2   0.50000     0.0600000    0.0600000   6.128906e-05  1.496315e-08
    705    707   2   0.50000     0.0600000    0.0600000   6.128906e-05  1.496315e-08
    689    692   2   0.50000    -0.1200000    0.5000000   1.575021e-03  3.561100e-06
    689    708   2   0.50000    -0.1200000    0.0600000   2.494471e-04  1.671101e-07
    689    709   2   0.50000    -0.1200000    0.0600000   2.494471e-04  1.671101e-07
    706    692   2   0.50000     0.0600000    0.5000000   3.869820e-04  3.188634e-07
    706    708   2   0.50000     0.0600000    0.0600000   6.128906e-05  1.496315e-08
    706    709   2   0.50000     0.0600000    0.0600000   6.128906e-05  1.496315e-08
    707    692   2   0.50000     0.0600000    0.5000000   3.869820e-04  3.188634e-07
    707    708   2   0.50000     0.0600000    0.0600000   6.128906e-05  1.496315e-08
    707    709   2   0.50000     0.0600000    0.0600000   6.128906e-05  1.496315e-08
    690    693   2   0.50000    -0.1200000   -0.5000000   1.095425e-03  1.218041e-06
    690    694   2   0.50000    -0.1200000   -0.5000000   1.304585e-03  1.920112e-06
    708    693   2   0.50000     0.0600000   -0.5000000   2.691455e-04  1.090642e-07
    708    694   2   0.50000     0.0600000   -0.5000000   3.205360e-04  1.719281e-07
    709    693   2   0.50000     0.0600000   -0.5000000   2.691455e-04  1.090642e-07
    709    694   2   0.50000     0.0600000   -0.5000000   3.205360e-04  1.719281e-07
    691    695   2   0.50000    -0.1200000    0.0800000   1.015252e-03  1.866303e-06
    691    710   2   0.50000    -0.1200000    0.3000000   1.995577e-06  1.069504e-11
    693    695   2   0.50000    -0.5000000    0.0800000   1.095425e-03  1.218041e-06
    693    710   2   0.50000    -0.5000000    0.3000000   2.153164e-06  6.980110e-12
    692    696   2   0.50000     0.5000000   -0.1200000   1.575021e-03  3.561100e-06
    692    711   2   0.50000     0.5000000    0.0600000   3.869820e-04  3.188634e-07
    692    712   2   0.50000     0.5000000    0.0600000   3.869820e-04  3.188634e-07
    710    696   2   0.50000     0.3000000   -0.1200000   1.995577e-06  1.069504e-11
    710    711   2   0.50000     0.3000000    0.0600000   4.903125e-07  9.576416e-13
    710    712   2   0.50000     0.3000000    0.0600000   4.903125e-07  9.576416e-13
    694    697   2   0.50000    -0.5000000   -0.1200000   1.304585e-03  1.920112e-06
    694    713   2   0.50000    -0.5000000    0.0600000   3.205360e-04  1.719281e-07
    694    714   2   0.50000    -0.5000000    0.0600000   3.205360e-04  1.719281e-07
    711    697   2   0.50000     0.0600000   -0.1200000   2.494471e-04  1.671101e-07
    711    713   2   0.50000     0.0600000    0.0600000   6.128906e-05  1.496315e-08
    711    714   2   0.50000     0.0600000    0.0600000   6.128906e-05  1.496315e-08
    712    697   2   0.50000     0.0600000   -0.1200000   2.494471e-04  1.671101e-07
    712    713   2   0.50000     0.0600000    0.0600000   6.128906e-05  1.496315e-08
    712    714   2   0.50000     0.0600000    0.0600000   6.128906e-05  1.496315e-08
    695    698   2   0.50000     0.0800000   -0.1200000   1.015252e-03  1.866303e-06
    695    715   2   0.50000     0.0800000    0.0600000   2.494471e-04  1.671101e-07
    695    716   2   0.50000     0.0800000    0.0600000   2.494471e-04  1.671101e-07
    713    698   2   0.50000     0.0600000   -0.1200000   2.494471e-04  1.671101e-07
    713    715   2   0.50000     0.0600000    0.0600000   6.128906e-05  1.496315e-08
    713    716   2   0.50000     0.0600000    0.0600000   6.128906e-05  1.496315e-08
    714    698   2   0.50000     0.0600000   -0.1200000   2.494471e-04  1.671101e-07
    714    715   2   0.50000     0.0600000    0.0600000   6.128906e-05  1.496315e-08
    714    716   2   0.50000     0.0600000    0.0600000   6.128906e-05  1.496315e-08
    696    699   2   0.50000    -0.1200000   -0.1200000   1.015252e-03  1.866303e-06
    696    717   2   0.50000    -0.1200000    0.0600000   2.494471e-04  1.671101e-07
    696    718   2   0.50000    -0.1200000    0.0600000   2.494471e-04  1.671101e-07
    715    699   2   0.50000     0.0600000   -0.1200000   2.494471e-04  1.671101e-07
    715    717   2   0.50000     0.0600000    0.0600000   6.128906e-05  1.496315e-08
    715    718   2   0.50000     0.0600000    0.0600000   6.128906e-05  1.496315e-08
    716    699   2   0.50000     0.0600000   -0.1200000   2.494471e-04  1.671101e-07
    716    717   2   0.50000     0.0600000    0.0600000   6.128906e-05  1.496315e-08
    716    718   2   0.50000     0.0600000    0.0600000   6.128906e-05  1.496315e-08
    697    700   2   0.50000    -0.1200000    0.0800000   1.015252e-03  1.866303e-06
    697    719   2   0.50000    -0.1200000    0.0600000   2.494471e-04  1.671101e-07
    697    720   2   0.50000    -0.1200000    0.0600000   2.494471e-04  1.671101e-07
    717    700   2   0.50000     0.0600000    0.0800000   2.494471e-04  1.671101e-07
    717    719   2   0.50000     0.0600000    0.0600000   6.128906e-05  1.496315e-08
    717    720   2   0.50000     0.0600000    0.0600000   6.128906e-05  1.496315e-08
    718    700   2   0.50000     0.0600000    0.0800000   2.494471e-04  1.671101e-07
    718    719   2   0.50000     0.0600000    0.0600000   6.128906e-05  1.496315e-08
    718    720   2   0.50000     0.0600000    0.0600000   6.128906e-05  1.496315e-08
    698    701   2   0.50000    -0.1200000   -0.5000000   1.304585e-03  1.920112e-06
    698    721   2   0.50000    -0.1200000    0.0600000   2.494471e-04  1.671101e-07
    698    722   2   0.50000    -0.1200000    0.0600000   2.494471e-04  1.671101e-07
    719    701   2   0.50000     0.0600000   -0.5000000   3.205360e-04  1.719281e-07
    719    721   2   0.50000     0.0600000    0.0600000   6.128906e-05  1.496315e-08
    719    722   2   0.50000     0.0600000    0.0600000   6.128906e-05  1.496315e-08
    720    701   2   0.50000     0.0600000   -0.5000000   3.205360e-04  1.719281e-07
    720    721   2   0.50000     0.0600000    0.0600000   6.128906e-05  1.496315e-08
    720    722   2   0.50000     0.0600000    0.0600000   6.128906e-05  1.496315e-08
    699    723   2   0.50000    -0.1200000    0.3000000   1.995577e-06  1.069504e-11
    699    724   2   0.50000    -0.1200000    0.5000000   1.575021e-03  3.561100e-06
    721    723   2   0.50000     0.0600000    0.3000000   4.903125e-07  9.576416e-13
    721    724   2   0.50000     0.0600000    0.5000000   3.869820e-04  3.188634e-07
    722    723   2   0.50000     0.0600000    0.3000000   4.903125e-07  9.576416e-13
    722    724   2   0.50000     0.0600000    0.5000000   3.869820e-04  3.188634e-07
    700    725   2   0.50000     0.0800000   -0.5000000   1.095425e-03  1.218041e-06
    700    726   2   0.50000     0.0800000   -0.1200000   1.015252e-03  1.866303e-06
    723    725   2   0.50000     0.3000000   -0.5000000   2.153164e-06  6.980110e-12
    723    726   2   0.50000     0.3000000   -0.1200000   1.995577e-06  1.069504e-11
    701    727   2   0.50000    -0.5000000   -0.1200000   1.304585e-03  1.920112e-06
    701    740   2   0.50000    -0.5000000    0.0600000   3.205360e-04  1.719281e-07
    701    741   2   0.50000    -0.5000000    0.0600000   3.205360e-04  1.719281e-07
    725    727   2   0.50000    -0.5000000   -0.1200000   1.095425e-03  1.218041e-06
    725    740   2   0.50000    -0.5000000    0.0600000   2.691455e-04  1.090642e-07
    725    741   2   0.50000    -0.5000000    0.0600000   2.691455e-04  1.090642e-07
    724    728   2   0.50000     0.5000000   -0.1200000   1.575021e-03  3.561100e-06
    724    742   2   0.50000     0.5000000    0.0600000   3.869820e-04  3.188634e-07
    724    743   2   0.50000     0.5000000    0.0600000   3.869820e-04  3.188634e-07
    740    728   2   0.50000     0.0600000   -0.1200000   2.494471e-04  1.671101e-07
    740    742   2   0.50000     0.0600000    0.0600000   6.128906e-05  1.496315e-08
    740    743   2   0.50000     0.0600000    0.0600000   6.128906e-05  1.496315e-08
    741    728   2   0.50000     0.0600000   -0.1200000   2.494471e-04  1.671101e-07
    741    742   2   0.50000     0.0600000    0.0600000   6.128906e-05  1.496315e-08
    741    743   2   0.50000     0.0600000    0.0600000   6.128906e-05  1.496315e-08
    726    729   2   0.50000    -0.1200000   -0.1200000   1.015252e-03  1.866303e-06
    726    744   2   0.50000    -0.1200000    0.0600000   2.494471e-04  1.671101e-07
    726    745   2   0.50000    -0.1200000    0.0600000   2.494471e-04  1.671101e-07
    742    729   2   0.50000     0.0600000   -0.1200000   2.494471e-04  1.671101e-07
    742    744   2   0.50000     0.0600000    0.0600000   6.128906e-05  1.496315e-08
    742    745   2   0.50000     0.0600000    0.0600000   6.128906e-05  1.496315e-08
    743    729   2   0.50000     0.0600000   -0.1200000   2.494471e-04  1.671101e-07
    743    744   2   0.50000     0.0600000    0.0600000   6.128906e-05  1.496315e-08
    743    745   2   0.50000     0.0600000    0.0600000   6.128906e-05  1.496315e-08
    727    730   2   0.50000    -0.1200000    0.5000000   1.575021e-03  3.561100e-06
    727    746   2   0.50000    -0.1200000    0.0600000   2.494471e-04  1.671101e-07
    727    747   2   0.50000    -0.1200000    0.0600000   2.494471e-04  1.671101e-07
    744    730   2   0.50000     0.0600000    0.5000000   3.869820e-04  3.188634e-07
    744    746   2   0.50000     0.0600000    0.0600000   6.128906e-05  1.496315e-08
    744    747   2   0.50000     0.0600000    0.0600000   6.128906e-05  1.496315e-08
    745    730   2   0.50000     0.0600000    0.5000000   3.869820e-04  3.188634e-07
    745    746   2   0.50000     0.0600000    0.0600000   6.128906e-05  1.496315e-08
    745    747   2   0.50000     0.0600000    0.0600000   6.128906e-05  1.496315e-08
    728    731   2   0.50000    -0.1200000   -0.5000000   1.095425e-03  1.218041e-06
    728    732   2   0.50000    -0.1200000   -0.5000000   1.304585e-03  1.920112e-06
    746    731   2   0.50000     0.0600000   -0.5000000   2.691455e-04  1.090642e-07
    746    732   2   0.50000     0.0600000   -0.5000000   3.205360e-04  1.719281e-07
    747    731   2   0.50000     0.0600000   -0.5000000   2.691455e-04  1.090642e-07
    747    732   2   0.50000     0.0600000   -0.5000000   3.205360e-04  1.719281e-07
    729    733   2   0.50000    -0.1200000    0.0800000   1.015252e-03  1.866303e-06
    729    748   2   0.50000    -0.1200000    0.3000000   1.995577e-06  1.069504e-11
    731    733   2   0.50000    -0.5000000    0.0800000   1.095425e-03  1.218041e-06
    731    748   2   0.50000    -0.5000000    0.3000000   2.153164e-06  6.980110e-12
    730    734   2   0.50000     0.5000000   -0.1200000   1.575021e-03  3.561100e-06
    730    749   2   0.50000     0.5000000    0.0600000   3.869820e-04  3.188634e-07
    730    750   2   0.50000     0.5000000    0.0600000   3.869820e-04  3.188634e-07
    748    734   2   0.50000     0.3000000   -0.1200000   1.995577e-06  1.069504e-11
    748    749   2   0.50000     0.3000000    0.0600000   4.903125e-07  9.576416e-13
    748    750   2   0.50000     0.3000000    0.0600000   4.903125e-07  9.576416e-13
    732    735   2   0.50000    -0.5000000   -0.1200000   1.304585e-03  1.920112e-06
    732    751   2   0.50000    -0.5000000    0.0600000   3.205360e-04  1.719281e-07
    732    752   2   0.50000    -0.5000000    0.0600000   3.205360e-04  1.719281e-07
    749    735   2   0.50000     0.0600000   -0.1200000   2.494471e-04  1.671101e-07
    749    751   2   0.50000     0.0600000    0.0600000   6.128906e-05  1.496315e-08
    749    752   2   0.50000     0.0600000    0.0600000   6.128906e-05  1.496315e-08
    750    735   2   0.50000     0.0600000   -0.1200000   2.494471e-04  1.671101e-07
    750    751   2   0.50000     0.0600000    0.0600000   6.128906e-05  1.496315e-08
    750    752   2   0.50000     0.0600000    0.0600000   6.128906e-05  1.496315e-08
    733    736   2   0.50000     0.0800000   -0.1200000   1.015252e-03  1.866303e-06
    733    753   2   0.50000     0.0800000    0.0600000   2.494471e-04  1.671101e-07
    733    754   2   0.50000     0.0800000    0.0600000   2.494471e-04  1.671101e-07
    751    736   2   0.50000     0.0600000   -0.1200000   2.494471e-04  1.671101e-07
    751    753   2   0.50000     0.0600000    0.0600000   6.128906e-05  1.496315e-08
    751    754   2   0.50000     0.0600000    0.0600000   6.128906e-05  1.496315e-08
    752    736   2   0.50000     0.0600000   -0.1200000   2.494471e-04  1.671101e-07
    752    753   2   0.50000     0.0600000    0.0600000   6.128906e-05  1.496315e-08
    752    754   2   0.50000     0.0600000    0.0600000   6.128906e-05  1.496315e-08
    734    737   2   0.50000    -0.1200000   -0.1200000   1.015252e-03  1.866303e-06
    734    755   2   0.50000    -0.1200000    0.0600000   2.494471e-04  1.671101e-07
    734    756   2   0.50000    -0.1200000    0.0600000   2.494471e-04  1.671101e-07
    753    737   2   0.50000     0.0600000   -0.1200000   2.494471e-04  1.671101e-07
    753    755   2   0.50000     0.0600000    0.0600000   6.128906e-05  1.496315e-08
    753    756   2   0.50000     0.0600000    0.0600000   6.128906e-05  1.496315e-08
    754    737   2   0.50000     0.0600000   -0.1200000   2.494471e-04  1.671101e-07
    754    755   2   0.50000     0.0600000    0.0600000   6.128906e-05  1.496315e-08
    754    756   2   0.50000     0.0600000    0.0600000   6.128906e-05  1.496315e-08
    735    738   2   0.50000    -0.1200000    0.0600000   1.015252e-03  1.866303e-06
    735    757   2   0.50000    -0.1200000    0.0600000   2.494471e-04  1.671101e-07
    735    758   2   0.50000    -0.1200000    0.0600000   2.494471e-04  1.671101e-07
    755    738   2   0.50000     0.0600000    0.0600000   2.494471e-04  1.671101e-07
    755    757   2   0.50000     0.0600000    0.0600000   6.128906e-05  1.496315e-08
    755    758   2   0.50000     0.0600000    0.0600000   6.128906e-05  1.496315e-08
    756    738   2   0.50000     0.0600000    0.0600000   2.494471e-04  1.671101e-07
    756    757   2   0.50000     0.0600000    0.0600000   6.128906e-05  1.496315e-08
    756    758   2   0.50000     0.0600000    0.0600000   6.128906e-05  1.496315e-08
    736    739   2   0.50000    -0.1200000   -0.9000000   1.365727e-03  2.104311e-06
    736    759   2   0.50000    -0.1200000    0.0600000   1.763857e-04  1.181647e-07
    736    760   2   0.50000    -0.1200000    0.0600000   1.763857e-04  1.181647e-07
    757    739   2   0.50000     0.0600000   -0.9000000   3.355588e-04  1.884215e-07
    757    759   2   0.50000     0.0600000    0.0600000   4.333791e-05  1.058054e-08
    757    760   2   0.50000     0.0600000    0.0600000   4.333791e-05  1.058054e-08
    758    739   2   0.50000     0.0600000   -0.9000000   3.355588e-04  1.884215e-07
    758    759   2   0.50000     0.0600000    0.0600000   4.333791e-05  1.058054e-08
    758    760   2   0.50000     0.0600000    0.0600000   4.333791e-05  1.058054e-08
    737    761   2   0.50000    -0.1200000    0.3600000   1.995577e-06  1.069504e-11
    737    762   2   0.50000    -0.1200000    0.3600000   1.995577e-06  1.069504e-11
    759    761   2   0.50000     0.0600000    0.3600000   3.467033e-07  6.771549e-13
    759    762   2   0.50000     0.0600000    0.3600000   3.467033e-07  6.771549e-13
    760    761   2   0.50000     0.0600000    0.3600000   3.467033e-07  6.771549e-13
    760    762   2   0.50000     0.0600000    0.3600000   3.467033e-07  6.771549e-13

[ angles ]
; ai  aj  ak
      2      1      3   1    120.4000    669.4400
      2      1     39   1    123.0000    292.8800
      3      1     39   1    115.0000    292.8800
      1      3      4   1    111.1000    527.1840
      1      3     17   1    109.5000    292.8800
      1      3     18   1    109.5000    292.8800
      4      3     17   1    110.7000    313.8000
      4      3     18   1    110.7000    313.8000
     17      3     18   1    107.8000    276.1440
      3      4      5   1    112.7000    488.2728
      3      4     19   1    110.7000    313.8000
      3      4     20   1    110.7000    313.8000
      5      4     19   1    110.7000    313.8000
      5      4     20   1    110.7000    313.8000
     19      4     20   1    107.8000    276.1440
      4      5      6   1    112.7000    488.2728
      4      5     21   1    110.7000    313.8000
      4      5     22   1    110.7000    313.8000
      6      5     21   1    110.7000    313.8000
      6      5     22   1    110.7000    313.8000
     21      5     22   1    107.8000    276.1440
      5      6      7   1    111.1000    527.1840
      5      6     23   1    110.7000    313.8000
      5      6     24   1    110.7000    313.8000
      7      6     23   1    109.5000    292.8800
      7      6     24   1    109.5000    292.8800
     23      6     24   1    107.8000    276.1440
      6      7      8   1    120.4000    669.4400
      6      7      9   1    116.6000    585.7600
      8      7      9   1    122.9000    669.4400
      7      9     10   1    121.9000    418.4000
      7      9     25   1    119.8000    292.8800
     10      9     25   1    118.4000    317.9840
      9     10     11   1    110.7230    585.7600
      9     10     26   1    109.5000    292.8800
      9     10     27   1    109.5000    292.8800
     11     10     26   1    110.7000    313.8000
     11     10     27   1    110.7000    313.8000
     26     10     27   1    107.8000    276.1440
     10     11     12   1    112.7000    488.2728
     10     11     28   1    110.7000    313.8000
     10     11     29   1    110.7000    313.8000
     12     11     28   1    110.7000    313.8000
     12     11     29   1    110.7000    313.8000
     28     11     29   1    107.8000    276.1440
     11     12     13   1    112.7000    488.2728
     11     12     30   1    110.7000    313.8000
     11     12     31   1    110.7000    313.8000
     13     12     30   1    110.7000    313.8000
     13     12     31   1    110.7000    313.8000
     30     12     31   1    107.8000    276.1440
     12     13     14   1    112.7000    488.2728
     12     13     32   1    110.7000    313.8000
     12     13     33   1    110.7000    313.8000
     14     13     32   1    110.7000    313.8000
     14     13     33   1    110.7000    313.8000
     32     13     33   1    107.8000    276.1440
     13     14     15   1    112.7000    488.2728
     13     14     34   1    110.7000    313.8000
     13     14     35   1    110.7000    313.8000
     15     14     34   1    110.7000    313.8000
     15     14     35   1    110.7000    313.8000
     34     14     35   1    107.8000    276.1440
     14     15     16   1    110.7230    585.7600
     14     15     36   1    110.7000    313.8000
     14     15     37   1    110.7000    313.8000
     16     15     36   1    109.5000    292.8800
     16     15     37   1    109.5000    292.8800
     36     15     37   1    107.8000    276.1440
     15     16     38   1    118.4000    317.9840
     15     16     40   1    121.9000    418.4000
     38     16     40   1    119.8000    292.8800
     16     40     41   1    122.9000    669.4400
     16     40     42   1    116.6000    585.7600
     41     40     42   1    120.4000    669.4400
     40     42     43   1    111.1000    527.1840
     40     42     56   1    109.5000    292.8800
     40     42     57   1    109.5000    292.8800
     43     42     56   1    110.7000    313.8000
     43     42     57   1    110.7000    313.8000
     56     42     57   1    107.8000    276.1440
     42     43     44   1    112.7000    488.2728
     42     43     58   1    110.7000    313.8000
     42     43     59   1    110.7000    313.8000
     44     43     58   1    110.7000    313.8000
     44     43     59   1    110.7000    313.8000
     58     43     59   1    107.8000    276.1440
     43     44     45   1    112.7000    488.2728
     43     44     60   1    110.7000    313.8000
     43     44     61   1    110.7000    313.8000
     45     44     60   1    110.7000    313.8000
     45     44     61   1    110.7000    313.8000
     60     44     61   1    107.8000    276.1440
     44     45     46   1    111.1000    527.1840
     44     45     62   1    110.7000    313.8000
     44     45     63   1    110.7000    313.8000
     46     45     62   1    109.5000    292.8800
     46     45     63   1    109.5000    292.8800
     62     45     63   1    107.8000    276.1440
     45     46     47   1    120.4000    669.4400
     45     46     48   1    116.6000    585.7600
     47     46     48   1    122.9000    669.4400
     46     48     49   1    121.9000    418.4000
     46     48     64   1    119.8000    292.8800
     49     48     64   1    118.4000    317.9840
     48     49     50   1    110.7230    585.7600
     48     49     65   1    109.5000    292.8800
     48     49     66   1    109.5000    292.8800
     50     49     65   1    110.7000    313.8000
     50     49     66   1    110.7000    313.8000
     65     49     66   1    107.8000    276.1440
     49     50     51   1    112.7000    488.2728
     49     50     67   1    110.7000    313.8000
     49     50     68   1    110.7000    313.8000
     51     50     67   1    110.7000    313.8000
     51     50     68   1    110.7000    313.8000
     67     50     68   1    107.8000    276.1440
     50     51     52   1    112.7000    488.2728
     50     51     69   1    110.7000    313.8000
     50     51     70   1    110.7000    313.8000
     52     51     69   1    110.7000    313.8000
     52     51     70   1    110.7000    313.8000
     69     51     70   1    107.8000    276.1440
     51     52     53   1    112.7000    488.2728
     51     52     71   1    110.7000    313.8000
     51     52     72   1    110.7000    313.8000
     53     52     71   1    110.7000    313.8000
     53     52     72   1    110.7000    313.8000
     71     52     72   1    107.8000    276.1440
     52     53     54   1    112.7000    488.2728
     52     53     73   1    110.7000    313.8000
     52     53     74   1    110.7000    313.8000
     54     53     73   1    110.7000    313.8000
     54     53     74   1    110.7000    313.8000
     73     53     74   1    107.8000    276.1440
     53     54     55   1    110.7230    585.7600
     53     54     75   1    110.7000    313.8000
     53     54     76   1    110.7000    313.8000
     55     54     75   1    109.5000    292.8800
     55     54     76   1    109.5000    292.8800
     75     54     76   1    107.8000    276.1440
     54     55     77   1    118.4000    317.9840
     54     55     78   1    121.9000    418.4000
     77     55     78   1    119.8000    292.8800
     55     78     79   1    122.9000    669.4400
     55     78     80   1    116.6000    585.7600
     79     78     80   1    120.4000    669.4400
     78     80     81   1    111.1000    527.1840
     78     80     94   1    109.5000    292.8800
     78     80     95   1    109.5000    292.8800
     81     80     94   1    110.7000    313.8000
     81     80     95   1    110.7000    313.8000
     94     80     95   1    107.8000    276.1440
     80     81     82   1    112.7000    488.2728
     80     81     96   1    110.7000    313.8000
     80     81     97   1    110.7000    313.8000
     82     81     96   1    110.7000    313.8000
     82     81     97   1    110.7000    313.8000
     96     81     97   1    107.8000    276.1440
     81     82     83   1    112.7000    488.2728
     81     82     98   1    110.7000    313.8000
     81     82     99   1    110.7000    313.8000
     83     82     98   1    110.7000    313.8000
     83     82     99   1    110.7000    313.8000
     98     82     99   1    107.8000    276.1440
     82     83     84   1    111.1000    527.1840
     82     83    100   1    110.7000    313.8000
     82     83    101   1    110.7000    313.8000
     84     83    100   1    109.5000    292.8800
     84     83    101   1    109.5000    292.8800
    100     83    101   1    107.8000    276.1440
     83     84     85   1    120.4000    669.4400
     83     84     86   1    116.6000    585.7600
     85     84     86   1    122.9000    669.4400
     84     86     87   1    121.9000    418.4000
     84     86    102   1    119.8000    292.8800
     87     86    102   1    118.4000    317.9840
     86     87     88   1    110.7230    585.7600
     86     87    103   1    109.5000    292.8800
     86     87    104   1    109.5000    292.8800
     88     87    103   1    110.7000    313.8000
     88     87    104   1    110.7000    313.8000
    103     87    104   1    107.8000    276.1440
     87     88     89   1    112.7000    488.2728
     87     88    105   1    110.7000    313.8000
     87     88    106   1    110.7000    313.8000
     89     88    105   1    110.7000    313.8000
     89     88    106   1    110.7000    313.8000
    105     88    106   1    107.8000    276.1440
     88     89     90   1    112.7000    488.2728
     88     89    107   1    110.7000    313.8000
     88     89    108   1    110.7000    313.8000
     90     89    107   1    110.7000    313.8000
     90     89    108   1    110.7000    313.8000
    107     89    108   1    107.8000    276.1440
     89     90     91   1    112.7000    488.2728
     89     90    109   1    110.7000    313.8000
     89     90    110   1    110.7000    313.8000
     91     90    109   1    110.7000    313.8000
     91     90    110   1    110.7000    313.8000
    109     90    110   1    107.8000    276.1440
     90     91     92   1    112.7000    488.2728
     90     91    111   1    110.7000    313.8000
     90     91    112   1    110.7000    313.8000
     92     91    111   1    110.7000    313.8000
     92     91    112   1    110.7000    313.8000
    111     91    112   1    107.8000    276.1440
     91     92     93   1    110.7230    585.7600
     91     92    113   1    110.7000    313.8000
     91     92    114   1    110.7000    313.8000
     93     92    113   1    109.5000    292.8800
     93     92    114   1    109.5000    292.8800
    113     92    114   1    107.8000    276.1440
     92     93    115   1    118.4000    317.9840
     92     93    116   1    121.9000    418.4000
    115     93    116   1    119.8000    292.8800
     93    116    117   1    122.9000    669.4400
     93    116    118   1    116.6000    585.7600
    117    116    118   1    120.4000    669.4400
    116    118    119   1    111.1000    527.1840
    116    118    132   1    109.5000    292.8800
    116    118    133   1    109.5000    292.8800
    119    118    132   1    110.7000    313.8000
    119    118    133   1    110.7000    313.8000
    132    118    133   1    107.8000    276.1440
    118    119    120   1    112.7000    488.2728
    118    119    134   1    110.7000    313.8000
    118    119    135   1    110.7000    313.8000
    120    119    134   1    110.7000    313.8000
    120    119    135   1    110.7000    313.8000
    134    119    135   1    107.8000    276.1440
    119    120    121   1    112.7000    488.2728
    119    120    136   1    110.7000    313.8000
    119    120    137   1    110.7000    313.8000
    121    120    136   1    110.7000    313.8000
    121    120    137   1    110.7000    313.8000
    136    120    137   1    107.8000    276.1440
    120    121    122   1    111.1000    527.1840
    120    121    138   1    110.7000    313.8000
    120    121    139   1    110.7000    313.8000
    122    121    138   1    109.5000    292.8800
    122    121    139   1    109.5000    292.8800
    138    121    139   1    107.8000    276.1440
    121    122    123   1    120.4000    669.4400
    121    122    124   1    116.6000    585.7600
    123    122    124   1    122.9000    669.4400
    122    124    125   1    121.9000    418.4000
    122    124    140   1    119.8000    292.8800
    125    124    140   1    118.4000    317.9840
    124    125    126   1    110.7230    585.7600
    124    125    141   1    109.5000    292.8800
    124    125    142   1    109.5000    292.8800
    126    125    141   1    110.7000    313.8000
    126    125    142   1    110.7000    313.8000
    141    125    142   1    107.8000    276.1440
    125    126    127   1    112.7000    488.2728
    125    126    143   1    110.7000    313.8000
    125    126    144   1    110.7000    313.8000
    127    126    143   1    110.7000    313.8000
    127    126    144   1    110.7000    313.8000
    143    126    144   1    107.8000    276.1440
    126    127    128   1    112.7000    488.2728
    126    127    145   1    110.7000    313.8000
    126    127    146   1    110.7000    313.8000
    128    127    145   1    110.7000    313.8000
    128    127    146   1    110.7000    313.8000
    145    127    146   1    107.8000    276.1440
    127    128    129   1    112.7000    488.2728
    127    128    147   1    110.7000    313.8000
    127    128    148   1    110.7000    313.8000
    129    128    147   1    110.7000    313.8000
    129    128    148   1    110.7000    313.8000
    147    128    148   1    107.8000    276.1440
    128    129    130   1    112.7000    488.2728
    128    129    149   1    110.7000    313.8000
    128    129    150   1    110.7000    313.8000
    130    129    149   1    110.7000    313.8000
    130    129    150   1    110.7000    313.8000
    149    129    150   1    107.8000    276.1440
    129    130    131   1    110.7230    585.7600
    129    130    151   1    110.7000    313.8000
    129    130    152   1    110.7000    313.8000
    131    130    151   1    109.5000    292.8800
    131    130    152   1    109.5000    292.8800
    151    130    152   1    107.8000    276.1440
    130    131    153   1    118.4000    317.9840
    130    131    154   1    121.9000    418.4000
    153    131    154   1    119.8000    292.8800
    131    154    155   1    122.9000    669.4400
    131    154    156   1    116.6000    585.7600
    155    154    156   1    120.4000    669.4400
    154    156    157   1    111.1000    527.1840
    154    156    170   1    109.5000    292.8800
    154    156    171   1    109.5000    292.8800
    157    156    170   1    110.7000    313.8000
    157    156    171   1    110.7000    313.8000
    170    156    171   1    107.8000    276.1440
    156    157    158   1    112.7000    488.2728
    156    157    172   1    110.7000    313.8000
    156    157    173   1    110.7000    313.8000
    158    157    172   1    110.7000    313.8000
    158    157    173   1    110.7000    313.8000
    172    157    173   1    107.8000    276.1440
    157    158    159   1    112.7000    488.2728
    157    158    174   1    110.7000    313.8000
    157    158    175   1    110.7000    313.8000
    159    158    174   1    110.7000    313.8000
    159    158    175   1    110.7000    313.8000
    174    158    175   1    107.8000    276.1440
    158    159    160   1    111.1000    527.1840
    158    159    176   1    110.7000    313.8000
    158    159    177   1    110.7000    313.8000
    160    159    176   1    109.5000    292.8800
    160    159    177   1    109.5000    292.8800
    176    159    177   1    107.8000    276.1440
    159    160    161   1    120.4000    669.4400
    159    160    162   1    116.6000    585.7600
    161    160    162   1    122.9000    669.4400
    160    162    163   1    121.9000    418.4000
    160    162    178   1    119.8000    292.8800
    163    162    178   1    118.4000    317.9840
    162    163    164   1    110.7230    585.7600
    162    163    179   1    109.5000    292.8800
    162    163    180   1    109.5000    292.8800
    164    163    179   1    110.7000    313.8000
    164    163    180   1    110.7000    313.8000
    179    163    180   1    107.8000    276.1440
    163    164    165   1    112.7000    488.2728
    163    164    181   1    110.7000    313.8000
    163    164    182   1    110.7000    313.8000
    165    164    181   1    110.7000    313.8000
    165    164    182   1    110.7000    313.8000
    181    164    182   1    107.8000    276.1440
    164    165    166   1    112.7000    488.2728
    164    165    183   1    110.7000    313.8000
    164    165    184   1    110.7000    313.8000
    166    165    183   1    110.7000    313.8000
    166    165    184   1    110.7000    313.8000
    183    165    184   1    107.8000    276.1440
    165    166    167   1    112.7000    488.2728
    165    166    185   1    110.7000    313.8000
    165    166    186   1    110.7000    313.8000
    167    166    185   1    110.7000    313.8000
    167    166    186   1    110.7000    313.8000
    185    166    186   1    107.8000    276.1440
    166    167    168   1    112.7000    488.2728
    166    167    187   1    110.7000    313.8000
    166    167    188   1    110.7000    313.8000
    168    167    187   1    110.7000    313.8000
    168    167    188   1    110.7000    313.8000
    187    167    188   1    107.8000    276.1440
    167    168    169   1    110.7230    585.7600
    167    168    189   1    110.7000    313.8000
    167    168    190   1    110.7000    313.8000
    169    168    189   1    109.5000    292.8800
    169    168    190   1    109.5000    292.8800
    189    168    190   1    107.8000    276.1440
    168    169    191   1    118.4000    317.9840
    168    169    192   1    121.9000    418.4000
    191    169    192   1    119.8000    292.8800
    169    192    193   1    122.9000    669.4400
    169    192    194   1    116.6000    585.7600
    193    192    194   1    120.4000    669.4400
    192    194    195   1    111.1000    527.1840
    192    194    208   1    109.5000    292.8800
    192    194    209   1    109.5000    292.8800
    195    194    208   1    110.7000    313.8000
    195    194    209   1    110.7000    313.8000
    208    194    209   1    107.8000    276.1440
    194    195    196   1    112.7000    488.2728
    194    195    210   1    110.7000    313.8000
    194    195    211   1    110.7000    313.8000
    196    195    210   1    110.7000    313.8000
    196    195    211   1    110.7000    313.8000
    210    195    211   1    107.8000    276.1440
    195    196    197   1    112.7000    488.2728
    195    196    212   1    110.7000    313.8000
    195    196    213   1    110.7000    313.8000
    197    196    212   1    110.7000    313.8000
    197    196    213   1    110.7000    313.8000
    212    196    213   1    107.8000    276.1440
    196    197    198   1    111.1000    527.1840
    196    197    214   1    110.7000    313.8000
    196    197    215   1    110.7000    313.8000
    198    197    214   1    109.5000    292.8800
    198    197    215   1    109.5000    292.8800
    214    197    215   1    107.8000    276.1440
    197    198    199   1    120.4000    669.4400
    197    198    200   1    116.6000    585.7600
    199    198    200   1    122.9000    669.4400
    198    200    201   1    121.9000    418.4000
    198    200    216   1    119.8000    292.8800
    201    200    216   1    118.4000    317.9840
    200    201    202   1    110.7230    585.7600
    200    201    217   1    109.5000    292.8800
    200    201    218   1    109.5000    292.8800
    202    201    217   1    110.7000    313.8000
    202    201    218   1    110.7000    313.8000
    217    201    218   1    107.8000    276.1440
    201    202    203   1    112.7000    488.2728
    201    202    219   1    110.7000    313.8000
    201    202    220   1    110.7000    313.8000
    203    202    219   1    110.7000    313.8000
    203    202    220   1    110.7000    313.8000
    219    202    220   1    107.8000    276.1440
    202    203    204   1    112.7000    488.2728
    202    203    221   1    110.7000    313.8000
    202    203    222   1    110.7000    313.8000
    204    203    221   1    110.7000    313.8000
    204    203    222   1    110.7000    313.8000
    221    203    222   1    107.8000    276.1440
    203    204    205   1    112.7000    488.2728
    203    204    223   1    110.7000    313.8000
    203    204    224   1    110.7000    313.8000
    205    204    223   1    110.7000    313.8000
    205    204    224   1    110.7000    313.8000
    223    204    224   1    107.8000    276.1440
    204    205    206   1    112.7000    488.2728
    204    205    225   1    110.7000    313.8000
    204    205    226   1    110.7000    313.8000
    206    205    225   1    110.7000    313.8000
    206    205    226   1    110.7000    313.8000
    225    205    226   1    107.8000    276.1440
    205    206    207   1    110.7230    585.7600
    205    206    227   1    110.7000    313.8000
    205    206    228   1    110.7000    313.8000
    207    206    227   1    109.5000    292.8800
    207    206    228   1    109.5000    292.8800
    227    206    228   1    107.8000    276.1440
    206    207    229   1    118.4000    317.9840
    206    207    230   1    121.9000    418.4000
    229    207    230   1    119.8000    292.8800
    207    230    231   1    122.9000    669.4400
    207    230    232   1    116.6000    585.7600
    231    230    232   1    120.4000    669.4400
    230    232    233   1    111.1000    527.1840
    230    232    246   1    109.5000    292.8800
    230    232    247   1    109.5000    292.8800
    233    232    246   1    110.7000    313.8000
    233    232    247   1    110.7000    313.8000
    246    232    247   1    107.8000    276.1440
    232    233    234   1    112.7000    488.2728
    232    233    248   1    110.7000    313.8000
    232    233    249   1    110.7000    313.8000
    234    233    248   1    110.7000    313.8000
    234    233    249   1    110.7000    313.8000
    248    233    249   1    107.8000    276.1440
    233    234    235   1    112.7000    488.2728
    233    234    250   1    110.7000    313.8000
    233    234    251   1    110.7000    313.8000
    235    234    250   1    110.7000    313.8000
    235    234    251   1    110.7000    313.8000
    250    234    251   1    107.8000    276.1440
    234    235    236   1    111.1000    527.1840
    234    235    252   1    110.7000    313.8000
    234    235    253   1    110.7000    313.8000
    236    235    252   1    109.5000    292.8800
    236    235    253   1    109.5000    292.8800
    252    235    253   1    107.8000    276.1440
    235    236    237   1    120.4000    669.4400
    235    236    238   1    116.6000    585.7600
    237    236    238   1    122.9000    669.4400
    236    238    239   1    121.9000    418.4000
    236    238    254   1    119.8000    292.8800
    239    238    254   1    118.4000    317.9840
    238    239    240   1    110.7230    585.7600
    238    239    255   1    109.5000    292.8800
    238    239    256   1    109.5000    292.8800
    240    239    255   1    110.7000    313.8000
    240    239    256   1    110.7000    313.8000
    255    239    256   1    107.8000    276.1440
    239    240    241   1    112.7000    488.2728
    239    240    257   1    110.7000    313.8000
    239    240    258   1    110.7000    313.8000
    241    240    257   1    110.7000    313.8000
    241    240    258   1    110.7000    313.8000
    257    240    258   1    107.8000    276.1440
    240    241    242   1    112.7000    488.2728
    240    241    259   1    110.7000    313.8000
    240    241    260   1    110.7000    313.8000
    242    241    259   1    110.7000    313.8000
    242    241    260   1    110.7000    313.8000
    259    241    260   1    107.8000    276.1440
    241    242    243   1    112.7000    488.2728
    241    242    261   1    110.7000    313.8000
    241    242    262   1    110.7000    313.8000
    243    242    261   1    110.7000    313.8000
    243    242    262   1    110.7000    313.8000
    261    242    262   1    107.8000    276.1440
    242    243    244   1    112.7000    488.2728
    242    243    263   1    110.7000    313.8000
    242    243    264   1    110.7000    313.8000
    244    243    263   1    110.7000    313.8000
    244    243    264   1    110.7000    313.8000
    263    243    264   1    107.8000    276.1440
    243    244    245   1    110.7230    585.7600
    243    244    265   1    110.7000    313.8000
    243    244    266   1    110.7000    313.8000
    245    244    265   1    109.5000    292.8800
    245    244    266   1    109.5000    292.8800
    265    244    266   1    107.8000    276.1440
    244    245    267   1    118.4000    317.9840
    244    245    268   1    121.9000    418.4000
    267    245    268   1    119.8000    292.8800
    245    268    269   1    122.9000    669.4400
    245    268    270   1    116.6000    585.7600
    269    268    270   1    120.4000    669.4400
    268    270    271   1    111.1000    527.1840
    268    270    284   1    109.5000    292.8800
    268    270    285   1    109.5000    292.8800
    271    270    284   1    110.7000    313.8000
    271    270    285   1    110.7000    313.8000
    284    270    285   1    107.8000    276.1440
    270    271    272   1    112.7000    488.2728
    270    271    286   1    110.7000    313.8000
    270    271    287   1    110.7000    313.8000
    272    271    286   1    110.7000    313.8000
    272    271    287   1    110.7000    313.8000
    286    271    287   1    107.8000    276.1440
    271    272    273   1    112.7000    488.2728
    271    272    288   1    110.7000    313.8000
    271    272    289   1    110.7000    313.8000
    273    272    288   1    110.7000    313.8000
    273    272    289   1    110.7000    313.8000
    288    272    289   1    107.8000    276.1440
    272    273    274   1    111.1000    527.1840
    272    273    290   1    110.7000    313.8000
    272    273    291   1    110.7000    313.8000
    274    273    290   1    109.5000    292.8800
    274    273    291   1    109.5000    292.8800
    290    273    291   1    107.8000    276.1440
    273    274    275   1    120.4000    669.4400
    273    274    276   1    116.6000    585.7600
    275    274    276   1    122.9000    669.4400
    274    276    277   1    121.9000    418.4000
    274    276    292   1    119.8000    292.8800
    277    276    292   1    118.4000    317.9840
    276    277    278   1    110.7230    585.7600
    276    277    293   1    109.5000    292.8800
    276    277    294   1    109.5000    292.8800
    278    277    293   1    110.7000    313.8000
    278    277    294   1    110.7000    313.8000
    293    277    294   1    107.8000    276.1440
    277    278    279   1    112.7000    488.2728
    277    278    295   1    110.7000    313.8000
    277    278    296   1    110.7000    313.8000
    279    278    295   1    110.7000    313.8000
    279    278    296   1    110.7000    313.8000
    295    278    296   1    107.8000    276.1440
    278    279    280   1    112.7000    488.2728
    278    279    297   1    110.7000    313.8000
    278    279    298   1    110.7000    313.8000
    280    279    297   1    110.7000    313.8000
    280    279    298   1    110.7000    313.8000
    297    279    298   1    107.8000    276.1440
    279    280    281   1    112.7000    488.2728
    279    280    299   1    110.7000    313.8000
    279    280    300   1    110.7000    313.8000
    281    280    299   1    110.7000    313.8000
    281    280    300   1    110.7000    313.8000
    299    280    300   1    107.8000    276.1440
    280    281    282   1    112.7000    488.2728
    280    281    301   1    110.7000    313.8000
    280    281    302   1    110.7000    313.8000
    282    281    301   1    110.7000    313.8000
    282    281    302   1    110.7000    313.8000
    301    281    302   1    107.8000    276.1440
    281    282    283   1    110.7230    585.7600
    281    282    303   1    110.7000    313.8000
    281    282    304   1    110.7000    313.8000
    283    282    303   1    109.5000    292.8800
    283    282    304   1    109.5000    292.8800
    303    282    304   1    107.8000    276.1440
    282    283    305   1    118.4000    317.9840
    282    283    306   1    121.9000    418.4000
    305    283    306   1    119.8000    292.8800
    283    306    307   1    122.9000    669.4400
    283    306    308   1    116.6000    585.7600
    307    306    308   1    120.4000    669.4400
    306    308    309   1    111.1000    527.1840
    306    308    322   1    109.5000    292.8800
    306    308    323   1    109.5000    292.8800
    309    308    322   1    110.7000    313.8000
    309    308    323   1    110.7000    313.8000
    322    308    323   1    107.8000    276.1440
    308    309    310   1    112.7000    488.2728
    308    309    324   1    110.7000    313.8000
    308    309    325   1    110.7000    313.8000
    310    309    324   1    110.7000    313.8000
    310    309    325   1    110.7000    313.8000
    324    309    325   1    107.8000    276.1440
    309    310    311   1    112.7000    488.2728
    309    310    326   1    110.7000    313.8000
    309    310    327   1    110.7000    313.8000
    311    310    326   1    110.7000    313.8000
    311    310    327   1    110.7000    313.8000
    326    310    327   1    107.8000    276.1440
    310    311    312   1    111.1000    527.1840
    310    311    328   1    110.7000    313.8000
    310    311    329   1    110.7000    313.8000
    312    311    328   1    109.5000    292.8800
    312    311    329   1    109.5000    292.8800
    328    311    329   1    107.8000    276.1440
    311    312    313   1    120.4000    669.4400
    311    312    314   1    116.6000    585.7600
    313    312    314   1    122.9000    669.4400
    312    314    315   1    121.9000    418.4000
    312    314    330   1    119.8000    292.8800
    315    314    330   1    118.4000    317.9840
    314    315    316   1    110.7230    585.7600
    314    315    331   1    109.5000    292.8800
    314    315    332   1    109.5000    292.8800
    316    315    331   1    110.7000    313.8000
    316    315    332   1    110.7000    313.8000
    331    315    332   1    107.8000    276.1440
    315    316    317   1    112.7000    488.2728
    315    316    333   1    110.7000    313.8000
    315    316    334   1    110.7000    313.8000
    317    316    333   1    110.7000    313.8000
    317    316    334   1    110.7000    313.8000
    333    316    334   1    107.8000    276.1440
    316    317    318   1    112.7000    488.2728
    316    317    335   1    110.7000    313.8000
    316    317    336   1    110.7000    313.8000
    318    317    335   1    110.7000    313.8000
    318    317    336   1    110.7000    313.8000
    335    317    336   1    107.8000    276.1440
    317    318    319   1    112.7000    488.2728
    317    318    337   1    110.7000    313.8000
    317    318    338   1    110.7000    313.8000
    319    318    337   1    110.7000    313.8000
    319    318    338   1    110.7000    313.8000
    337    318    338   1    107.8000    276.1440
    318    319    320   1    112.7000    488.2728
    318    319    339   1    110.7000    313.8000
    318    319    340   1    110.7000    313.8000
    320    319    339   1    110.7000    313.8000
    320    319    340   1    110.7000    313.8000
    339    319    340   1    107.8000    276.1440
    319    320    321   1    110.7230    585.7600
    319    320    341   1    110.7000    313.8000
    319    320    342   1    110.7000    313.8000
    321    320    341   1    109.5000    292.8800
    321    320    342   1    109.5000    292.8800
    341    320    342   1    107.8000    276.1440
    320    321    343   1    118.4000    317.9840
    320    321    344   1    121.9000    418.4000
    343    321    344   1    119.8000    292.8800
    321    344    345   1    122.9000    669.4400
    321    344    346   1    116.6000    585.7600
    345    344    346   1    120.4000    669.4400
    344    346    347   1    111.1000    527.1840
    344    346    360   1    109.5000    292.8800
    344    346    361   1    109.5000    292.8800
    347    346    360   1    110.7000    313.8000
    347    346    361   1    110.7000    313.8000
    360    346    361   1    107.8000    276.1440
    346    347    348   1    112.7000    488.2728
    346    347    362   1    110.7000    313.8000
    346    347    363   1    110.7000    313.8000
    348    347    362   1    110.7000    313.8000
    348    347    363   1    110.7000    313.8000
    362    347    363   1    107.8000    276.1440
    347    348    349   1    112.7000    488.2728
    347    348    364   1    110.7000    313.8000
    347    348    365   1    110.7000    313.8000
    349    348    364   1    110.7000    313.8000
    349    348    365   1    110.7000    313.8000
    364    348    365   1    107.8000    276.1440
    348    349    350   1    111.1000    527.1840
    348    349    366   1    110.7000    313.8000
    348    349    367   1    110.7000    313.8000
    350    349    366   1    109.5000    292.8800
    350    349    367   1    109.5000    292.8800
    366    349    367   1    107.8000    276.1440
    349    350    351   1    120.4000    669.4400
    349    350    352   1    116.6000    585.7600
    351    350    352   1    122.9000    669.4400
    350    352    353   1    121.9000    418.4000
    350    352    368   1    119.8000    292.8800
    353    352    368   1    118.4000    317.9840
    352    353    354   1    110.7230    585.7600
    352    353    369   1    109.5000    292.8800
    352    353    370   1    109.5000    292.8800
    354    353    369   1    110.7000    313.8000
    354    353    370   1    110.7000    313.8000
    369    353    370   1    107.8000    276.1440
    353    354    355   1    112.7000    488.2728
    353    354    371   1    110.7000    313.8000
    353    354    372   1    110.7000    313.8000
    355    354    371   1    110.7000    313.8000
    355    354    372   1    110.7000    313.8000
    371    354    372   1    107.8000    276.1440
    354    355    356   1    112.7000    488.2728
    354    355    373   1    110.7000    313.8000
    354    355    374   1    110.7000    313.8000
    356    355    373   1    110.7000    313.8000
    356    355    374   1    110.7000    313.8000
    373    355    374   1    107.8000    276.1440
    355    356    357   1    112.7000    488.2728
    355    356    375   1    110.7000    313.8000
    355    356    376   1    110.7000    313.8000
    357    356    375   1    110.7000    313.8000
    357    356    376   1    110.7000    313.8000
    375    356    376   1    107.8000    276.1440
    356    357    358   1    112.7000    488.2728
    356    357    377   1    110.7000    313.8000
    356    357    378   1    110.7000    313.8000
    358    357    377   1    110.7000    313.8000
    358    357    378   1    110.7000    313.8000
    377    357    378   1    107.8000    276.1440
    357    358    359   1    110.7230    585.7600
    357    358    379   1    110.7000    313.8000
    357    358    380   1    110.7000    313.8000
    359    358    379   1    109.5000    292.8800
    359    358    380   1    109.5000    292.8800
    379    358    380   1    107.8000    276.1440
    358    359    381   1    118.4000    317.9840
    358    359    382   1    121.9000    418.4000
    381    359    382   1    119.8000    292.8800
    359    382    383   1    122.9000    669.4400
    359    382    384   1    116.6000    585.7600
    383    382    384   1    120.4000    669.4400
    382    384    385   1    111.1000    527.1840
    382    384    398   1    109.5000    292.8800
    382    384    399   1    109.5000    292.8800
    385    384    398   1    110.7000    313.8000
    385    384    399   1    110.7000    313.8000
    398    384    399   1    107.8000    276.1440
    384    385    386   1    112.7000    488.2728
    384    385    400   1    110.7000    313.8000
    384    385    401   1    110.7000    313.8000
    386    385    400   1    110.7000    313.8000
    386    385    401   1    110.7000    313.8000
    400    385    401   1    107.8000    276.1440
    385    386    387   1    112.7000    488.2728
    385    386    402   1    110.7000    313.8000
    385    386    403   1    110.7000    313.8000
    387    386    402   1    110.7000    313.8000
    387    386    403   1    110.7000    313.8000
    402    386    403   1    107.8000    276.1440
    386    387    388   1    111.1000    527.1840
    386    387    404   1    110.7000    313.8000
    386    387    405   1    110.7000    313.8000
    388    387    404   1    109.5000    292.8800
    388    387    405   1    109.5000    292.8800
    404    387    405   1    107.8000    276.1440
    387    388    389   1    120.4000    669.4400
    387    388    390   1    116.6000    585.7600
    389    388    390   1    122.9000    669.4400
    388    390    391   1    121.9000    418.4000
    388    390    406   1    119.8000    292.8800
    391    390    406   1    118.4000    317.9840
    390    391    392   1    110.7230    585.7600
    390    391    407   1    109.5000    292.8800
    390    391    408   1    109.5000    292.8800
    392    391    407   1    110.7000    313.8000
    392    391    408   1    110.7000    313.8000
    407    391    408   1    107.8000    276.1440
    391    392    393   1    112.7000    488.2728
    391    392    409   1    110.7000    313.8000
    391    392    410   1    110.7000    313.8000
    393    392    409   1    110.7000    313.8000
    393    392    410   1    110.7000    313.8000
    409    392    410   1    107.8000    276.1440
    392    393    394   1    112.7000    488.2728
    392    393    411   1    110.7000    313.8000
    392    393    412   1    110.7000    313.8000
    394    393    411   1    110.7000    313.8000
    394    393    412   1    110.7000    313.8000
    411    393    412   1    107.8000    276.1440
    393    394    395   1    112.7000    488.2728
    393    394    413   1    110.7000    313.8000
    393    394    414   1    110.7000    313.8000
    395    394    413   1    110.7000    313.8000
    395    394    414   1    110.7000    313.8000
    413    394    414   1    107.8000    276.1440
    394    395    396   1    112.7000    488.2728
    394    395    415   1    110.7000    313.8000
    394    395    416   1    110.7000    313.8000
    396    395    415   1    110.7000    313.8000
    396    395    416   1    110.7000    313.8000
    415    395    416   1    107.8000    276.1440
    395    396    397   1    110.7230    585.7600
    395    396    417   1    110.7000    313.8000
    395    396    418   1    110.7000    313.8000
    397    396    417   1    109.5000    292.8800
    397    396    418   1    109.5000    292.8800
    417    396    418   1    107.8000    276.1440
    396    397    419   1    118.4000    317.9840
    396    397    420   1    121.9000    418.4000
    419    397    420   1    119.8000    292.8800
    397    420    421   1    122.9000    669.4400
    397    420    422   1    116.6000    585.7600
    421    420    422   1    120.4000    669.4400
    420    422    423   1    111.1000    527.1840
    420    422    436   1    109.5000    292.8800
    420    422    437   1    109.5000    292.8800
    423    422    436   1    110.7000    313.8000
    423    422    437   1    110.7000    313.8000
    436    422    437   1    107.8000    276.1440
    422    423    424   1    112.7000    488.2728
    422    423    438   1    110.7000    313.8000
    422    423    439   1    110.7000    313.8000
    424    423    438   1    110.7000    313.8000
    424    423    439   1    110.7000    313.8000
    438    423    439   1    107.8000    276.1440
    423    424    425   1    112.7000    488.2728
    423    424    440   1    110.7000    313.8000
    423    424    441   1    110.7000    313.8000
    425    424    440   1    110.7000    313.8000
    425    424    441   1    110.7000    313.8000
    440    424    441   1    107.8000    276.1440
    424    425    426   1    111.1000    527.1840
    424    425    442   1    110.7000    313.8000
    424    425    443   1    110.7000    313.8000
    426    425    442   1    109.5000    292.8800
    426    425    443   1    109.5000    292.8800
    442    425    443   1    107.8000    276.1440
    425    426    427   1    120.4000    669.4400
    425    426    428   1    116.6000    585.7600
    427    426    428   1    122.9000    669.4400
    426    428    429   1    121.9000    418.4000
    426    428    444   1    119.8000    292.8800
    429    428    444   1    118.4000    317.9840
    428    429    430   1    110.7230    585.7600
    428    429    445   1    109.5000    292.8800
    428    429    446   1    109.5000    292.8800
    430    429    445   1    110.7000    313.8000
    430    429    446   1    110.7000    313.8000
    445    429    446   1    107.8000    276.1440
    429    430    431   1    112.7000    488.2728
    429    430    447   1    110.7000    313.8000
    429    430    448   1    110.7000    313.8000
    431    430    447   1    110.7000    313.8000
    431    430    448   1    110.7000    313.8000
    447    430    448   1    107.8000    276.1440
    430    431    432   1    112.7000    488.2728
    430    431    449   1    110.7000    313.8000
    430    431    450   1    110.7000    313.8000
    432    431    449   1    110.7000    313.8000
    432    431    450   1    110.7000    313.8000
    449    431    450   1    107.8000    276.1440
    431    432    433   1    112.7000    488.2728
    431    432    451   1    110.7000    313.8000
    431    432    452   1    110.7000    313.8000
    433    432    451   1    110.7000    313.8000
    433    432    452   1    110.7000    313.8000
    451    432    452   1    107.8000    276.1440
    432    433    434   1    112.7000    488.2728
    432    433    453   1    110.7000    313.8000
    432    433    454   1    110.7000    313.8000
    434    433    453   1    110.7000    313.8000
    434    433    454   1    110.7000    313.8000
    453    433    454   1    107.8000    276.1440
    433    434    435   1    110.7230    585.7600
    433    434    455   1    110.7000    313.8000
    433    434    456   1    110.7000    313.8000
    435    434    455   1    109.5000    292.8800
    435    434    456   1    109.5000    292.8800
    455    434    456   1    107.8000    276.1440
    434    435    457   1    118.4000    317.9840
    434    435    458   1    121.9000    418.4000
    457    435    458   1    119.8000    292.8800
    435    458    459   1    122.9000    669.4400
    435    458    460   1    116.6000    585.7600
    459    458    460   1    120.4000    669.4400
    458    460    461   1    111.1000    527.1840
    458    460    474   1    109.5000    292.8800
    458    460    475   1    109.5000    292.8800
    461    460    474   1    110.7000    313.8000
    461    460    475   1    110.7000    313.8000
    474    460    475   1    107.8000    276.1440
    460    461    462   1    112.7000    488.2728
    460    461    476   1    110.7000    313.8000
    460    461    477   1    110.7000    313.8000
    462    461    476   1    110.7000    313.8000
    462    461    477   1    110.7000    313.8000
    476    461    477   1    107.8000    276.1440
    461    462    463   1    112.7000    488.2728
    461    462    478   1    110.7000    313.8000
    461    462    479   1    110.7000    313.8000
    463    462    478   1    110.7000    313.8000
    463    462    479   1    110.7000    313.8000
    478    462    479   1    107.8000    276.1440
    462    463    464   1    111.1000    527.1840
    462    463    480   1    110.7000    313.8000
    462    463    481   1    110.7000    313.8000
    464    463    480   1    109.5000    292.8800
    464    463    481   1    109.5000    292.8800
    480    463    481   1    107.8000    276.1440
    463    464    465   1    120.4000    669.4400
    463    464    466   1    116.6000    585.7600
    465    464    466   1    122.9000    669.4400
    464    466    467   1    121.9000    418.4000
    464    466    482   1    119.8000    292.8800
    467    466    482   1    118.4000    317.9840
    466    467    468   1    110.7230    585.7600
    466    467    483   1    109.5000    292.8800
    466    467    484   1    109.5000    292.8800
    468    467    483   1    110.7000    313.8000
    468    467    484   1    110.7000    313.8000
    483    467    484   1    107.8000    276.1440
    467    468    469   1    112.7000    488.2728
    467    468    485   1    110.7000    313.8000
    467    468    486   1    110.7000    313.8000
    469    468    485   1    110.7000    313.8000
    469    468    486   1    110.7000    313.8000
    485    468    486   1    107.8000    276.1440
    468    469    470   1    112.7000    488.2728
    468    469    487   1    110.7000    313.8000
    468    469    488   1    110.7000    313.8000
    470    469    487   1    110.7000    313.8000
    470    469    488   1    110.7000    313.8000
    487    469    488   1    107.8000    276.1440
    469    470    471   1    112.7000    488.2728
    469    470    489   1    110.7000    313.8000
    469    470    490   1    110.7000    313.8000
    471    470    489   1    110.7000    313.8000
    471    470    490   1    110.7000    313.8000
    489    470    490   1    107.8000    276.1440
    470    471    472   1    112.7000    488.2728
    470    471    491   1    110.7000    313.8000
    470    471    492   1    110.7000    313.8000
    472    471    491   1    110.7000    313.8000
    472    471    492   1    110.7000    313.8000
    491    471    492   1    107.8000    276.1440
    471    472    473   1    110.7230    585.7600
    471    472    493   1    110.7000    313.8000
    471    472    494   1    110.7000    313.8000
    473    472    493   1    109.5000    292.8800
    473    472    494   1    109.5000    292.8800
    493    472    494   1    107.8000    276.1440
    472    473    495   1    118.4000    317.9840
    472    473    496   1    121.9000    418.4000
    495    473    496   1    119.8000    292.8800
    473    496    497   1    122.9000    669.4400
    473    496    498   1    116.6000    585.7600
    497    496    498   1    120.4000    669.4400
    496    498    499   1    111.1000    527.1840
    496    498    512   1    109.5000    292.8800
    496    498    513   1    109.5000    292.8800
    499    498    512   1    110.7000    313.8000
    499    498    513   1    110.7000    313.8000
    512    498    513   1    107.8000    276.1440
    498    499    500   1    112.7000    488.2728
    498    499    514   1    110.7000    313.8000
    498    499    515   1    110.7000    313.8000
    500    499    514   1    110.7000    313.8000
    500    499    515   1    110.7000    313.8000
    514    499    515   1    107.8000    276.1440
    499    500    501   1    112.7000    488.2728
    499    500    516   1    110.7000    313.8000
    499    500    517   1    110.7000    313.8000
    501    500    516   1    110.7000    313.8000
    501    500    517   1    110.7000    313.8000
    516    500    517   1    107.8000    276.1440
    500    501    502   1    111.1000    527.1840
    500    501    518   1    110.7000    313.8000
    500    501    519   1    110.7000    313.8000
    502    501    518   1    109.5000    292.8800
    502    501    519   1    109.5000    292.8800
    518    501    519   1    107.8000    276.1440
    501    502    503   1    120.4000    669.4400
    501    502    504   1    116.6000    585.7600
    503    502    504   1    122.9000    669.4400
    502    504    505   1    121.9000    418.4000
    502    504    520   1    119.8000    292.8800
    505    504    520   1    118.4000    317.9840
    504    505    506   1    110.7230    585.7600
    504    505    521   1    109.5000    292.8800
    504    505    522   1    109.5000    292.8800
    506    505    521   1    110.7000    313.8000
    506    505    522   1    110.7000    313.8000
    521    505    522   1    107.8000    276.1440
    505    506    507   1    112.7000    488.2728
    505    506    523   1    110.7000    313.8000
    505    506    524   1    110.7000    313.8000
    507    506    523   1    110.7000    313.8000
    507    506    524   1    110.7000    313.8000
    523    506    524   1    107.8000    276.1440
    506    507    508   1    112.7000    488.2728
    506    507    525   1    110.7000    313.8000
    506    507    526   1    110.7000    313.8000
    508    507    525   1    110.7000    313.8000
    508    507    526   1    110.7000    313.8000
    525    507    526   1    107.8000    276.1440
    507    508    509   1    112.7000    488.2728
    507    508    527   1    110.7000    313.8000
    507    508    528   1    110.7000    313.8000
    509    508    527   1    110.7000    313.8000
    509    508    528   1    110.7000    313.8000
    527    508    528   1    107.8000    276.1440
    508    509    510   1    112.7000    488.2728
    508    509    529   1    110.7000    313.8000
    508    509    530   1    110.7000    313.8000
    510    509    529   1    110.7000    313.8000
    510    509    530   1    110.7000    313.8000
    529    509    530   1    107.8000    276.1440
    509    510    511   1    110.7230    585.7600
    509    510    531   1    110.7000    313.8000
    509    510    532   1    110.7000    313.8000
    511    510    531   1    109.5000    292.8800
    511    510    532   1    109.5000    292.8800
    531    510    532   1    107.8000    276.1440
    510    511    533   1    118.4000    317.9840
    510    511    534   1    121.9000    418.4000
    533    511    534   1    119.8000    292.8800
    511    534    535   1    122.9000    669.4400
    511    534    536   1    116.6000    585.7600
    535    534    536   1    120.4000    669.4400
    534    536    537   1    111.1000    527.1840
    534    536    550   1    109.5000    292.8800
    534    536    551   1    109.5000    292.8800
    537    536    550   1    110.7000    313.8000
    537    536    551   1    110.7000    313.8000
    550    536    551   1    107.8000    276.1440
    536    537    538   1    112.7000    488.2728
    536    537    552   1    110.7000    313.8000
    536    537    553   1    110.7000    313.8000
    538    537    552   1    110.7000    313.8000
    538    537    553   1    110.7000    313.8000
    552    537    553   1    107.8000    276.1440
    537    538    539   1    112.7000    488.2728
    537    538    554   1    110.7000    313.8000
    537    538    555   1    110.7000    313.8000
    539    538    554   1    110.7000    313.8000
    539    538    555   1    110.7000    313.8000
    554    538    555   1    107.8000    276.1440
    538    539    540   1    111.1000    527.1840
    538    539    556   1    110.7000    313.8000
    538    539    557   1    110.7000    313.8000
    540    539    556   1    109.5000    292.8800
    540    539    557   1    109.5000    292.8800
    556    539    557   1    107.8000    276.1440
    539    540    541   1    120.4000    669.4400
    539    540    542   1    116.6000    585.7600
    541    540    542   1    122.9000    669.4400
    540    542    543   1    121.9000    418.4000
    540    542    558   1    119.8000    292.8800
    543    542    558   1    118.4000    317.9840
    542    543    544   1    110.7230    585.7600
    542    543    559   1    109.5000    292.8800
    542    543    560   1    109.5000    292.8800
    544    543    559   1    110.7000    313.8000
    544    543    560   1    110.7000    313.8000
    559    543    560   1    107.8000    276.1440
    543    544    545   1    112.7000    488.2728
    543    544    561   1    110.7000    313.8000
    543    544    562   1    110.7000    313.8000
    545    544    561   1    110.7000    313.8000
    545    544    562   1    110.7000    313.8000
    561    544    562   1    107.8000    276.1440
    544    545    546   1    112.7000    488.2728
    544    545    563   1    110.7000    313.8000
    544    545    564   1    110.7000    313.8000
    546    545    563   1    110.7000    313.8000
    546    545    564   1    110.7000    313.8000
    563    545    564   1    107.8000    276.1440
    545    546    547   1    112.7000    488.2728
    545    546    565   1    110.7000    313.8000
    545    546    566   1    110.7000    313.8000
    547    546    565   1    110.7000    313.8000
    547    546    566   1    110.7000    313.8000
    565    546    566   1    107.8000    276.1440
    546    547    548   1    112.7000    488.2728
    546    547    567   1    110.7000    313.8000
    546    547    568   1    110.7000    313.8000
    548    547    567   1    110.7000    313.8000
    548    547    568   1    110.7000    313.8000
    567    547    568   1    107.8000    276.1440
    547    548    549   1    110.7230    585.7600
    547    548    569   1    110.7000    313.8000
    547    548    570   1    110.7000    313.8000
    549    548    569   1    109.5000    292.8800
    549    548    570   1    109.5000    292.8800
    569    548    570   1    107.8000    276.1440
    548    549    571   1    118.4000    317.9840
    548    549    572   1    121.9000    418.4000
    571    549    572   1    119.8000    292.8800
    549    572    573   1    122.9000    669.4400
    549    572    574   1    116.6000    585.7600
    573    572    574   1    120.4000    669.4400
    572    574    575   1    111.1000    527.1840
    572    574    588   1    109.5000    292.8800
    572    574    589   1    109.5000    292.8800
    575    574    588   1    110.7000    313.8000
    575    574    589   1    110.7000    313.8000
    588    574    589   1    107.8000    276.1440
    574    575    576   1    112.7000    488.2728
    574    575    590   1    110.7000    313.8000
    574    575    591   1    110.7000    313.8000
    576    575    590   1    110.7000    313.8000
    576    575    591   1    110.7000    313.8000
    590    575    591   1    107.8000    276.1440
    575    576    577   1    112.7000    488.2728
    575    576    592   1    110.7000    313.8000
    575    576    593   1    110.7000    313.8000
    577    576    592   1    110.7000    313.8000
    577    576    593   1    110.7000    313.8000
    592    576    593   1    107.8000    276.1440
    576    577    578   1    111.1000    527.1840
    576    577    594   1    110.7000    313.8000
    576    577    595   1    110.7000    313.8000
    578    577    594   1    109.5000    292.8800
    578    577    595   1    109.5000    292.8800
    594    577    595   1    107.8000    276.1440
    577    578    579   1    120.4000    669.4400
    577    578    580   1    116.6000    585.7600
    579    578    580   1    122.9000    669.4400
    578    580    581   1    121.9000    418.4000
    578    580    596   1    119.8000    292.8800
    581    580    596   1    118.4000    317.9840
    580    581    582   1    110.7230    585.7600
    580    581    597   1    109.5000    292.8800
    580    581    598   1    109.5000    292.8800
    582    581    597   1    110.7000    313.8000
    582    581    598   1    110.7000    313.8000
    597    581    598   1    107.8000    276.1440
    581    582    583   1    112.7000    488.2728
    581    582    599   1    110.7000    313.8000
    581    582    600   1    110.7000    313.8000
    583    582    599   1    110.7000    313.8000
    583    582    600   1    110.7000    313.8000
    599    582    600   1    107.8000    276.1440
    582    583    584   1    112.7000    488.2728
    582    583    601   1    110.7000    313.8000
    582    583    602   1    110.7000    313.8000
    584    583    601   1    110.7000    313.8000
    584    583    602   1    110.7000    313.8000
    601    583    602   1    107.8000    276.1440
    583    584    585   1    112.7000    488.2728
    583    584    603   1    110.7000    313.8000
    583    584    604   1    110.7000    313.8000
    585    584    603   1    110.7000    313.8000
    585    584    604   1    110.7000    313.8000
    603    584    604   1    107.8000    276.1440
    584    585    586   1    112.7000    488.2728
    584    585    605   1    110.7000    313.8000
    584    585    606   1    110.7000    313.8000
    586    585    605   1    110.7000    313.8000
    586    585    606   1    110.7000    313.8000
    605    585    606   1    107.8000    276.1440
    585    586    587   1    110.7230    585.7600
    585    586    607   1    110.7000    313.8000
    585    586    608   1    110.7000    313.8000
    587    586    607   1    109.5000    292.8800
    587    586    608   1    109.5000    292.8800
    607    586    608   1    107.8000    276.1440
    586    587    609   1    118.4000    317.9840
    586    587    610   1    121.9000    418.4000
    609    587    610   1    119.8000    292.8800
    587    610    611   1    122.9000    669.4400
    587    610    612   1    116.6000    585.7600
    611    610    612   1    120.4000    669.4400
    610    612    613   1    111.1000    527.1840
    610    612    626   1    109.5000    292.8800
    610    612    627   1    109.5000    292.8800
    613    612    626   1    110.7000    313.8000
    613    612    627   1    110.7000    313.8000
    626    612    627   1    107.8000    276.1440
    612    613    614   1    112.7000    488.2728
    612    613    628   1    110.7000    313.8000
    612    613    629   1    110.7000    313.8000
    614    613    628   1    110.7000    313.8000
    614    613    629   1    110.7000    313.8000
    628    613    629   1    107.8000    276.1440
    613    614    615   1    112.7000    488.2728
    613    614    630   1    110.7000    313.8000
    613    614    631   1    110.7000    313.8000
    615    614    630   1    110.7000    313.8000
    615    614    631   1    110.7000    313.8000
    630    614    631   1    107.8000    276.1440
    614    615    616   1    111.1000    527.1840
    614    615    632   1    110.7000    313.8000
    614    615    633   1    110.7000    313.8000
    616    615    632   1    109.5000    292.8800
    616    615    633   1    109.5000    292.8800
    632    615    633   1    107.8000    276.1440
    615    616    617   1    120.4000    669.4400
    615    616    618   1    116.6000    585.7600
    617    616    618   1    122.9000    669.4400
    616    618    619   1    121.9000    418.4000
    616    618    634   1    119.8000    292.8800
    619    618    634   1    118.4000    317.9840
    618    619    620   1    110.7230    585.7600
    618    619    635   1    109.5000    292.8800
    618    619    636   1    109.5000    292.8800
    620    619    635   1    110.7000    313.8000
    620    619    636   1    110.7000    313.8000
    635    619    636   1    107.8000    276.1440
    619    620    621   1    112.7000    488.2728
    619    620    637   1    110.7000    313.8000
    619    620    638   1    110.7000    313.8000
    621    620    637   1    110.7000    313.8000
    621    620    638   1    110.7000    313.8000
    637    620    638   1    107.8000    276.1440
    620    621    622   1    112.7000    488.2728
    620    621    639   1    110.7000    313.8000
    620    621    640   1    110.7000    313.8000
    622    621    639   1    110.7000    313.8000
    622    621    640   1    110.7000    313.8000
    639    621    640   1    107.8000    276.1440
    621    622    623   1    112.7000    488.2728
    621    622    641   1    110.7000    313.8000
    621    622    642   1    110.7000    313.8000
    623    622    641   1    110.7000    313.8000
    623    622    642   1    110.7000    313.8000
    641    622    642   1    107.8000    276.1440
    622    623    624   1    112.7000    488.2728
    622    623    643   1    110.7000    313.8000
    622    623    644   1    110.7000    313.8000
    624    623    643   1    110.7000    313.8000
    624    623    644   1    110.7000    313.8000
    643    623    644   1    107.8000    276.1440
    623    624    625   1    110.7230    585.7600
    623    624    645   1    110.7000    313.8000
    623    624    646   1    110.7000    313.8000
    625    624    645   1    109.5000    292.8800
    625    624    646   1    109.5000    292.8800
    645    624    646   1    107.8000    276.1440
    624    625    647   1    118.4000    317.9840
    624    625    648   1    121.9000    418.4000
    647    625    648   1    119.8000    292.8800
    625    648    649   1    122.9000    669.4400
    625    648    650   1    116.6000    585.7600
    649    648    650   1    120.4000    669.4400
    648    650    651   1    111.1000    527.1840
    648    650    664   1    109.5000    292.8800
    648    650    665   1    109.5000    292.8800
    651    650    664   1    110.7000    313.8000
    651    650    665   1    110.7000    313.8000
    664    650    665   1    107.8000    276.1440
    650    651    652   1    112.7000    488.2728
    650    651    666   1    110.7000    313.8000
    650    651    667   1    110.7000    313.8000
    652    651    666   1    110.7000    313.8000
    652    651    667   1    110.7000    313.8000
    666    651    667   1    107.8000    276.1440
    651    652    653   1    112.7000    488.2728
    651    652    668   1    110.7000    313.8000
    651    652    669   1    110.7000    313.8000
    653    652    668   1    110.7000    313.8000
    653    652    669   1    110.7000    313.8000
    668    652    669   1    107.8000    276.1440
    652    653    654   1    111.1000    527.1840
    652    653    670   1    110.7000    313.8000
    652    653    671   1    110.7000    313.8000
    654    653    670   1    109.5000    292.8800
    654    653    671   1    109.5000    292.8800
    670    653    671   1    107.8000    276.1440
    653    654    655   1    120.4000    669.4400
    653    654    656   1    116.6000    585.7600
    655    654    656   1    122.9000    669.4400
    654    656    657   1    121.9000    418.4000
    654    656    672   1    119.8000    292.8800
    657    656    672   1    118.4000    317.9840
    656    657    658   1    110.7230    585.7600
    656    657    673   1    109.5000    292.8800
    656    657    674   1    109.5000    292.8800
    658    657    673   1    110.7000    313.8000
    658    657    674   1    110.7000    313.8000
    673    657    674   1    107.8000    276.1440
    657    658    659   1    112.7000    488.2728
    657    658    675   1    110.7000    313.8000
    657    658    676   1    110.7000    313.8000
    659    658    675   1    110.7000    313.8000
    659    658    676   1    110.7000    313.8000
    675    658    676   1    107.8000    276.1440
    658    659    660   1    112.7000    488.2728
    658    659    677   1    110.7000    313.8000
    658    659    678   1    110.7000    313.8000
    660    659    677   1    110.7000    313.8000
    660    659    678   1    110.7000    313.8000
    677    659    678   1    107.8000    276.1440
    659    660    661   1    112.7000    488.2728
    659    660    679   1    110.7000    313.8000
    659    660    680   1    110.7000    313.8000
    661    660    679   1    110.7000    313.8000
    661    660    680   1    110.7000    313.8000
    679    660    680   1    107.8000    276.1440
    660    661    662   1    112.7000    488.2728
    660    661    681   1    110.7000    313.8000
    660    661    682   1    110.7000    313.8000
    662    661    681   1    110.7000    313.8000
    662    661    682   1    110.7000    313.8000
    681    661    682   1    107.8000    276.1440
    661    662    663   1    110.7230    585.7600
    661    662    683   1    110.7000    313.8000
    661    662    684   1    110.7000    313.8000
    663    662    683   1    109.5000    292.8800
    663    662    684   1    109.5000    292.8800
    683    662    684   1    107.8000    276.1440
    662    663    685   1    118.4000    317.9840
    662    663    686   1    121.9000    418.4000
    685    663    686   1    119.8000    292.8800
    663    686    687   1    122.9000    669.4400
    663    686    688   1    116.6000    585.7600
    687    686    688   1    120.4000    669.4400
    686    688    689   1    111.1000    527.1840
    686    688    702   1    109.5000    292.8800
    686    688    703   1    109.5000    292.8800
    689    688    702   1    110.7000    313.8000
    689    688    703   1    110.7000    313.8000
    702    688    703   1    107.8000    276.1440
    688    689    690   1    112.7000    488.2728
    688    689    704   1    110.7000    313.8000
    688    689    705   1    110.7000    313.8000
    690    689    704   1    110.7000    313.8000
    690    689    705   1    110.7000    313.8000
    704    689    705   1    107.8000    276.1440
    689    690    691   1    112.7000    488.2728
    689    690    706   1    110.7000    313.8000
    689    690    707   1    110.7000    313.8000
    691    690    706   1    110.7000    313.8000
    691    690    707   1    110.7000    313.8000
    706    690    707   1    107.8000    276.1440
    690    691    692   1    111.1000    527.1840
    690    691    708   1    110.7000    313.8000
    690    691    709   1    110.7000    313.8000
    692    691    708   1    109.5000    292.8800
    692    691    709   1    109.5000    292.8800
    708    691    709   1    107.8000    276.1440
    691    692    693   1    120.4000    669.4400
    691    692    694   1    116.6000    585.7600
    693    692    694   1    122.9000    669.4400
    692    694    695   1    121.9000    418.4000
    692    694    710   1    119.8000    292.8800
    695    694    710   1    118.4000    317.9840
    694    695    696   1    110.7230    585.7600
    694    695    711   1    109.5000    292.8800
    694    695    712   1    109.5000    292.8800
    696    695    711   1    110.7000    313.8000
    696    695    712   1    110.7000    313.8000
    711    695    712   1    107.8000    276.1440
    695    696    697   1    112.7000    488.2728
    695    696    713   1    110.7000    313.8000
    695    696    714   1    110.7000    313.8000
    697    696    713   1    110.7000    313.8000
    697    696    714   1    110.7000    313.8000
    713    696    714   1    107.8000    276.1440
    696    697    698   1    112.7000    488.2728
    696    697    715   1    110.7000    313.8000
    696    697    716   1    110.7000    313.8000
    698    697    715   1    110.7000    313.8000
    698    697    716   1    110.7000    313.8000
    715    697    716   1    107.8000    276.1440
    697    698    699   1    112.7000    488.2728
    697    698    717   1    110.7000    313.8000
    697    698    718   1    110.7000    313.8000
    699    698    717   1    110.7000    313.8000
    699    698    718   1    110.7000    313.8000
    717    698    718   1    107.8000    276.1440
    698    699    700   1    112.7000    488.2728
    698    699    719   1    110.7000    313.8000
    698    699    720   1    110.7000    313.8000
    700    699    719   1    110.7000    313.8000
    700    699    720   1    110.7000    313.8000
    719    699    720   1    107.8000    276.1440
    699    700    701   1    110.7230    585.7600
    699    700    721   1    110.7000    313.8000
    699    700    722   1    110.7000    313.8000
    701    700    721   1    109.5000    292.8800
    701    700    722   1    109.5000    292.8800
    721    700    722   1    107.8000    276.1440
    700    701    723   1    118.4000    317.9840
    700    701    724   1    121.9000    418.4000
    723    701    724   1    119.8000    292.8800
    701    724    725   1    122.9000    669.4400
    701    724    726   1    116.6000    585.7600
    725    724    726   1    120.4000    669.4400
    724    726    727   1    111.1000    527.1840
    724    726    740   1    109.5000    292.8800
    724    726    741   1    109.5000    292.8800
    727    726    740   1    110.7000    313.8000
    727    726    741   1    110.7000    313.8000
    740    726    741   1    107.8000    276.1440
    726    727    728   1    112.7000    488.2728
    726    727    742   1    110.7000    313.8000
    726    727    743   1    110.7000    313.8000
    728    727    742   1    110.7000    313.8000
    728    727    743   1    110.7000    313.8000
    742    727    743   1    107.8000    276.1440
    727    728    729   1    112.7000    488.2728
    727    728    744   1    110.7000    313.8000
    727    728    745   1    110.7000    313.8000
    729    728    744   1    110.7000    313.8000
    729    728    745   1    110.7000    313.8000
    744    728    745   1    107.8000    276.1440
    728    729    730   1    111.1000    527.1840
    728    729    746   1    110.7000    313.8000
    728    729    747   1    110.7000    313.8000
    730    729    746   1    109.5000    292.8800
    730    729    747   1    109.5000    292.8800
    746    729    747   1    107.8000    276.1440
    729    730    731   1    120.4000    669.4400
    729    730    732   1    116.6000    585.7600
    731    730    732   1    122.9000    669.4400
    730    732    733   1    121.9000    418.4000
    730    732    748   1    119.8000    292.8800
    733    732    748   1    118.4000    317.9840
    732    733    734   1    110.7230    585.7600
    732    733    749   1    109.5000    292.8800
    732    733    750   1    109.5000    292.8800
    734    733    749   1    110.7000    313.8000
    734    733    750   1    110.7000    313.8000
    749    733    750   1    107.8000    276.1440
    733    734    735   1    112.7000    488.2728
    733    734    751   1    110.7000    313.8000
    733    734    752   1    110.7000    313.8000
    735    734    751   1    110.7000    313.8000
    735    734    752   1    110.7000    313.8000
    751    734    752   1    107.8000    276.1440
    734    735    736   1    112.7000    488.2728
    734    735    753   1    110.7000    313.8000
    734    735    754   1    110.7000    313.8000
    736    735    753   1    110.7000    313.8000
    736    735    754   1    110.7000    313.8000
    753    735    754   1    107.8000    276.1440
    735    736    737   1    112.7000    488.2728
    735    736    755   1    110.7000    313.8000
    735    736    756   1    110.7000    313.8000
    737    736    755   1    110.7000    313.8000
    737    736    756   1    110.7000    313.8000
    755    736    756   1    107.8000    276.1440
    736    737    738   1    112.7000    488.2728
    736    737    757   1    110.7000    313.8000
    736    737    758   1    110.7000    313.8000
    738    737    757   1    110.7000    313.8000
    738    737    758   1    110.7000    313.8000
    757    737    758   1    107.8000    276.1440
    737    738    739   1    109.4700    470.2816
    737    738    759   1    110.7000    313.8000
    737    738    760   1    110.7000    313.8000
    739    738    759   1    109.5000    292.8800
    739    738    760   1    109.5000    292.8800
    759    738    760   1    107.8000    276.1440
    738    739    761   1    109.5000    292.8800
    738    739    762   1    109.5000    292.8800
    761    739    762   1    106.4000    364.8448

[ dihedrals ]
; Proper dihedrals
      2      1      3      4   5     0.00000     2.52295     0.00000  0.0
      2      1      3     17   5     0.00000     0.00000     0.00000  0.0
      2      1      3     18   5     0.00000     0.00000     0.00000  0.0
     39      1      3      4   5     6.23834    -0.04184     0.00000  0.0
     39      1      3     17   5     0.00000     0.00000     0.00000  0.0
     39      1      3     18   5     0.00000     0.00000     0.00000  0.0
      1      3      4      5   5    -8.00818    -1.52298     2.46438  0.0
      1      3      4     19   5     0.00000     0.00000    -0.94140  0.0
      1      3      4     20   5     0.00000     0.00000    -0.94140  0.0
     17      3      4      5   5     0.00000     0.00000     1.25520  0.0
     17      3      4     19   5     0.00000     0.00000     1.25520  0.0
     17      3      4     20   5     0.00000     0.00000     1.25520  0.0
     18      3      4      5   5     0.00000     0.00000     1.25520  0.0
     18      3      4     19   5     0.00000     0.00000     1.25520  0.0
     18      3      4     20   5     0.00000     0.00000     1.25520  0.0
      3      4      5      6   5     4.74884    -0.63178     1.67360  0.0
      3      4      5     21   5     0.00000     0.00000     1.25520  0.0
      3      4      5     22   5     0.00000     0.00000     1.25520  0.0
     19      4      5      6   5     0.00000     0.00000     1.25520  0.0
     19      4      5     21   5     0.00000     0.00000     1.25520  0.0
     19      4      5     22   5     0.00000     0.00000     1.25520  0.0
     20      4      5      6   5     0.00000     0.00000     1.25520  0.0
     20      4      5     21   5     0.00000     0.00000     1.25520  0.0
     20      4      5     22   5     0.00000     0.00000     1.25520  0.0
      4      5      6      7   5    -8.00818    -1.52298     2.46438  0.0
      4      5      6     23   5     0.00000     0.00000     1.25520  0.0
      4      5      6     24   5     0.00000     0.00000     1.25520  0.0
     21      5      6      7   5     0.00000     0.00000    -0.94140  0.0
     21      5      6     23   5     0.00000     0.00000     1.25520  0.0
     21      5      6     24   5     0.00000     0.00000     1.25520  0.0
     22      5      6      7   5     0.00000     0.00000    -0.94140  0.0
     22      5      6     23   5     0.00000     0.00000     1.25520  0.0
     22      5      6     24   5     0.00000     0.00000     1.25520  0.0
      5      6      7      8   5     0.00000     2.52295     0.00000  0.0
      5      6      7      9   5    11.69428    -0.66526    -1.56900  0.0
     23      6      7      8   5     0.00000     0.00000     0.00000  0.0
     23      6      7      9   5     0.00000     0.00000     0.00000  0.0
     24      6      7      8   5     0.00000     0.00000     0.00000  0.0
     24      6      7      9   5     0.00000     0.00000     0.00000  0.0
      6      7      9     10   5    12.53945    12.88254     0.00000  0.0
      6      7      9     25   5     0.00000    20.50160     0.00000  0.0
      8      7      9     10   5     0.00000    25.47638     0.00000  0.0
      8      7      9     25   5     0.00000    20.50160     0.00000  0.0
      7      9     10     11   5    -3.67774    -0.67781     0.28033  0.0
      7      9     10     26   5     0.00000     0.00000     0.00000  0.0
      7      9     10     27   5     0.00000     0.00000     0.00000  0.0
     25      9     10     11   5     0.00000     0.00000     0.00000  0.0
     25      9     10     26   5     0.00000     0.00000     0.00000  0.0
     25      9     10     27   5     0.00000     0.00000     0.00000  0.0
      9     10     11     12   5     3.67355     4.10869     2.37651  0.0
      9     10     11     28   5     0.00000     0.00000     1.25520  0.0
      9     10     11     29   5     0.00000     0.00000     1.25520  0.0
     26     10     11     12   5     0.00000     0.00000     1.25520  0.0
     26     10     11     28   5     0.00000     0.00000     1.25520  0.0
     26     10     11     29   5     0.00000     0.00000     1.25520  0.0
     27     10     11     12   5     0.00000     0.00000     1.25520  0.0
     27     10     11     28   5     0.00000     0.00000     1.25520  0.0
     27     10     11     29   5     0.00000     0.00000     1.25520  0.0
     10     11     12     13   5     4.74884    -0.63178     1.67360  0.0
     10     11     12     30   5     0.00000     0.00000     1.25520  0.0
     10     11     12     31   5     0.00000     0.00000     1.25520  0.0
     28     11     12     13   5     0.00000     0.00000     1.25520  0.0
     28     11     12     30   5     0.00000     0.00000     1.25520  0.0
     28     11     12     31   5     0.00000     0.00000     1.25520  0.0
     29     11     12     13   5     0.00000     0.00000     1.25520  0.0
     29     11     12     30   5     0.00000     0.00000     1.25520  0.0
     29     11     12     31   5     0.00000     0.00000     1.25520  0.0
     11     12     13     14   5     4.74884    -0.63178     1.67360  0.0
     11     12     13     32   5     0.00000     0.00000     1.25520  0.0
     11     12     13     33   5     0.00000     0.00000     1.25520  0.0
     30     12     13     14   5     0.00000     0.00000     1.25520  0.0
     30     12     13     32   5     0.00000     0.00000     1.25520  0.0
     30     12     13     33   5     0.00000     0.00000     1.25520  0.0
     31     12     13     14   5     0.00000     0.00000     1.25520  0.0
     31     12     13     32   5     0.00000     0.00000     1.25520  0.0
     31     12     13     33   5     0.00000     0.00000     1.25520  0.0
     12     13     14     15   5     4.74884    -0.63178     1.67360  0.0
     12     13     14     34   5     0.00000     0.00000     1.25520  0.0
     12     13     14     35   5     0.00000     0.00000     1.25520  0.0
     32     13     14     15   5     0.00000     0.00000     1.25520  0.0
     32     13     14     34   5     0.00000     0.00000     1.25520  0.0
     32     13     14     35   5     0.00000     0.00000     1.25520  0.0
     33     13     14     15   5     0.00000     0.00000     1.25520  0.0
     33     13     14     34   5     0.00000     0.00000     1.25520  0.0
     33     13     14     35   5     0.00000     0.00000     1.25520  0.0
     13     14     15     16   5     3.67355     4.10869     2.37651  0.0
     13     14     15     36   5     0.00000     0.00000     1.25520  0.0
     13     14     15     37   5     0.00000     0.00000     1.25520  0.0
     34     14     15     16   5     0.00000     0.00000     1.25520  0.0
     34     14     15     36   5     0.00000     0.00000     1.25520  0.0
     34     14     15     37   5     0.00000     0.00000     1.25520  0.0
     35     14     15     16   5     0.00000     0.00000     1.25520  0.0
     35     14     15     36   5     0.00000     0.00000     1.25520  0.0
     35     14     15     37   5     0.00000     0.00000     1.25520  0.0
     14     15     16     38   5     0.00000     0.00000     0.00000  0.0
     14     15     16     40   5    -3.67774    -0.67781     0.28033  0.0
     36     15     16     38   5     0.00000     0.00000     0.00000  0.0
     36     15     16     40   5     0.00000     0.00000     0.00000  0.0
     37     15     16     38   5     0.00000     0.00000     0.00000  0.0
     37     15     16     40   5     0.00000     0.00000     0.00000  0.0
     15     16     40     41   5     0.00000    25.47638     0.00000  0.0
     15     16     40     42   5    12.53945    12.88254     0.00000  0.0
     38     16     40     41   5     0.00000    20.50160     0.00000  0.0
     38     16     40     42   5     0.00000    20.50160     0.00000  0.0
     16     40     42     43   5    11.69428    -0.66526    -1.56900  0.0
     16     40     42     56   5     0.00000     0.00000     0.00000  0.0
     16     40     42     57   5     0.00000     0.00000     0.00000  0.0
     41     40     42     43   5     0.00000     2.52295     0.00000  0.0
     41     40     42     56   5     0.00000     0.00000     0.00000  0.0
     41     40     42     57   5     0.00000     0.00000     0.00000  0.0
     40     42     43     44   5    -8.00818    -1.52298     2.46438  0.0
     40     42     43     58   5     0.00000     0.00000    -0.94140  0.0
     40     42     43     59   5     0.00000     0.00000    -0.94140  0.0
     56     42     43     44   5     0.00000     0.00000     1.25520  0.0
     56     42     43     58   5     0.00000     0.00000     1.25520  0.0
     56     42     43     59   5     0.00000     0.00000     1.25520  0.0
     57     42     43     44   5     0.00000     0.00000     1.25520  0.0
     57     42     43     58   5     0.00000     0.00000     1.25520  0.0
     57     42     43     59   5     0.00000     0.00000     1.25520  0.0
     42     43     44     45   5     4.74884    -0.63178     1.67360  0.0
     42     43     44     60   5     0.00000     0.00000     1.25520  0.0
     42     43     44     61   5     0.00000     0.00000     1.25520  0.0
     58     43     44     45   5     0.00000     0.00000     1.25520  0.0
     58     43     44     60   5     0.00000     0.00000     1.25520  0.0
     58     43     44     61   5     0.00000     0.00000     1.25520  0.0
     59     43     44     45   5     0.00000     0.00000     1.25520  0.0
     59     43     44     60   5     0.00000     0.00000     1.25520  0.0
     59     43     44     61   5     0.00000     0.00000     1.25520  0.0
     43     44     45     46   5    -8.00818    -1.52298     2.46438  0.0
     43     44     45     62   5     0.00000     0.00000     1.25520  0.0
     43     44     45     63   5     0.00000     0.00000     1.25520  0.0
     60     44     45     46   5     0.00000     0.00000    -0.94140  0.0
     60     44     45     62   5     0.00000     0.00000     1.25520  0.0
     60     44     45     63   5     0.00000     0.00000     1.25520  0.0
     61     44     45     46   5     0.00000     0.00000    -0.94140  0.0
     61     44     45     62   5     0.00000     0.00000     1.25520  0.0
     61     44     45     63   5     0.00000     0.00000     1.25520  0.0
     44     45     46     47   5     0.00000     2.52295     0.00000  0.0
     44     45     46     48   5    11.69428    -0.66526    -1.56900  0.0
     62     45     46     47   5     0.00000     0.00000     0.00000  0.0
     62     45     46     48   5     0.00000     0.00000     0.00000  0.0
     63     45     46     47   5     0.00000     0.00000     0.00000  0.0
     63     45     46     48   5     0.00000     0.00000     0.00000  0.0
     45     46     48     49   5    12.53945    12.88254     0.00000  0.0
     45     46     48     64   5     0.00000    20.50160     0.00000  0.0
     47     46     48     49   5     0.00000    25.47638     0.00000  0.0
     47     46     48     64   5     0.00000    20.50160     0.00000  0.0
     46     48     49     50   5    -3.67774    -0.67781     0.28033  0.0
     46     48     49     65   5     0.00000     0.00000     0.00000  0.0
     46     48     49     66   5     0.00000     0.00000     0.00000  0.0
     64     48     49     50   5     0.00000     0.00000     0.00000  0.0
     64     48     49     65   5     0.00000     0.00000     0.00000  0.0
     64     48     49     66   5     0.00000     0.00000     0.00000  0.0
     48     49     50     51   5     3.67355     4.10869     2.37651  0.0
     48     49     50     67   5     0.00000     0.00000     1.25520  0.0
     48     49     50     68   5     0.00000     0.00000     1.25520  0.0
     65     49     50     51   5     0.00000     0.00000     1.25520  0.0
     65     49     50     67   5     0.00000     0.00000     1.25520  0.0
     65     49     50     68   5     0.00000     0.00000     1.25520  0.0
     66     49     50     51   5     0.00000     0.00000     1.25520  0.0
     66     49     50     67   5     0.00000     0.00000     1.25520  0.0
     66     49     50     68   5     0.00000     0.00000     1.25520  0.0
     49     50     51     52   5     4.74884    -0.63178     1.67360  0.0
     49     50     51     69   5     0.00000     0.00000     1.25520  0.0
     49     50     51     70   5     0.00000     0.00000     1.25520  0.0
     67     50     51     52   5     0.00000     0.00000     1.25520  0.0
     67     50     51     69   5     0.00000     0.00000     1.25520  0.0
     67     50     51     70   5     0.00000     0.00000     1.25520  0.0
     68     50     51     52   5     0.00000     0.00000     1.25520  0.0
     68     50     51     69   5     0.00000     0.00000     1.25520  0.0
     68     50     51     70   5     0.00000     0.00000     1.25520  0.0
     50     51     52     53   5     4.74884    -0.63178     1.67360  0.0
     50     51     52     71   5     0.00000     0.00000     1.25520  0.0
     50     51     52     72   5     0.00000     0.00000     1.25520  0.0
     69     51     52     53   5     0.00000     0.00000     1.25520  0.0
     69     51     52     71   5     0.00000     0.00000     1.25520  0.0
     69     51     52     72   5     0.00000     0.00000     1.25520  0.0
     70     51     52     53   5     0.00000     0.00000     1.25520  0.0
     70     51     52     71   5     0.00000     0.00000     1.25520  0.0
     70     51     52     72   5     0.00000     0.00000     1.25520  0.0
     51     52     53     54   5     4.74884    -0.63178     1.67360  0.0
     51     52     53     73   5     0.00000     0.00000     1.25520  0.0
     51     52     53     74   5     0.00000     0.00000     1.25520  0.0
     71     52     53     54   5     0.00000     0.00000     1.25520  0.0
     71     52     53     73   5     0.00000     0.00000     1.25520  0.0
     71     52     53     74   5     0.00000     0.00000     1.25520  0.0
     72     52     53     54   5     0.00000     0.00000     1.25520  0.0
     72     52     53     73   5     0.00000     0.00000     1.25520  0.0
     72     52     53     74   5     0.00000     0.00000     1.25520  0.0
     52     53     54     55   5     3.67355     4.10869     2.37651  0.0
     52     53     54     75   5     0.00000     0.00000     1.25520  0.0
     52     53     54     76   5     0.00000     0.00000     1.25520  0.0
     73     53     54     55   5     0.00000     0.00000     1.25520  0.0
     73     53     54     75   5     0.00000     0.00000     1.25520  0.0
     73     53     54     76   5     0.00000     0.00000     1.25520  0.0
     74     53     54     55   5     0.00000     0.00000     1.25520  0.0
     74     53     54     75   5     0.00000     0.00000     1.25520  0.0
     74     53     54     76   5     0.00000     0.00000     1.25520  0.0
     53     54     55     77   5     0.00000     0.00000     0.00000  0.0
     53     54     55     78   5    -3.67774    -0.67781     0.28033  0.0
     75     54     55     77   5     0.00000     0.00000     0.00000  0.0
     75     54     55     78   5     0.00000     0.00000     0.00000  0.0
     76     54     55     77   5     0.00000     0.00000     0.00000  0.0
     76     54     55     78   5     0.00000     0.00000     0.00000  0.0
     54     55     78     79   5     0.00000    25.47638     0.00000  0.0
     54     55     78     80   5    12.53945    12.88254     0.00000  0.0
     77     55     78     79   5     0.00000    20.50160     0.00000  0.0
     77     55     78     80   5     0.00000    20.50160     0.00000  0.0
     55     78     80     81   5    11.69428    -0.66526    -1.56900  0.0
     55     78     80     94   5     0.00000     0.00000     0.00000  0.0
     55     78     80     95   5     0.00000     0.00000     0.00000  0.0
     79     78     80     81   5     0.00000     2.52295     0.00000  0.0
     79     78     80     94   5     0.00000     0.00000     0.00000  0.0
     79     78     80     95   5     0.00000     0.00000     0.00000  0.0
     78     80     81     82   5    -8.00818    -1.52298     2.46438  0.0
     78     80     81     96   5     0.00000     0.00000    -0.94140  0.0
     78     80     81     97   5     0.00000     0.00000    -0.94140  0.0
     94     80     81     82   5     0.00000     0.00000     1.25520  0.0
     94     80     81     96   5     0.00000     0.00000     1.25520  0.0
     94     80     81     97   5     0.00000     0.00000     1.25520  0.0
     95     80     81     82   5     0.00000     0.00000     1.25520  0.0
     95     80     81     96   5     0.00000     0.00000     1.25520  0.0
     95     80     81     97   5     0.00000     0.00000     1.25520  0.0
     80     81     82     83   5     4.74884    -0.63178     1.67360  0.0
     80     81     82     98   5     0.00000     0.00000     1.25520  0.0
     80     81     82     99   5     0.00000     0.00000     1.25520  0.0
     96     81     82     83   5     0.00000     0.00000     1.25520  0.0
     96     81     82     98   5     0.00000     0.00000     1.25520  0.0
     96     81     82     99   5     0.00000     0.00000     1.25520  0.0
     97     81     82     83   5     0.00000     0.00000     1.25520  0.0
     97     81     82     98   5     0.00000     0.00000     1.25520  0.0
     97     81     82     99   5     0.00000     0.00000     1.25520  0.0
     81     82     83     84   5    -8.00818    -1.52298     2.46438  0.0
     81     82     83    100   5     0.00000     0.00000     1.25520  0.0
     81     82     83    101   5     0.00000     0.00000     1.25520  0.0
     98     82     83     84   5     0.00000     0.00000    -0.94140  0.0
     98     82     83    100   5     0.00000     0.00000     1.25520  0.0
     98     82     83    101   5     0.00000     0.00000     1.25520  0.0
     99     82     83     84   5     0.00000     0.00000    -0.94140  0.0
     99     82     83    100   5     0.00000     0.00000     1.25520  0.0
     99     82     83    101   5     0.00000     0.00000     1.25520  0.0
     82     83     84     85   5     0.00000     2.52295     0.00000  0.0
     82     83     84     86   5    11.69428    -0.66526    -1.56900  0.0
    100     83     84     85   5     0.00000     0.00000     0.00000  0.0
    100     83     84     86   5     0.00000     0.00000     0.00000  0.0
    101     83     84     85   5     0.00000     0.00000     0.00000  0.0
    101     83     84     86   5     0.00000     0.00000     0.00000  0.0
     83     84     86     87   5    12.53945    12.88254     0.00000  0.0
     83     84     86    102   5     0.00000    20.50160     0.00000  0.0
     85     84     86     87   5     0.00000    25.47638     0.00000  0.0
     85     84     86    102   5     0.00000    20.50160     0.00000  0.0
     84     86     87     88   5    -3.67774    -0.67781     0.28033  0.0
     84     86     87    103   5     0.00000     0.00000     0.00000  0.0
     84     86     87    104   5     0.00000     0.00000     0.00000  0.0
    102     86     87     88   5     0.00000     0.00000     0.00000  0.0
    102     86     87    103   5     0.00000     0.00000     0.00000  0.0
    102     86     87    104   5     0.00000     0.00000     0.00000  0.0
     86     87     88     89   5     3.67355     4.10869     2.37651  0.0
     86     87     88    105   5     0.00000     0.00000     1.25520  0.0
     86     87     88    106   5     0.00000     0.00000     1.25520  0.0
    103     87     88     89   5     0.00000     0.00000     1.25520  0.0
    103     87     88    105   5     0.00000     0.00000     1.25520  0.0
    103     87     88    106   5     0.00000     0.00000     1.25520  0.0
    104     87     88     89   5     0.00000     0.00000     1.25520  0.0
    104     87     88    105   5     0.00000     0.00000     1.25520  0.0
    104     87     88    106   5     0.00000     0.00000     1.25520  0.0
     87     88     89     90   5     4.74884    -0.63178     1.67360  0.0
     87     88     89    107   5     0.00000     0.00000     1.25520  0.0
     87     88     89    108   5     0.00000     0.00000     1.25520  0.0
    105     88     89     90   5     0.00000     0.00000     1.25520  0.0
    105     88     89    107   5     0.00000     0.00000     1.25520  0.0
    105     88     89    108   5     0.00000     0.00000     1.25520  0.0
    106     88     89     90   5     0.00000     0.00000     1.25520  0.0
    106     88     89    107   5     0.00000     0.00000     1.25520  0.0
    106     88     89    108   5     0.00000     0.00000     1.25520  0.0
     88     89     90     91   5     4.74884    -0.63178     1.67360  0.0
     88     89     90    109   5     0.00000     0.00000     1.25520  0.0
     88     89     90    110   5     0.00000     0.00000     1.25520  0.0
    107     89     90     91   5     0.00000     0.00000     1.25520  0.0
    107     89     90    109   5     0.00000     0.00000     1.25520  0.0
    107     89     90    110   5     0.00000     0.00000     1.25520  0.0
    108     89     90     91   5     0.00000     0.00000     1.25520  0.0
    108     89     90    109   5     0.00000     0.00000     1.25520  0.0
    108     89     90    110   5     0.00000     0.00000     1.25520  0.0
     89     90     91     92   5     4.74884    -0.63178     1.67360  0.0
     89     90     91    111   5     0.00000     0.00000     1.25520  0.0
     89     90     91    112   5     0.00000     0.00000     1.25520  0.0
    109     90     91     92   5     0.00000     0.00000     1.25520  0.0
    109     90     91    111   5     0.00000     0.00000     1.25520  0.0
    109     90     91    112   5     0.00000     0.00000     1.25520  0.0
    110     90     91     92   5     0.00000     0.00000     1.25520  0.0
    110     90     91    111   5     0.00000     0.00000     1.25520  0.0
    110     90     91    112   5     0.00000     0.00000     1.25520  0.0
     90     91     92     93   5     3.67355     4.10869     2.37651  0.0
     90     91     92    113   5     0.00000     0.00000     1.25520  0.0
     90     91     92    114   5     0.00000     0.00000     1.25520  0.0
    111     91     92     93   5     0.00000     0.00000     1.25520  0.0
    111     91     92    113   5     0.00000     0.00000     1.25520  0.0
    111     91     92    114   5     0.00000     0.00000     1.25520  0.0
    112     91     92     93   5     0.00000     0.00000     1.25520  0.0
    112     91     92    113   5     0.00000     0.00000     1.25520  0.0
    112     91     92    114   5     0.00000     0.00000     1.25520  0.0
     91     92     93    115   5     0.00000     0.00000     0.00000  0.0
     91     92     93    116   5    -3.67774    -0.67781     0.28033  0.0
    113     92     93    115   5     0.00000     0.00000     0.00000  0.0
    113     92     93    116   5     0.00000     0.00000     0.00000  0.0
    114     92     93    115   5     0.00000     0.00000     0.00000  0.0
    114     92     93    116   5     0.00000     0.00000     0.00000  0.0
     92     93    116    117   5     0.00000    25.47638     0.00000  0.0
     92     93    116    118   5    12.53945    12.88254     0.00000  0.0
    115     93    116    117   5     0.00000    20.50160     0.00000  0.0
    115     93    116    118   5     0.00000    20.50160     0.00000  0.0
     93    116    118    119   5    11.69428    -0.66526    -1.56900  0.0
     93    116    118    132   5     0.00000     0.00000     0.00000  0.0
     93    116    118    133   5     0.00000     0.00000     0.00000  0.0
    117    116    118    119   5     0.00000     2.52295     0.00000  0.0
    117    116    118    132   5     0.00000     0.00000     0.00000  0.0
    117    116    118    133   5     0.00000     0.00000     0.00000  0.0
    116    118    119    120   5    -8.00818    -1.52298     2.46438  0.0
    116    118    119    134   5     0.00000     0.00000    -0.94140  0.0
    116    118    119    135   5     0.00000     0.00000    -0.94140  0.0
    132    118    119    120   5     0.00000     0.00000     1.25520  0.0
    132    118    119    134   5     0.00000     0.00000     1.25520  0.0
    132    118    119    135   5     0.00000     0.00000     1.25520  0.0
    133    118    119    120   5     0.00000     0.00000     1.25520  0.0
    133    118    119    134   5     0.00000     0.00000     1.25520  0.0
    133    118    119    135   5     0.00000     0.00000     1.25520  0.0
    118    119    120    121   5     4.74884    -0.63178     1.67360  0.0
    118    119    120    136   5     0.00000     0.00000     1.25520  0.0
    118    119    120    137   5     0.00000     0.00000     1.25520  0.0
    134    119    120    121   5     0.00000     0.00000     1.25520  0.0
    134    119    120    136   5     0.00000     0.00000     1.25520  0.0
    134    119    120    137   5     0.00000     0.00000     1.25520  0.0
    135    119    120    121   5     0.00000     0.00000     1.25520  0.0
    135    119    120    136   5     0.00000     0.00000     1.25520  0.0
    135    119    120    137   5     0.00000     0.00000     1.25520  0.0
    119    120    121    122   5    -8.00818    -1.52298     2.46438  0.0
    119    120    121    138   5     0.00000     0.00000     1.25520  0.0
    119    120    121    139   5     0.00000     0.00000     1.25520  0.0
    136    120    121    122   5     0.00000     0.00000    -0.94140  0.0
    136    120    121    138   5     0.00000     0.00000     1.25520  0.0
    136    120    121    139   5     0.00000     0.00000     1.25520  0.0
    137    120    121    122   5     0.00000     0.00000    -0.94140  0.0
    137    120    121    138   5     0.00000     0.00000     1.25520  0.0
    137    120    121    139   5     0.00000     0.00000     1.25520  0.0
    120    121    122    123   5     0.00000     2.52295     0.00000  0.0
    120    121    122    124   5    11.69428    -0.66526    -1.56900  0.0
    138    121    122    123   5     0.00000     0.00000     0.00000  0.0
    138    121    122    124   5     0.00000     0.00000     0.00000  0.0
    139    121    122    123   5     0.00000     0.00000     0.00000  0.0
    139    121    122    124   5     0.00000     0.00000     0.00000  0.0
    121    122    124    125   5    12.53945    12.88254     0.00000  0.0
    121    122    124    140   5     0.00000    20.50160     0.00000  0.0
    123    122    124    125   5     0.00000    25.47638     0.00000  0.0
    123    122    124    140   5     0.00000    20.50160     0.00000  0.0
    122    124    125    126   5    -3.67774    -0.67781     0.28033  0.0
    122    124    125    141   5     0.00000     0.00000     0.00000  0.0
    122    124    125    142   5     0.00000     0.00000     0.00000  0.0
    140    124    125    126   5     0.00000     0.00000     0.00000  0.0
    140    124    125    141   5     0.00000     0.00000     0.00000  0.0
    140    124    125    142   5     0.00000     0.00000     0.00000  0.0
    124    125    126    127   5     3.67355     4.10869     2.37651  0.0
    124    125    126    143   5     0.00000     0.00000     1.25520  0.0
    124    125    126    144   5     0.00000     0.00000     1.25520  0.0
    141    125    126    127   5     0.00000     0.00000     1.25520  0.0
    141    125    126    143   5     0.00000     0.00000     1.25520  0.0
    141    125    126    144   5     0.00000     0.00000     1.25520  0.0
    142    125    126    127   5     0.00000     0.00000     1.25520  0.0
    142    125    126    143   5     0.00000     0.00000     1.25520  0.0
    142    125    126    144   5     0.00000     0.00000     1.25520  0.0
    125    126    127    128   5     4.74884    -0.63178     1.67360  0.0
    125    126    127    145   5     0.00000     0.00000     1.25520  0.0
    125    126    127    146   5     0.00000     0.00000     1.25520  0.0
    143    126    127    128   5     0.00000     0.00000     1.25520  0.0
    143    126    127    145   5     0.00000     0.00000     1.25520  0.0
    143    126    127    146   5     0.00000     0.00000     1.25520  0.0
    144    126    127    128   5     0.00000     0.00000     1.25520  0.0
    144    126    127    145   5     0.00000     0.00000     1.25520  0.0
    144    126    127    146   5     0.00000     0.00000     1.25520  0.0
    126    127    128    129   5     4.74884    -0.63178     1.67360  0.0
    126    127    128    147   5     0.00000     0.00000     1.25520  0.0
    126    127    128    148   5     0.00000     0.00000     1.25520  0.0
    145    127    128    129   5     0.00000     0.00000     1.25520  0.0
    145    127    128    147   5     0.00000     0.00000     1.25520  0.0
    145    127    128    148   5     0.00000     0.00000     1.25520  0.0
    146    127    128    129   5     0.00000     0.00000     1.25520  0.0
    146    127    128    147   5     0.00000     0.00000     1.25520  0.0
    146    127    128    148   5     0.00000     0.00000     1.25520  0.0
    127    128    129    130   5     4.74884    -0.63178     1.67360  0.0
    127    128    129    149   5     0.00000     0.00000     1.25520  0.0
    127    128    129    150   5     0.00000     0.00000     1.25520  0.0
    147    128    129    130   5     0.00000     0.00000     1.25520  0.0
    147    128    129    149   5     0.00000     0.00000     1.25520  0.0
    147    128    129    150   5     0.00000     0.00000     1.25520  0.0
    148    128    129    130   5     0.00000     0.00000     1.25520  0.0
    148    128    129    149   5     0.00000     0.00000     1.25520  0.0
    148    128    129    150   5     0.00000     0.00000     1.25520  0.0
    128    129    130    131   5     3.67355     4.10869     2.37651  0.0
    128    129    130    151   5     0.00000     0.00000     1.25520  0.0
    128    129    130    152   5     0.00000     0.00000     1.25520  0.0
    149    129    130    131   5     0.00000     0.00000     1.25520  0.0
    149    129    130    151   5     0.00000     0.00000     1.25520  0.0
    149    129    130    152   5     0.00000     0.00000     1.25520  0.0
    150    129    130    131   5     0.00000     0.00000     1.25520  0.0
    150    129    130    151   5     0.00000     0.00000     1.25520  0.0
    150    129    130    152   5     0.00000     0.00000     1.25520  0.0
    129    130    131    153   5     0.00000     0.00000     0.00000  0.0
    129    130    131    154   5    -3.67774    -0.67781     0.28033  0.0
    151    130    131    153   5     0.00000     0.00000     0.00000  0.0
    151    130    131    154   5     0.00000     0.00000     0.00000  0.0
    152    130    131    153   5     0.00000     0.00000     0.00000  0.0
    152    130    131    154   5     0.00000     0.00000     0.00000  0.0
    130    131    154    155   5     0.00000    25.47638     0.00000  0.0
    130    131    154    156   5    12.53945    12.88254     0.00000  0.0
    153    131    154    155   5     0.00000    20.50160     0.00000  0.0
    153    131    154    156   5     0.00000    20.50160     0.00000  0.0
    131    154    156    157   5    11.69428    -0.66526    -1.56900  0.0
    131    154    156    170   5     0.00000     0.00000     0.00000  0.0
    131    154    156    171   5     0.00000     0.00000     0.00000  0.0
    155    154    156    157   5     0.00000     2.52295     0.00000  0.0
    155    154    156    170   5     0.00000     0.00000     0.00000  0.0
    155    154    156    171   5     0.00000     0.00000     0.00000  0.0
    154    156    157    158   5    -8.00818    -1.52298     2.46438  0.0
    154    156    157    172   5     0.00000     0.00000    -0.94140  0.0
    154    156    157    173   5     0.00000     0.00000    -0.94140  0.0
    170    156    157    158   5     0.00000     0.00000     1.25520  0.0
    170    156    157    172   5     0.00000     0.00000     1.25520  0.0
    170    156    157    173   5     0.00000     0.00000     1.25520  0.0
    171    156    157    158   5     0.00000     0.00000     1.25520  0.0
    171    156    157    172   5     0.00000     0.00000     1.25520  0.0
    171    156    157    173   5     0.00000     0.00000     1.25520  0.0
    156    157    158    159   5     4.74884    -0.63178     1.67360  0.0
    156    157    158    174   5     0.00000     0.00000     1.25520  0.0
    156    157    158    175   5     0.00000     0.00000     1.25520  0.0
    172    157    158    159   5     0.00000     0.00000     1.25520  0.0
    172    157    158    174   5     0.00000     0.00000     1.25520  0.0
    172    157    158    175   5     0.00000     0.00000     1.25520  0.0
    173    157    158    159   5     0.00000     0.00000     1.25520  0.0
    173    157    158    174   5     0.00000     0.00000     1.25520  0.0
    173    157    158    175   5     0.00000     0.00000     1.25520  0.0
    157    158    159    160   5    -8.00818    -1.52298     2.46438  0.0
    157    158    159    176   5     0.00000     0.00000     1.25520  0.0
    157    158    159    177   5     0.00000     0.00000     1.25520  0.0
    174    158    159    160   5     0.00000     0.00000    -0.94140  0.0
    174    158    159    176   5     0.00000     0.00000     1.25520  0.0
    174    158    159    177   5     0.00000     0.00000     1.25520  0.0
    175    158    159    160   5     0.00000     0.00000    -0.94140  0.0
    175    158    159    176   5     0.00000     0.00000     1.25520  0.0
    175    158    159    177   5     0.00000     0.00000     1.25520  0.0
    158    159    160    161   5     0.00000     2.52295     0.00000  0.0
    158    159    160    162   5    11.69428    -0.66526    -1.56900  0.0
    176    159    160    161   5     0.00000     0.00000     0.00000  0.0
    176    159    160    162   5     0.00000     0.00000     0.00000  0.0
    177    159    160    161   5     0.00000     0.00000     0.00000  0.0
    177    159    160    162   5     0.00000     0.00000     0.00000  0.0
    159    160    162    163   5    12.53945    12.88254     0.00000  0.0
    159    160    162    178   5     0.00000    20.50160     0.00000  0.0
    161    160    162    163   5     0.00000    25.47638     0.00000  0.0
    161    160    162    178   5     0.00000    20.50160     0.00000  0.0
    160    162    163    164   5    -3.67774    -0.67781     0.28033  0.0
    160    162    163    179   5     0.00000     0.00000     0.00000  0.0
    160    162    163    180   5     0.00000     0.00000     0.00000  0.0
    178    162    163    164   5     0.00000     0.00000     0.00000  0.0
    178    162    163    179   5     0.00000     0.00000     0.00000  0.0
    178    162    163    180   5     0.00000     0.00000     0.00000  0.0
    162    163    164    165   5     3.67355     4.10869     2.37651  0.0
    162    163    164    181   5     0.00000     0.00000     1.25520  0.0
    162    163    164    182   5     0.00000     0.00000     1.25520  0.0
    179    163    164    165   5     0.00000     0.00000     1.25520  0.0
    179    163    164    181   5     0.00000     0.00000     1.25520  0.0
    179    163    164    182   5     0.00000     0.00000     1.25520  0.0
    180    163    164    165   5     0.00000     0.00000     1.25520  0.0
    180    163    164    181   5     0.00000     0.00000     1.25520  0.0
    180    163    164    182   5     0.00000     0.00000     1.25520  0.0
    163    164    165    166   5     4.74884    -0.63178     1.67360  0.0
    163    164    165    183   5     0.00000     0.00000     1.25520  0.0
    163    164    165    184   5     0.00000     0.00000     1.25520  0.0
    181    164    165    166   5     0.00000     0.00000     1.25520  0.0
    181    164    165    183   5     0.00000     0.00000     1.25520  0.0
    181    164    165    184   5     0.00000     0.00000     1.25520  0.0
    182    164    165    166   5     0.00000     0.00000     1.25520  0.0
    182    164    165    183   5     0.00000     0.00000     1.25520  0.0
    182    164    165    184   5     0.00000     0.00000     1.25520  0.0
    164    165    166    167   5     4.74884    -0.63178     1.67360  0.0
    164    165    166    185   5     0.00000     0.00000     1.25520  0.0
    164    165    166    186   5     0.00000     0.00000     1.25520  0.0
    183    165    166    167   5     0.00000     0.00000     1.25520  0.0
    183    165    166    185   5     0.00000     0.00000     1.25520  0.0
    183    165    166    186   5     0.00000     0.00000     1.25520  0.0
    184    165    166    167   5     0.00000     0.00000     1.25520  0.0
    184    165    166    185   5     0.00000     0.00000     1.25520  0.0
    184    165    166    186   5     0.00000     0.00000     1.25520  0.0
    165    166    167    168   5     4.74884    -0.63178     1.67360  0.0
    165    166    167    187   5     0.00000     0.00000     1.25520  0.0
    165    166    167    188   5     0.00000     0.00000     1.25520  0.0
    185    166    167    168   5     0.00000     0.00000     1.25520  0.0
    185    166    167    187   5     0.00000     0.00000     1.25520  0.0
    185    166    167    188   5     0.00000     0.00000     1.25520  0.0
    186    166    167    168   5     0.00000     0.00000     1.25520  0.0
    186    166    167    187   5     0.00000     0.00000     1.25520  0.0
    186    166    167    188   5     0.00000     0.00000     1.25520  0.0
    166    167    168    169   5     3.67355     4.10869     2.37651  0.0
    166    167    168    189   5     0.00000     0.00000     1.25520  0.0
    166    167    168    190   5     0.00000     0.00000     1.25520  0.0
    187    167    168    169   5     0.00000     0.00000     1.25520  0.0
    187    167    168    189   5     0.00000     0.00000     1.25520  0.0
    187    167    168    190   5     0.00000     0.00000     1.25520  0.0
    188    167    168    169   5     0.00000     0.00000     1.25520  0.0
    188    167    168    189   5     0.00000     0.00000     1.25520  0.0
    188    167    168    190   5     0.00000     0.00000     1.25520  0.0
    167    168    169    191   5     0.00000     0.00000     0.00000  0.0
    167    168    169    192   5    -3.67774    -0.67781     0.28033  0.0
    189    168    169    191   5     0.00000     0.00000     0.00000  0.0
    189    168    169    192   5     0.00000     0.00000     0.00000  0.0
    190    168    169    191   5     0.00000     0.00000     0.00000  0.0
    190    168    169    192   5     0.00000     0.00000     0.00000  0.0
    168    169    192    193   5     0.00000    25.47638     0.00000  0.0
    168    169    192    194   5    12.53945    12.88254     0.00000  0.0
    191    169    192    193   5     0.00000    20.50160     0.00000  0.0
    191    169    192    194   5     0.00000    20.50160     0.00000  0.0
    169    192    194    195   5    11.69428    -0.66526    -1.56900  0.0
    169    192    194    208   5     0.00000     0.00000     0.00000  0.0
    169    192    194    209   5     0.00000     0.00000     0.00000  0.0
    193    192    194    195   5     0.00000     2.52295     0.00000  0.0
    193    192    194    208   5     0.00000     0.00000     0.00000  0.0
    193    192    194    209   5     0.00000     0.00000     0.00000  0.0
    192    194    195    196   5    -8.00818    -1.52298     2.46438  0.0
    192    194    195    210   5     0.00000     0.00000    -0.94140  0.0
    192    194    195    211   5     0.00000     0.00000    -0.94140  0.0
    208    194    195    196   5     0.00000     0.00000     1.25520  0.0
    208    194    195    210   5     0.00000     0.00000     1.25520  0.0
    208    194    195    211   5     0.00000     0.00000     1.25520  0.0
    209    194    195    196   5     0.00000     0.00000     1.25520  0.0
    209    194    195    210   5     0.00000     0.00000     1.25520  0.0
    209    194    195    211   5     0.00000     0.00000     1.25520  0.0
    194    195    196    197   5     4.74884    -0.63178     1.67360  0.0
    194    195    196    212   5     0.00000     0.00000     1.25520  0.0
    194    195    196    213   5     0.00000     0.00000     1.25520  0.0
    210    195    196    197   5     0.00000     0.00000     1.25520  0.0
    210    195    196    212   5     0.00000     0.00000     1.25520  0.0
    210    195    196    213   5     0.00000     0.00000     1.25520  0.0
    211    195    196    197   5     0.00000     0.00000     1.25520  0.0
    211    195    196    212   5     0.00000     0.00000     1.25520  0.0
    211    195    196    213   5     0.00000     0.00000     1.25520  0.0
    195    196    197    198   5    -8.00818    -1.52298     2.46438  0.0
    195    196    197    214   5     0.00000     0.00000     1.25520  0.0
    195    196    197    215   5     0.00000     0.00000     1.25520  0.0
    212    196    197    198   5     0.00000     0.00000    -0.94140  0.0
    212    196    197    214   5     0.00000     0.00000     1.25520  0.0
    212    196    197    215   5     0.00000     0.00000     1.25520  0.0
    213    196    197    198   5     0.00000     0.00000    -0.94140  0.0
    213    196    197    214   5     0.00000     0.00000     1.25520  0.0
    213    196    197    215   5     0.00000     0.00000     1.25520  0.0
    196    197    198    199   5     0.00000     2.52295     0.00000  0.0
    196    197    198    200   5    11.69428    -0.66526    -1.56900  0.0
    214    197    198    199   5     0.00000     0.00000     0.00000  0.0
    214    197    198    200   5     0.00000     0.00000     0.00000  0.0
    215    197    198    199   5     0.00000     0.00000     0.00000  0.0
    215    197    198    200   5     0.00000     0.00000     0.00000  0.0
    197    198    200    201   5    12.53945    12.88254     0.00000  0.0
    197    198    200    216   5     0.00000    20.50160     0.00000  0.0
    199    198    200    201   5     0.00000    25.47638     0.00000  0.0
    199    198    200    216   5     0.00000    20.50160     0.00000  0.0
    198    200    201    202   5    -3.67774    -0.67781     0.28033  0.0
    198    200    201    217   5     0.00000     0.00000     0.00000  0.0
    198    200    201    218   5     0.00000     0.00000     0.00000  0.0
    216    200    201    202   5     0.00000     0.00000     0.00000  0.0
    216    200    201    217   5     0.00000     0.00000     0.00000  0.0
    216    200    201    218   5     0.00000     0.00000     0.00000  0.0
    200    201    202    203   5     3.67355     4.10869     2.37651  0.0
    200    201    202    219   5     0.00000     0.00000     1.25520  0.0
    200    201    202    220   5     0.00000     0.00000     1.25520  0.0
    217    201    202    203   5     0.00000     0.00000     1.25520  0.0
    217    201    202    219   5     0.00000     0.00000     1.25520  0.0
    217    201    202    220   5     0.00000     0.00000     1.25520  0.0
    218    201    202    203   5     0.00000     0.00000     1.25520  0.0
    218    201    202    219   5     0.00000     0.00000     1.25520  0.0
    218    201    202    220   5     0.00000     0.00000     1.25520  0.0
    201    202    203    204   5     4.74884    -0.63178     1.67360  0.0
    201    202    203    221   5     0.00000     0.00000     1.25520  0.0
    201    202    203    222   5     0.00000     0.00000     1.25520  0.0
    219    202    203    204   5     0.00000     0.00000     1.25520  0.0
    219    202    203    221   5     0.00000     0.00000     1.25520  0.0
    219    202    203    222   5     0.00000     0.00000     1.25520  0.0
    220    202    203    204   5     0.00000     0.00000     1.25520  0.0
    220    202    203    221   5     0.00000     0.00000     1.25520  0.0
    220    202    203    222   5     0.00000     0.00000     1.25520  0.0
    202    203    204    205   5     4.74884    -0.63178     1.67360  0.0
    202    203    204    223   5     0.00000     0.00000     1.25520  0.0
    202    203    204    224   5     0.00000     0.00000     1.25520  0.0
    221    203    204    205   5     0.00000     0.00000     1.25520  0.0
    221    203    204    223   5     0.00000     0.00000     1.25520  0.0
    221    203    204    224   5     0.00000     0.00000     1.25520  0.0
    222    203    204    205   5     0.00000     0.00000     1.25520  0.0
    222    203    204    223   5     0.00000     0.00000     1.25520  0.0
    222    203    204    224   5     0.00000     0.00000     1.25520  0.0
    203    204    205    206   5     4.74884    -0.63178     1.67360  0.0
    203    204    205    225   5     0.00000     0.00000     1.25520  0.0
    203    204    205    226   5     0.00000     0.00000     1.25520  0.0
    223    204    205    206   5     0.00000     0.00000     1.25520  0.0
    223    204    205    225   5     0.00000     0.00000     1.25520  0.0
    223    204    205    226   5     0.00000     0.00000     1.25520  0.0
    224    204    205    206   5     0.00000     0.00000     1.25520  0.0
    224    204    205    225   5     0.00000     0.00000     1.25520  0.0
    224    204    205    226   5     0.00000     0.00000     1.25520  0.0
    204    205    206    207   5     3.67355     4.10869     2.37651  0.0
    204    205    206    227   5     0.00000     0.00000     1.25520  0.0
    204    205    206    228   5     0.00000     0.00000     1.25520  0.0
    225    205    206    207   5     0.00000     0.00000     1.25520  0.0
    225    205    206    227   5     0.00000     0.00000     1.25520  0.0
    225    205    206    228   5     0.00000     0.00000     1.25520  0.0
    226    205    206    207   5     0.00000     0.00000     1.25520  0.0
    226    205    206    227   5     0.00000     0.00000     1.25520  0.0
    226    205    206    228   5     0.00000     0.00000     1.25520  0.0
    205    206    207    229   5     0.00000     0.00000     0.00000  0.0
    205    206    207    230   5    -3.67774    -0.67781     0.28033  0.0
    227    206    207    229   5     0.00000     0.00000     0.00000  0.0
    227    206    207    230   5     0.00000     0.00000     0.00000  0.0
    228    206    207    229   5     0.00000     0.00000     0.00000  0.0
    228    206    207    230   5     0.00000     0.00000     0.00000  0.0
    206    207    230    231   5     0.00000    25.47638     0.00000  0.0
    206    207    230    232   5    12.53945    12.88254     0.00000  0.0
    229    207    230    231   5     0.00000    20.50160     0.00000  0.0
    229    207    230    232   5     0.00000    20.50160     0.00000  0.0
    207    230    232    233   5    11.69428    -0.66526    -1.56900  0.0
    207    230    232    246   5     0.00000     0.00000     0.00000  0.0
    207    230    232    247   5     0.00000     0.00000     0.00000  0.0
    231    230    232    233   5     0.00000     2.52295     0.00000  0.0
    231    230    232    246   5     0.00000     0.00000     0.00000  0.0
    231    230    232    247   5     0.00000     0.00000     0.00000  0.0
    230    232    233    234   5    -8.00818    -1.52298     2.46438  0.0
    230    232    233    248   5     0.00000     0.00000    -0.94140  0.0
    230    232    233    249   5     0.00000     0.00000    -0.94140  0.0
    246    232    233    234   5     0.00000     0.00000     1.25520  0.0
    246    232    233    248   5     0.00000     0.00000     1.25520  0.0
    246    232    233    249   5     0.00000     0.00000     1.25520  0.0
    247    232    233    234   5     0.00000     0.00000     1.25520  0.0
    247    232    233    248   5     0.00000     0.00000     1.25520  0.0
    247    232    233    249   5     0.00000     0.00000     1.25520  0.0
    232    233    234    235   5     4.74884    -0.63178     1.67360  0.0
    232    233    234    250   5     0.00000     0.00000     1.25520  0.0
    232    233    234    251   5     0.00000     0.00000     1.25520  0.0
    248    233    234    235   5     0.00000     0.00000     1.25520  0.0
    248    233    234    250   5     0.00000     0.00000     1.25520  0.0
    248    233    234    251   5     0.00000     0.00000     1.25520  0.0
    249    233    234    235   5     0.00000     0.00000     1.25520  0.0
    249    233    234    250   5     0.00000     0.00000     1.25520  0.0
    249    233    234    251   5     0.00000     0.00000     1.25520  0.0
    233    234    235    236   5    -8.00818    -1.52298     2.46438  0.0
    233    234    235    252   5     0.00000     0.00000     1.25520  0.0
    233    234    235    253   5     0.00000     0.00000     1.25520  0.0
    250    234    235    236   5     0.00000     0.00000    -0.94140  0.0
    250    234    235    252   5     0.00000     0.00000     1.25520  0.0
    250    234    235    253   5     0.00000     0.00000     1.25520  0.0
    251    234    235    236   5     0.00000     0.00000    -0.94140  0.0
    251    234    235    252   5     0.00000     0.00000     1.25520  0.0
    251    234    235    253   5     0.00000     0.00000     1.25520  0.0
    234    235    236    237   5     0.00000     2.52295     0.00000  0.0
    234    235    236    238   5    11.69428    -0.66526    -1.56900  0.0
    252    235    236    237   5     0.00000     0.00000     0.00000  0.0
    252    235    236    238   5     0.00000     0.00000     0.00000  0.0
    253    235    236    237   5     0.00000     0.00000     0.00000  0.0
    253    235    236    238   5     0.00000     0.00000     0.00000  0.0
    235    236    238    239   5    12.53945    12.88254     0.00000  0.0
    235    236    238    254   5     0.00000    20.50160     0.00000  0.0
    237    236    238    239   5     0.00000    25.47638     0.00000  0.0
    237    236    238    254   5     0.00000    20.50160     0.00000  0.0
    236    238    239    240   5    -3.67774    -0.67781     0.28033  0.0
    236    238    239    255   5     0.00000     0.00000     0.00000  0.0
    236    238    239    256   5     0.00000     0.00000     0.00000  0.0
    254    238    239    240   5     0.00000     0.00000     0.00000  0.0
    254    238    239    255   5     0.00000     0.00000     0.00000  0.0
    254    238    239    256   5     0.00000     0.00000     0.00000  0.0
    238    239    240    241   5     3.67355     4.10869     2.37651  0.0
    238    239    240    257   5     0.00000     0.00000     1.25520  0.0
    238    239    240    258   5     0.00000     0.00000     1.25520  0.0
    255    239    240    241   5     0.00000     0.00000     1.25520  0.0
    255    239    240    257   5     0.00000     0.00000     1.25520  0.0
    255    239    240    258   5     0.00000     0.00000     1.25520  0.0
    256    239    240    241   5     0.00000     0.00000     1.25520  0.0
    256    239    240    257   5     0.00000     0.00000     1.25520  0.0
    256    239    240    258   5     0.00000     0.00000     1.25520  0.0
    239    240    241    242   5     4.74884    -0.63178     1.67360  0.0
    239    240    241    259   5     0.00000     0.00000     1.25520  0.0
    239    240    241    260   5     0.00000     0.00000     1.25520  0.0
    257    240    241    242   5     0.00000     0.00000     1.25520  0.0
    257    240    241    259   5     0.00000     0.00000     1.25520  0.0
    257    240    241    260   5     0.00000     0.00000     1.25520  0.0
    258    240    241    242   5     0.00000     0.00000     1.25520  0.0
    258    240    241    259   5     0.00000     0.00000     1.25520  0.0
    258    240    241    260   5     0.00000     0.00000     1.25520  0.0
    240    241    242    243   5     4.74884    -0.63178     1.67360  0.0
    240    241    242    261   5     0.00000     0.00000     1.25520  0.0
    240    241    242    262   5     0.00000     0.00000     1.25520  0.0
    259    241    242    243   5     0.00000     0.00000     1.25520  0.0
    259    241    242    261   5     0.00000     0.00000     1.25520  0.0
    259    241    242    262   5     0.00000     0.00000     1.25520  0.0
    260    241    242    243   5     0.00000     0.00000     1.25520  0.0
    260    241    242    261   5     0.00000     0.00000     1.25520  0.0
    260    241    242    262   5     0.00000     0.00000     1.25520  0.0
    241    242    243    244   5     4.74884    -0.63178     1.67360  0.0
    241    242    243    263   5     0.00000     0.00000     1.25520  0.0
    241    242    243    264   5     0.00000     0.00000     1.25520  0.0
    261    242    243    244   5     0.00000     0.00000     1.25520  0.0
    261    242    243    263   5     0.00000     0.00000     1.25520  0.0
    261    242    243    264   5     0.00000     0.00000     1.25520  0.0
    262    242    243    244   5     0.00000     0.00000     1.25520  0.0
    262    242    243    263   5     0.00000     0.00000     1.25520  0.0
    262    242    243    264   5     0.00000     0.00000     1.25520  0.0
    242    243    244    245   5     3.67355     4.10869     2.37651  0.0
    242    243    244    265   5     0.00000     0.00000     1.25520  0.0
    242    243    244    266   5     0.00000     0.00000     1.25520  0.0
    263    243    244    245   5     0.00000     0.00000     1.25520  0.0
    263    243    244    265   5     0.00000     0.00000     1.25520  0.0
    263    243    244    266   5     0.00000     0.00000     1.25520  0.0
    264    243    244    245   5     0.00000     0.00000     1.25520  0.0
    264    243    244    265   5     0.00000     0.00000     1.25520  0.0
    264    243    244    266   5     0.00000     0.00000     1.25520  0.0
    243    244    245    267   5     0.00000     0.00000     0.00000  0.0
    243    244    245    268   5    -3.67774    -0.67781     0.28033  0.0
    265    244    245    267   5     0.00000     0.00000     0.00000  0.0
    265    244    245    268   5     0.00000     0.00000     0.00000  0.0
    266    244    245    267   5     0.00000     0.00000     0.00000  0.0
    266    244    245    268   5     0.00000     0.00000     0.00000  0.0
    244    245    268    269   5     0.00000    25.47638     0.00000  0.0
    244    245    268    270   5    12.53945    12.88254     0.00000  0.0
    267    245    268    269   5     0.00000    20.50160     0.00000  0.0
    267    245    268    270   5     0.00000    20.50160     0.00000  0.0
    245    268    270    271   5    11.69428    -0.66526    -1.56900  0.0
    245    268    270    284   5     0.00000     0.00000     0.00000  0.0
    245    268    270    285   5     0.00000     0.00000     0.00000  0.0
    269    268    270    271   5     0.00000     2.52295     0.00000  0.0
    269    268    270    284   5     0.00000     0.00000     0.00000  0.0
    269    268    270    285   5     0.00000     0.00000     0.00000  0.0
    268    270    271    272   5    -8.00818    -1.52298     2.46438  0.0
    268    270    271    286   5     0.00000     0.00000    -0.94140  0.0
    268    270    271    287   5     0.00000     0.00000    -0.94140  0.0
    284    270    271    272   5     0.00000     0.00000     1.25520  0.0
    284    270    271    286   5     0.00000     0.00000     1.25520  0.0
    284    270    271    287   5     0.00000     0.00000     1.25520  0.0
    285    270    271    272   5     0.00000     0.00000     1.25520  0.0
    285    270    271    286   5     0.00000     0.00000     1.25520  0.0
    285    270    271    287   5     0.00000     0.00000     1.25520  0.0
    270    271    272    273   5     4.74884    -0.63178     1.67360  0.0
    270    271    272    288   5     0.00000     0.00000     1.25520  0.0
    270    271    272    289   5     0.00000     0.00000     1.25520  0.0
    286    271    272    273   5     0.00000     0.00000     1.25520  0.0
    286    271    272    288   5     0.00000     0.00000     1.25520  0.0
    286    271    272    289   5     0.00000     0.00000     1.25520  0.0
    287    271    272    273   5     0.00000     0.00000     1.25520  0.0
    287    271    272    288   5     0.00000     0.00000     1.25520  0.0
    287    271    272    289   5     0.00000     0.00000     1.25520  0.0
    271    272    273    274   5    -8.00818    -1.52298     2.46438  0.0
    271    272    273    290   5     0.00000     0.00000     1.25520  0.0
    271    272    273    291   5     0.00000     0.00000     1.25520  0.0
    288    272    273    274   5     0.00000     0.00000    -0.94140  0.0
    288    272    273    290   5     0.00000     0.00000     1.25520  0.0
    288    272    273    291   5     0.00000     0.00000     1.25520  0.0
    289    272    273    274   5     0.00000     0.00000    -0.94140  0.0
    289    272    273    290   5     0.00000     0.00000     1.25520  0.0
    289    272    273    291   5     0.00000     0.00000     1.25520  0.0
    272    273    274    275   5     0.00000     2.52295     0.00000  0.0
    272    273    274    276   5    11.69428    -0.66526    -1.56900  0.0
    290    273    274    275   5     0.00000     0.00000     0.00000  0.0
    290    273    274    276   5     0.00000     0.00000     0.00000  0.0
    291    273    274    275   5     0.00000     0.00000     0.00000  0.0
    291    273    274    276   5     0.00000     0.00000     0.00000  0.0
    273    274    276    277   5    12.53945    12.88254     0.00000  0.0
    273    274    276    292   5     0.00000    20.50160     0.00000  0.0
    275    274    276    277   5     0.00000    25.47638     0.00000  0.0
    275    274    276    292   5     0.00000    20.50160     0.00000  0.0
    274    276    277    278   5    -3.67774    -0.67781     0.28033  0.0
    274    276    277    293   5     0.00000     0.00000     0.00000  0.0
    274    276    277    294   5     0.00000     0.00000     0.00000  0.0
    292    276    277    278   5     0.00000     0.00000     0.00000  0.0
    292    276    277    293   5     0.00000     0.00000     0.00000  0.0
    292    276    277    294   5     0.00000     0.00000     0.00000  0.0
    276    277    278    279   5     3.67355     4.10869     2.37651  0.0
    276    277    278    295   5     0.00000     0.00000     1.25520  0.0
    276    277    278    296   5     0.00000     0.00000     1.25520  0.0
    293    277    278    279   5     0.00000     0.00000     1.25520  0.0
    293    277    278    295   5     0.00000     0.00000     1.25520  0.0
    293    277    278    296   5     0.00000     0.00000     1.25520  0.0
    294    277    278    279   5     0.00000     0.00000     1.25520  0.0
    294    277    278    295   5     0.00000     0.00000     1.25520  0.0
    294    277    278    296   5     0.00000     0.00000     1.25520  0.0
    277    278    279    280   5     4.74884    -0.63178     1.67360  0.0
    277    278    279    297   5     0.00000     0.00000     1.25520  0.0
    277    278    279    298   5     0.00000     0.00000     1.25520  0.0
    295    278    279    280   5     0.00000     0.00000     1.25520  0.0
    295    278    279    297   5     0.00000     0.00000     1.25520  0.0
    295    278    279    298   5     0.00000     0.00000     1.25520  0.0
    296    278    279    280   5     0.00000     0.00000     1.25520  0.0
    296    278    279    297   5     0.00000     0.00000     1.25520  0.0
    296    278    279    298   5     0.00000     0.00000     1.25520  0.0
    278    279    280    281   5     4.74884    -0.63178     1.67360  0.0
    278    279    280    299   5     0.00000     0.00000     1.25520  0.0
    278    279    280    300   5     0.00000     0.00000     1.25520  0.0
    297    279    280    281   5     0.00000     0.00000     1.25520  0.0
    297    279    280    299   5     0.00000     0.00000     1.25520  0.0
    297    279    280    300   5     0.00000     0.00000     1.25520  0.0
    298    279    280    281   5     0.00000     0.00000     1.25520  0.0
    298    279    280    299   5     0.00000     0.00000     1.25520  0.0
    298    279    280    300   5     0.00000     0.00000     1.25520  0.0
    279    280    281    282   5     4.74884    -0.63178     1.67360  0.0
    279    280    281    301   5     0.00000     0.00000     1.25520  0.0
    279    280    281    302   5     0.00000     0.00000     1.25520  0.0
    299    280    281    282   5     0.00000     0.00000     1.25520  0.0
    299    280    281    301   5     0.00000     0.00000     1.25520  0.0
    299    280    281    302   5     0.00000     0.00000     1.25520  0.0
    300    280    281    282   5     0.00000     0.00000     1.25520  0.0
    300    280    281    301   5     0.00000     0.00000     1.25520  0.0
    300    280    281    302   5     0.00000     0.00000     1.25520  0.0
    280    281    282    283   5     3.67355     4.10869     2.37651  0.0
    280    281    282    303   5     0.00000     0.00000     1.25520  0.0
    280    281    282    304   5     0.00000     0.00000     1.25520  0.0
    301    281    282    283   5     0.00000     0.00000     1.25520  0.0
    301    281    282    303   5     0.00000     0.00000     1.25520  0.0
    301    281    282    304   5     0.00000     0.00000     1.25520  0.0
    302    281    282    283   5     0.00000     0.00000     1.25520  0.0
    302    281    282    303   5     0.00000     0.00000     1.25520  0.0
    302    281    282    304   5     0.00000     0.00000     1.25520  0.0
    281    282    283    305   5     0.00000     0.00000     0.00000  0.0
    281    282    283    306   5    -3.67774    -0.67781     0.28033  0.0
    303    282    283    305   5     0.00000     0.00000     0.00000  0.0
    303    282    283    306   5     0.00000     0.00000     0.00000  0.0
    304    282    283    305   5     0.00000     0.00000     0.00000  0.0
    304    282    283    306   5     0.00000     0.00000     0.00000  0.0
    282    283    306    307   5     0.00000    25.47638     0.00000  0.0
    282    283    306    308   5    12.53945    12.88254     0.00000  0.0
    305    283    306    307   5     0.00000    20.50160     0.00000  0.0
    305    283    306    308   5     0.00000    20.50160     0.00000  0.0
    283    306    308    309   5    11.69428    -0.66526    -1.56900  0.0
    283    306    308    322   5     0.00000     0.00000     0.00000  0.0
    283    306    308    323   5     0.00000     0.00000     0.00000  0.0
    307    306    308    309   5     0.00000     2.52295     0.00000  0.0
    307    306    308    322   5     0.00000     0.00000     0.00000  0.0
    307    306    308    323   5     0.00000     0.00000     0.00000  0.0
    306    308    309    310   5    -8.00818    -1.52298     2.46438  0.0
    306    308    309    324   5     0.00000     0.00000    -0.94140  0.0
    306    308    309    325   5     0.00000     0.00000    -0.94140  0.0
    322    308    309    310   5     0.00000     0.00000     1.25520  0.0
    322    308    309    324   5     0.00000     0.00000     1.25520  0.0
    322    308    309    325   5     0.00000     0.00000     1.25520  0.0
    323    308    309    310   5     0.00000     0.00000     1.25520  0.0
    323    308    309    324   5     0.00000     0.00000     1.25520  0.0
    323    308    309    325   5     0.00000     0.00000     1.25520  0.0
    308    309    310    311   5     4.74884    -0.63178     1.67360  0.0
    308    309    310    326   5     0.00000     0.00000     1.25520  0.0
    308    309    310    327   5     0.00000     0.00000     1.25520  0.0
    324    309    310    311   5     0.00000     0.00000     1.25520  0.0
    324    309    310    326   5     0.00000     0.00000     1.25520  0.0
    324    309    310    327   5     0.00000     0.00000     1.25520  0.0
    325    309    310    311   5     0.00000     0.00000     1.25520  0.0
    325    309    310    326   5     0.00000     0.00000     1.25520  0.0
    325    309    310    327   5     0.00000     0.00000     1.25520  0.0
    309    310    311    312   5    -8.00818    -1.52298     2.46438  0.0
    309    310    311    328   5     0.00000     0.00000     1.25520  0.0
    309    310    311    329   5     0.00000     0.00000     1.25520  0.0
    326    310    311    312   5     0.00000     0.00000    -0.94140  0.0
    326    310    311    328   5     0.00000     0.00000     1.25520  0.0
    326    310    311    329   5     0.00000     0.00000     1.25520  0.0
    327    310    311    312   5     0.00000     0.00000    -0.94140  0.0
    327    310    311    328   5     0.00000     0.00000     1.25520  0.0
    327    310    311    329   5     0.00000     0.00000     1.25520  0.0
    310    311    312    313   5     0.00000     2.52295     0.00000  0.0
    310    311    312    314   5    11.69428    -0.66526    -1.56900  0.0
    328    311    312    313   5     0.00000     0.00000     0.00000  0.0
    328    311    312    314   5     0.00000     0.00000     0.00000  0.0
    329    311    312    313   5     0.00000     0.00000     0.00000  0.0
    329    311    312    314   5     0.00000     0.00000     0.00000  0.0
    311    312    314    315   5    12.53945    12.88254     0.00000  0.0
    311    312    314    330   5     0.00000    20.50160     0.00000  0.0
    313    312    314    315   5     0.00000    25.47638     0.00000  0.0
    313    312    314    330   5     0.00000    20.50160     0.00000  0.0
    312    314    315    316   5    -3.67774    -0.67781     0.28033  0.0
    312    314    315    331   5     0.00000     0.00000     0.00000  0.0
    312    314    315    332   5     0.00000     0.00000     0.00000  0.0
    330    314    315    316   5     0.00000     0.00000     0.00000  0.0
    330    314    315    331   5     0.00000     0.00000     0.00000  0.0
    330    314    315    332   5     0.00000     0.00000     0.00000  0.0
    314    315    316    317   5     3.67355     4.10869     2.37651  0.0
    314    315    316    333   5     0.00000     0.00000     1.25520  0.0
    314    315    316    334   5     0.00000     0.00000     1.25520  0.0
    331    315    316    317   5     0.00000     0.00000     1.25520  0.0
    331    315    316    333   5     0.00000     0.00000     1.25520  0.0
    331    315    316    334   5     0.00000     0.00000     1.25520  0.0
    332    315    316    317   5     0.00000     0.00000     1.25520  0.0
    332    315    316    333   5     0.00000     0.00000     1.25520  0.0
    332    315    316    334   5     0.00000     0.00000     1.25520  0.0
    315    316    317    318   5     4.74884    -0.63178     1.67360  0.0
    315    316    317    335   5     0.00000     0.00000     1.25520  0.0
    315    316    317    336   5     0.00000     0.00000     1.25520  0.0
    333    316    317    318   5     0.00000     0.00000     1.25520  0.0
    333    316    317    335   5     0.00000     0.00000     1.25520  0.0
    333    316    317    336   5     0.00000     0.00000     1.25520  0.0
    334    316    317    318   5     0.00000     0.00000     1.25520  0.0
    334    316    317    335   5     0.00000     0.00000     1.25520  0.0
    334    316    317    336   5     0.00000     0.00000     1.25520  0.0
    316    317    318    319   5     4.74884    -0.63178     1.67360  0.0
    316    317    318    337   5     0.00000     0.00000     1.25520  0.0
    316    317    318    338   5     0.00000     0.00000     1.25520  0.0
    335    317    318    319   5     0.00000     0.00000     1.25520  0.0
    335    317    318    337   5     0.00000     0.00000     1.25520  0.0
    335    317    318    338   5     0.00000     0.00000     1.25520  0.0
    336    317    318    319   5     0.00000     0.00000     1.25520  0.0
    336    317    318    337   5     0.00000     0.00000     1.25520  0.0
    336    317    318    338   5     0.00000     0.00000     1.25520  0.0
    317    318    319    320   5     4.74884    -0.63178     1.67360  0.0
    317    318    319    339   5     0.00000     0.00000     1.25520  0.0
    317    318    319    340   5     0.00000     0.00000     1.25520  0.0
    337    318    319    320   5     0.00000     0.00000     1.25520  0.0
    337    318    319    339   5     0.00000     0.00000     1.25520  0.0
    337    318    319    340   5     0.00000     0.00000     1.25520  0.0
    338    318    319    320   5     0.00000     0.00000     1.25520  0.0
    338    318    319    339   5     0.00000     0.00000     1.25520  0.0
    338    318    319    340   5     0.00000     0.00000     1.25520  0.0
    318    319    320    321   5     3.67355     4.10869     2.37651  0.0
    318    319    320    341   5     0.00000     0.00000     1.25520  0.0
    318    319    320    342   5     0.00000     0.00000     1.25520  0.0
    339    319    320    321   5     0.00000     0.00000     1.25520  0.0
    339    319    320    341   5     0.00000     0.00000     1.25520  0.0
    339    319    320    342   5     0.00000     0.00000     1.25520  0.0
    340    319    320    321   5     0.00000     0.00000     1.25520  0.0
    340    319    320    341   5     0.00000     0.00000     1.25520  0.0
    340    319    320    342   5     0.00000     0.00000     1.25520  0.0
    319    320    321    343   5     0.00000     0.00000     0.00000  0.0
    319    320    321    344   5    -3.67774    -0.67781     0.28033  0.0
    341    320    321    343   5     0.00000     0.00000     0.00000  0.0
    341    320    321    344   5     0.00000     0.00000     0.00000  0.0
    342    320    321    343   5     0.00000     0.00000     0.00000  0.0
    342    320    321    344   5     0.00000     0.00000     0.00000  0.0
    320    321    344    345   5     0.00000    25.47638     0.00000  0.0
    320    321    344    346   5    12.53945    12.88254     0.00000  0.0
    343    321    344    345   5     0.00000    20.50160     0.00000  0.0
    343    321    344    346   5     0.00000    20.50160     0.00000  0.0
    321    344    346    347   5    11.69428    -0.66526    -1.56900  0.0
    321    344    346    360   5     0.00000     0.00000     0.00000  0.0
    321    344    346    361   5     0.00000     0.00000     0.00000  0.0
    345    344    346    347   5     0.00000     2.52295     0.00000  0.0
    345    344    346    360   5     0.00000     0.00000     0.00000  0.0
    345    344    346    361   5     0.00000     0.00000     0.00000  0.0
    344    346    347    348   5    -8.00818    -1.52298     2.46438  0.0
    344    346    347    362   5     0.00000     0.00000    -0.94140  0.0
    344    346    347    363   5     0.00000     0.00000    -0.94140  0.0
    360    346    347    348   5     0.00000     0.00000     1.25520  0.0
    360    346    347    362   5     0.00000     0.00000     1.25520  0.0
    360    346    347    363   5     0.00000     0.00000     1.25520  0.0
    361    346    347    348   5     0.00000     0.00000     1.25520  0.0
    361    346    347    362   5     0.00000     0.00000     1.25520  0.0
    361    346    347    363   5     0.00000     0.00000     1.25520  0.0
    346    347    348    349   5     4.74884    -0.63178     1.67360  0.0
    346    347    348    364   5     0.00000     0.00000     1.25520  0.0
    346    347    348    365   5     0.00000     0.00000     1.25520  0.0
    362    347    348    349   5     0.00000     0.00000     1.25520  0.0
    362    347    348    364   5     0.00000     0.00000     1.25520  0.0
    362    347    348    365   5     0.00000     0.00000     1.25520  0.0
    363    347    348    349   5     0.00000     0.00000     1.25520  0.0
    363    347    348    364   5     0.00000     0.00000     1.25520  0.0
    363    347    348    365   5     0.00000     0.00000     1.25520  0.0
    347    348    349    350   5    -8.00818    -1.52298     2.46438  0.0
    347    348    349    366   5     0.00000     0.00000     1.25520  0.0
    347    348    349    367   5     0.00000     0.00000     1.25520  0.0
    364    348    349    350   5     0.00000     0.00000    -0.94140  0.0
    364    348    349    366   5     0.00000     0.00000     1.25520  0.0
    364    348    349    367   5     0.00000     0.00000     1.25520  0.0
    365    348    349    350   5     0.00000     0.00000    -0.94140  0.0
    365    348    349    366   5     0.00000     0.00000     1.25520  0.0
    365    348    349    367   5     0.00000     0.00000     1.25520  0.0
    348    349    350    351   5     0.00000     2.52295     0.00000  0.0
    348    349    350    352   5    11.69428    -0.66526    -1.56900  0.0
    366    349    350    351   5     0.00000     0.00000     0.00000  0.0
    366    349    350    352   5     0.00000     0.00000     0.00000  0.0
    367    349    350    351   5     0.00000     0.00000     0.00000  0.0
    367    349    350    352   5     0.00000     0.00000     0.00000  0.0
    349    350    352    353   5    12.53945    12.88254     0.00000  0.0
    349    350    352    368   5     0.00000    20.50160     0.00000  0.0
    351    350    352    353   5     0.00000    25.47638     0.00000  0.0
    351    350    352    368   5     0.00000    20.50160     0.00000  0.0
    350    352    353    354   5    -3.67774    -0.67781     0.28033  0.0
    350    352    353    369   5     0.00000     0.00000     0.00000  0.0
    350    352    353    370   5     0.00000     0.00000     0.00000  0.0
    368    352    353    354   5     0.00000     0.00000     0.00000  0.0
    368    352    353    369   5     0.00000     0.00000     0.00000  0.0
    368    352    353    370   5     0.00000     0.00000     0.00000  0.0
    352    353    354    355   5     3.67355     4.10869     2.37651  0.0
    352    353    354    371   5     0.00000     0.00000     1.25520  0.0
    352    353    354    372   5     0.00000     0.00000     1.25520  0.0
    369    353    354    355   5     0.00000     0.00000     1.25520  0.0
    369    353    354    371   5     0.00000     0.00000     1.25520  0.0
    369    353    354    372   5     0.00000     0.00000     1.25520  0.0
    370    353    354    355   5     0.00000     0.00000     1.25520  0.0
    370    353    354    371   5     0.00000     0.00000     1.25520  0.0
    370    353    354    372   5     0.00000     0.00000     1.25520  0.0
    353    354    355    356   5     4.74884    -0.63178     1.67360  0.0
    353    354    355    373   5     0.00000     0.00000     1.25520  0.0
    353    354    355    374   5     0.00000     0.00000     1.25520  0.0
    371    354    355    356   5     0.00000     0.00000     1.25520  0.0
    371    354    355    373   5     0.00000     0.00000     1.25520  0.0
    371    354    355    374   5     0.00000     0.00000     1.25520  0.0
    372    354    355    356   5     0.00000     0.00000     1.25520  0.0
    372    354    355    373   5     0.00000     0.00000     1.25520  0.0
    372    354    355    374   5     0.00000     0.00000     1.25520  0.0
    354    355    356    357   5     4.74884    -0.63178     1.67360  0.0
    354    355    356    375   5     0.00000     0.00000     1.25520  0.0
    354    355    356    376   5     0.00000     0.00000     1.25520  0.0
    373    355    356    357   5     0.00000     0.00000     1.25520  0.0
    373    355    356    375   5     0.00000     0.00000     1.25520  0.0
    373    355    356    376   5     0.00000     0.00000     1.25520  0.0
    374    355    356    357   5     0.00000     0.00000     1.25520  0.0
    374    355    356    375   5     0.00000     0.00000     1.25520  0.0
    374    355    356    376   5     0.00000     0.00000     1.25520  0.0
    355    356    357    358   5     4.74884    -0.63178     1.67360  0.0
    355    356    357    377   5     0.00000     0.00000     1.25520  0.0
    355    356    357    378   5     0.00000     0.00000     1.25520  0.0
    375    356    357    358   5     0.00000     0.00000     1.25520  0.0
    375    356    357    377   5     0.00000     0.00000     1.25520  0.0
    375    356    357    378   5     0.00000     0.00000     1.25520  0.0
    376    356    357    358   5     0.00000     0.00000     1.25520  0.0
    376    356    357    377   5     0.00000     0.00000     1.25520  0.0
    376    356    357    378   5     0.00000     0.00000     1.25520  0.0
    356    357    358    359   5     3.67355     4.10869     2.37651  0.0
    356    357    358    379   5     0.00000     0.00000     1.25520  0.0
    356    357    358    380   5     0.00000     0.00000     1.25520  0.0
    377    357    358    359   5     0.00000     0.00000     1.25520  0.0
    377    357    358    379   5     0.00000     0.00000     1.25520  0.0
    377    357    358    380   5     0.00000     0.00000     1.25520  0.0
    378    357    358    359   5     0.00000     0.00000     1.25520  0.0
    378    357    358    379   5     0.00000     0.00000     1.25520  0.0
    378    357    358    380   5     0.00000     0.00000     1.25520  0.0
    357    358    359    381   5     0.00000     0.00000     0.00000  0.0
    357    358    359    382   5    -3.67774    -0.67781     0.28033  0.0
    379    358    359    381   5     0.00000     0.00000     0.00000  0.0
    379    358    359    382   5     0.00000     0.00000     0.00000  0.0
    380    358    359    381   5     0.00000     0.00000     0.00000  0.0
    380    358    359    382   5     0.00000     0.00000     0.00000  0.0
    358    359    382    383   5     0.00000    25.47638     0.00000  0.0
    358    359    382    384   5    12.53945    12.88254     0.00000  0.0
    381    359    382    383   5     0.00000    20.50160     0.00000  0.0
    381    359    382    384   5     0.00000    20.50160     0.00000  0.0
    359    382    384    385   5    11.69428    -0.66526    -1.56900  0.0
    359    382    384    398   5     0.00000     0.00000     0.00000  0.0
    359    382    384    399   5     0.00000     0.00000     0.00000  0.0
    383    382    384    385   5     0.00000     2.52295     0.00000  0.0
    383    382    384    398   5     0.00000     0.00000     0.00000  0.0
    383    382    384    399   5     0.00000     0.00000     0.00000  0.0
    382    384    385    386   5    -8.00818    -1.52298     2.46438  0.0
    382    384    385    400   5     0.00000     0.00000    -0.94140  0.0
    382    384    385    401   5     0.00000     0.00000    -0.94140  0.0
    398    384    385    386   5     0.00000     0.00000     1.25520  0.0
    398    384    385    400   5     0.00000     0.00000     1.25520  0.0
    398    384    385    401   5     0.00000     0.00000     1.25520  0.0
    399    384    385    386   5     0.00000     0.00000     1.25520  0.0
    399    384    385    400   5     0.00000     0.00000     1.25520  0.0
    399    384    385    401   5     0.00000     0.00000     1.25520  0.0
    384    385    386    387   5     4.74884    -0.63178     1.67360  0.0
    384    385    386    402   5     0.00000     0.00000     1.25520  0.0
    384    385    386    403   5     0.00000     0.00000     1.25520  0.0
    400    385    386    387   5     0.00000     0.00000     1.25520  0.0
    400    385    386    402   5     0.00000     0.00000     1.25520  0.0
    400    385    386    403   5     0.00000     0.00000     1.25520  0.0
    401    385    386    387   5     0.00000     0.00000     1.25520  0.0
    401    385    386    402   5     0.00000     0.00000     1.25520  0.0
    401    385    386    403   5     0.00000     0.00000     1.25520  0.0
    385    386    387    388   5    -8.00818    -1.52298     2.46438  0.0
    385    386    387    404   5     0.00000     0.00000     1.25520  0.0
    385    386    387    405   5     0.00000     0.00000     1.25520  0.0
    402    386    387    388   5     0.00000     0.00000    -0.94140  0.0
    402    386    387    404   5     0.00000     0.00000     1.25520  0.0
    402    386    387    405   5     0.00000     0.00000     1.25520  0.0
    403    386    387    388   5     0.00000     0.00000    -0.94140  0.0
    403    386    387    404   5     0.00000     0.00000     1.25520  0.0
    403    386    387    405   5     0.00000     0.00000     1.25520  0.0
    386    387    388    389   5     0.00000     2.52295     0.00000  0.0
    386    387    388    390   5    11.69428    -0.66526    -1.56900  0.0
    404    387    388    389   5     0.00000     0.00000     0.00000  0.0
    404    387    388    390   5     0.00000     0.00000     0.00000  0.0
    405    387    388    389   5     0.00000     0.00000     0.00000  0.0
    405    387    388    390   5     0.00000     0.00000     0.00000  0.0
    387    388    390    391   5    12.53945    12.88254     0.00000  0.0
    387    388    390    406   5     0.00000    20.50160     0.00000  0.0
    389    388    390    391   5     0.00000    25.47638     0.00000  0.0
    389    388    390    406   5     0.00000    20.50160     0.00000  0.0
    388    390    391    392   5    -3.67774    -0.67781     0.28033  0.0
    388    390    391    407   5     0.00000     0.00000     0.00000  0.0
    388    390    391    408   5     0.00000     0.00000     0.00000  0.0
    406    390    391    392   5     0.00000     0.00000     0.00000  0.0
    406    390    391    407   5     0.00000     0.00000     0.00000  0.0
    406    390    391    408   5     0.00000     0.00000     0.00000  0.0
    390    391    392    393   5     3.67355     4.10869     2.37651  0.0
    390    391    392    409   5     0.00000     0.00000     1.25520  0.0
    390    391    392    410   5     0.00000     0.00000     1.25520  0.0
    407    391    392    393   5     0.00000     0.00000     1.25520  0.0
    407    391    392    409   5     0.00000     0.00000     1.25520  0.0
    407    391    392    410   5     0.00000     0.00000     1.25520  0.0
    408    391    392    393   5     0.00000     0.00000     1.25520  0.0
    408    391    392    409   5     0.00000     0.00000     1.25520  0.0
    408    391    392    410   5     0.00000     0.00000     1.25520  0.0
    391    392    393    394   5     4.74884    -0.63178     1.67360  0.0
    391    392    393    411   5     0.00000     0.00000     1.25520  0.0
    391    392    393    412   5     0.00000     0.00000     1.25520  0.0
    409    392    393    394   5     0.00000     0.00000     1.25520  0.0
    409    392    393    411   5     0.00000     0.00000     1.25520  0.0
    409    392    393    412   5     0.00000     0.00000     1.25520  0.0
    410    392    393    394   5     0.00000     0.00000     1.25520  0.0
    410    392    393    411   5     0.00000     0.00000     1.25520  0.0
    410    392    393    412   5     0.00000     0.00000     1.25520  0.0
    392    393    394    395   5     4.74884    -0.63178     1.67360  0.0
    392    393    394    413   5     0.00000     0.00000     1.25520  0.0
    392    393    394    414   5     0.00000     0.00000     1.25520  0.0
    411    393    394    395   5     0.00000     0.00000     1.25520  0.0
    411    393    394    413   5     0.00000     0.00000     1.25520  0.0
    411    393    394    414   5     0.00000     0.00000     1.25520  0.0
    412    393    394    395   5     0.00000     0.00000     1.25520  0.0
    412    393    394    413   5     0.00000     0.00000     1.25520  0.0
    412    393    394    414   5     0.00000     0.00000     1.25520  0.0
    393    394    395    396   5     4.74884    -0.63178     1.67360  0.0
    393    394    395    415   5     0.00000     0.00000     1.25520  0.0
    393    394    395    416   5     0.00000     0.00000     1.25520  0.0
    413    394    395    396   5     0.00000     0.00000     1.25520  0.0
    413    394    395    415   5     0.00000     0.00000     1.25520  0.0
    413    394    395    416   5     0.00000     0.00000     1.25520  0.0
    414    394    395    396   5     0.00000     0.00000     1.25520  0.0
    414    394    395    415   5     0.00000     0.00000     1.25520  0.0
    414    394    395    416   5     0.00000     0.00000     1.25520  0.0
    394    395    396    397   5     3.67355     4.10869     2.37651  0.0
    394    395    396    417   5     0.00000     0.00000     1.25520  0.0
    394    395    396    418   5     0.00000     0.00000     1.25520  0.0
    415    395    396    397   5     0.00000     0.00000     1.25520  0.0
    415    395    396    417   5     0.00000     0.00000     1.25520  0.0
    415    395    396    418   5     0.00000     0.00000     1.25520  0.0
    416    395    396    397   5     0.00000     0.00000     1.25520  0.0
    416    395    396    417   5     0.00000     0.00000     1.25520  0.0
    416    395    396    418   5     0.00000     0.00000     1.25520  0.0
    395    396    397    419   5     0.00000     0.00000     0.00000  0.0
    395    396    397    420   5    -3.67774    -0.67781     0.28033  0.0
    417    396    397    419   5     0.00000     0.00000     0.00000  0.0
    417    396    397    420   5     0.00000     0.00000     0.00000  0.0
    418    396    397    419   5     0.00000     0.00000     0.00000  0.0
    418    396    397    420   5     0.00000     0.00000     0.00000  0.0
    396    397    420    421   5     0.00000    25.47638     0.00000  0.0
    396    397    420    422   5    12.53945    12.88254     0.00000  0.0
    419    397    420    421   5     0.00000    20.50160     0.00000  0.0
    419    397    420    422   5     0.00000    20.50160     0.00000  0.0
    397    420    422    423   5    11.69428    -0.66526    -1.56900  0.0
    397    420    422    436   5     0.00000     0.00000     0.00000  0.0
    397    420    422    437   5     0.00000     0.00000     0.00000  0.0
    421    420    422    423   5     0.00000     2.52295     0.00000  0.0
    421    420    422    436   5     0.00000     0.00000     0.00000  0.0
    421    420    422    437   5     0.00000     0.00000     0.00000  0.0
    420    422    423    424   5    -8.00818    -1.52298     2.46438  0.0
    420    422    423    438   5     0.00000     0.00000    -0.94140  0.0
    420    422    423    439   5     0.00000     0.00000    -0.94140  0.0
    436    422    423    424   5     0.00000     0.00000     1.25520  0.0
    436    422    423    438   5     0.00000     0.00000     1.25520  0.0
    436    422    423    439   5     0.00000     0.00000     1.25520  0.0
    437    422    423    424   5     0.00000     0.00000     1.25520  0.0
    437    422    423    438   5     0.00000     0.00000     1.25520  0.0
    437    422    423    439   5     0.00000     0.00000     1.25520  0.0
    422    423    424    425   5     4.74884    -0.63178     1.67360  0.0
    422    423    424    440   5     0.00000     0.00000     1.25520  0.0
    422    423    424    441   5     0.00000     0.00000     1.25520  0.0
    438    423    424    425   5     0.00000     0.00000     1.25520  0.0
    438    423    424    440   5     0.00000     0.00000     1.25520  0.0
    438    423    424    441   5     0.00000     0.00000     1.25520  0.0
    439    423    424    425   5     0.00000     0.00000     1.25520  0.0
    439    423    424    440   5     0.00000     0.00000     1.25520  0.0
    439    423    424    441   5     0.00000     0.00000     1.25520  0.0
    423    424    425    426   5    -8.00818    -1.52298     2.46438  0.0
    423    424    425    442   5     0.00000     0.00000     1.25520  0.0
    423    424    425    443   5     0.00000     0.00000     1.25520  0.0
    440    424    425    426   5     0.00000     0.00000    -0.94140  0.0
    440    424    425    442   5     0.00000     0.00000     1.25520  0.0
    440    424    425    443   5     0.00000     0.00000     1.25520  0.0
    441    424    425    426   5     0.00000     0.00000    -0.94140  0.0
    441    424    425    442   5     0.00000     0.00000     1.25520  0.0
    441    424    425    443   5     0.00000     0.00000     1.25520  0.0
    424    425    426    427   5     0.00000     2.52295     0.00000  0.0
    424    425    426    428   5    11.69428    -0.66526    -1.56900  0.0
    442    425    426    427   5     0.00000     0.00000     0.00000  0.0
    442    425    426    428   5     0.00000     0.00000     0.00000  0.0
    443    425    426    427   5     0.00000     0.00000     0.00000  0.0
    443    425    426    428   5     0.00000     0.00000     0.00000  0.0
    425    426    428    429   5    12.53945    12.88254     0.00000  0.0
    425    426    428    444   5     0.00000    20.50160     0.00000  0.0
    427    426    428    429   5     0.00000    25.47638     0.00000  0.0
    427    426    428    444   5     0.00000    20.50160     0.00000  0.0
    426    428    429    430   5    -3.67774    -0.67781     0.28033  0.0
    426    428    429    445   5     0.00000     0.00000     0.00000  0.0
    426    428    429    446   5     0.00000     0.00000     0.00000  0.0
    444    428    429    430   5     0.00000     0.00000     0.00000  0.0
    444    428    429    445   5     0.00000     0.00000     0.00000  0.0
    444    428    429    446   5     0.00000     0.00000     0.00000  0.0
    428    429    430    431   5     3.67355     4.10869     2.37651  0.0
    428    429    430    447   5     0.00000     0.00000     1.25520  0.0
    428    429    430    448   5     0.00000     0.00000     1.25520  0.0
    445    429    430    431   5     0.00000     0.00000     1.25520  0.0
    445    429    430    447   5     0.00000     0.00000     1.25520  0.0
    445    429    430    448   5     0.00000     0.00000     1.25520  0.0
    446    429    430    431   5     0.00000     0.00000     1.25520  0.0
    446    429    430    447   5     0.00000     0.00000     1.25520  0.0
    446    429    430    448   5     0.00000     0.00000     1.25520  0.0
    429    430    431    432   5     4.74884    -0.63178     1.67360  0.0
    429    430    431    449   5     0.00000     0.00000     1.25520  0.0
    429    430    431    450   5     0.00000     0.00000     1.25520  0.0
    447    430    431    432   5     0.00000     0.00000     1.25520  0.0
    447    430    431    449   5     0.00000     0.00000     1.25520  0.0
    447    430    431    450   5     0.00000     0.00000     1.25520  0.0
    448    430    431    432   5     0.00000     0.00000     1.25520  0.0
    448    430    431    449   5     0.00000     0.00000     1.25520  0.0
    448    430    431    450   5     0.00000     0.00000     1.25520  0.0
    430    431    432    433   5     4.74884    -0.63178     1.67360  0.0
    430    431    432    451   5     0.00000     0.00000     1.25520  0.0
    430    431    432    452   5     0.00000     0.00000     1.25520  0.0
    449    431    432    433   5     0.00000     0.00000     1.25520  0.0
    449    431    432    451   5     0.00000     0.00000     1.25520  0.0
    449    431    432    452   5     0.00000     0.00000     1.25520  0.0
    450    431    432    433   5     0.00000     0.00000     1.25520  0.0
    450    431    432    451   5     0.00000     0.00000     1.25520  0.0
    450    431    432    452   5     0.00000     0.00000     1.25520  0.0
    431    432    433    434   5     4.74884    -0.63178     1.67360  0.0
    431    432    433    453   5     0.00000     0.00000     1.25520  0.0
    431    432    433    454   5     0.00000     0.00000     1.25520  0.0
    451    432    433    434   5     0.00000     0.00000     1.25520  0.0
    451    432    433    453   5     0.00000     0.00000     1.25520  0.0
    451    432    433    454   5     0.00000     0.00000     1.25520  0.0
    452    432    433    434   5     0.00000     0.00000     1.25520  0.0
    452    432    433    453   5     0.00000     0.00000     1.25520  0.0
    452    432    433    454   5     0.00000     0.00000     1.25520  0.0
    432    433    434    435   5     3.67355     4.10869     2.37651  0.0
    432    433    434    455   5     0.00000     0.00000     1.25520  0.0
    432    433    434    456   5     0.00000     0.00000     1.25520  0.0
    453    433    434    435   5     0.00000     0.00000     1.25520  0.0
    453    433    434    455   5     0.00000     0.00000     1.25520  0.0
    453    433    434    456   5     0.00000     0.00000     1.25520  0.0
    454    433    434    435   5     0.00000     0.00000     1.25520  0.0
    454    433    434    455   5     0.00000     0.00000     1.25520  0.0
    454    433    434    456   5     0.00000     0.00000     1.25520  0.0
    433    434    435    457   5     0.00000     0.00000     0.00000  0.0
    433    434    435    458   5    -3.67774    -0.67781     0.28033  0.0
    455    434    435    457   5     0.00000     0.00000     0.00000  0.0
    455    434    435    458   5     0.00000     0.00000     0.00000  0.0
    456    434    435    457   5     0.00000     0.00000     0.00000  0.0
    456    434    435    458   5     0.00000     0.00000     0.00000  0.0
    434    435    458    459   5     0.00000    25.47638     0.00000  0.0
    434    435    458    460   5    12.53945    12.88254     0.00000  0.0
    457    435    458    459   5     0.00000    20.50160     0.00000  0.0
    457    435    458    460   5     0.00000    20.50160     0.00000  0.0
    435    458    460    461   5    11.69428    -0.66526    -1.56900  0.0
    435    458    460    474   5     0.00000     0.00000     0.00000  0.0
    435    458    460    475   5     0.00000     0.00000     0.00000  0.0
    459    458    460    461   5     0.00000     2.52295     0.00000  0.0
    459    458    460    474   5     0.00000     0.00000     0.00000  0.0
    459    458    460    475   5     0.00000     0.00000     0.00000  0.0
    458    460    461    462   5    -8.00818    -1.52298     2.46438  0.0
    458    460    461    476   5     0.00000     0.00000    -0.94140  0.0
    458    460    461    477   5     0.00000     0.00000    -0.94140  0.0
    474    460    461    462   5     0.00000     0.00000     1.25520  0.0
    474    460    461    476   5     0.00000     0.00000     1.25520  0.0
    474    460    461    477   5     0.00000     0.00000     1.25520  0.0
    475    460    461    462   5     0.00000     0.00000     1.25520  0.0
    475    460    461    476   5     0.00000     0.00000     1.25520  0.0
    475    460    461    477   5     0.00000     0.00000     1.25520  0.0
    460    461    462    463   5     4.74884    -0.63178     1.67360  0.0
    460    461    462    478   5     0.00000     0.00000     1.25520  0.0
    460    461    462    479   5     0.00000     0.00000     1.25520  0.0
    476    461    462    463   5     0.00000     0.00000     1.25520  0.0
    476    461    462    478   5     0.00000     0.00000     1.25520  0.0
    476    461    462    479   5     0.00000     0.00000     1.25520  0.0
    477    461    462    463   5     0.00000     0.00000     1.25520  0.0
    477    461    462    478   5     0.00000     0.00000     1.25520  0.0
    477    461    462    479   5     0.00000     0.00000     1.25520  0.0
    461    462    463    464   5    -8.00818    -1.52298     2.46438  0.0
    461    462    463    480   5     0.00000     0.00000     1.25520  0.0
    461    462    463    481   5     0.00000     0.00000     1.25520  0.0
    478    462    463    464   5     0.00000     0.00000    -0.94140  0.0
    478    462    463    480   5     0.00000     0.00000     1.25520  0.0
    478    462    463    481   5     0.00000     0.00000     1.25520  0.0
    479    462    463    464   5     0.00000     0.00000    -0.94140  0.0
    479    462    463    480   5     0.00000     0.00000     1.25520  0.0
    479    462    463    481   5     0.00000     0.00000     1.25520  0.0
    462    463    464    465   5     0.00000     2.52295     0.00000  0.0
    462    463    464    466   5    11.69428    -0.66526    -1.56900  0.0
    480    463    464    465   5     0.00000     0.00000     0.00000  0.0
    480    463    464    466   5     0.00000     0.00000     0.00000  0.0
    481    463    464    465   5     0.00000     0.00000     0.00000  0.0
    481    463    464    466   5     0.00000     0.00000     0.00000  0.0
    463    464    466    467   5    12.53945    12.88254     0.00000  0.0
    463    464    466    482   5     0.00000    20.50160     0.00000  0.0
    465    464    466    467   5     0.00000    25.47638     0.00000  0.0
    465    464    466    482   5     0.00000    20.50160     0.00000  0.0
    464    466    467    468   5    -3.67774    -0.67781     0.28033  0.0
    464    466    467    483   5     0.00000     0.00000     0.00000  0.0
    464    466    467    484   5     0.00000     0.00000     0.00000  0.0
    482    466    467    468   5     0.00000     0.00000     0.00000  0.0
    482    466    467    483   5     0.00000     0.00000     0.00000  0.0
    482    466    467    484   5     0.00000     0.00000     0.00000  0.0
    466    467    468    469   5     3.67355     4.10869     2.37651  0.0
    466    467    468    485   5     0.00000     0.00000     1.25520  0.0
    466    467    468    486   5     0.00000     0.00000     1.25520  0.0
    483    467    468    469   5     0.00000     0.00000     1.25520  0.0
    483    467    468    485   5     0.00000     0.00000     1.25520  0.0
    483    467    468    486   5     0.00000     0.00000     1.25520  0.0
    484    467    468    469   5     0.00000     0.00000     1.25520  0.0
    484    467    468    485   5     0.00000     0.00000     1.25520  0.0
    484    467    468    486   5     0.00000     0.00000     1.25520  0.0
    467    468    469    470   5     4.74884    -0.63178     1.67360  0.0
    467    468    469    487   5     0.00000     0.00000     1.25520  0.0
    467    468    469    488   5     0.00000     0.00000     1.25520  0.0
    485    468    469    470   5     0.00000     0.00000     1.25520  0.0
    485    468    469    487   5     0.00000     0.00000     1.25520  0.0
    485    468    469    488   5     0.00000     0.00000     1.25520  0.0
    486    468    469    470   5     0.00000     0.00000     1.25520  0.0
    486    468    469    487   5     0.00000     0.00000     1.25520  0.0
    486    468    469    488   5     0.00000     0.00000     1.25520  0.0
    468    469    470    471   5     4.74884    -0.63178     1.67360  0.0
    468    469    470    489   5     0.00000     0.00000     1.25520  0.0
    468    469    470    490   5     0.00000     0.00000     1.25520  0.0
    487    469    470    471   5     0.00000     0.00000     1.25520  0.0
    487    469    470    489   5     0.00000     0.00000     1.25520  0.0
    487    469    470    490   5     0.00000     0.00000     1.25520  0.0
    488    469    470    471   5     0.00000     0.00000     1.25520  0.0
    488    469    470    489   5     0.00000     0.00000     1.25520  0.0
    488    469    470    490   5     0.00000     0.00000     1.25520  0.0
    469    470    471    472   5     4.74884    -0.63178     1.67360  0.0
    469    470    471    491   5     0.00000     0.00000     1.25520  0.0
    469    470    471    492   5     0.00000     0.00000     1.25520  0.0
    489    470    471    472   5     0.00000     0.00000     1.25520  0.0
    489    470    471    491   5     0.00000     0.00000     1.25520  0.0
    489    470    471    492   5     0.00000     0.00000     1.25520  0.0
    490    470    471    472   5     0.00000     0.00000     1.25520  0.0
    490    470    471    491   5     0.00000     0.00000     1.25520  0.0
    490    470    471    492   5     0.00000     0.00000     1.25520  0.0
    470    471    472    473   5     3.67355     4.10869     2.37651  0.0
    470    471    472    493   5     0.00000     0.00000     1.25520  0.0
    470    471    472    494   5     0.00000     0.00000     1.25520  0.0
    491    471    472    473   5     0.00000     0.00000     1.25520  0.0
    491    471    472    493   5     0.00000     0.00000     1.25520  0.0
    491    471    472    494   5     0.00000     0.00000     1.25520  0.0
    492    471    472    473   5     0.00000     0.00000     1.25520  0.0
    492    471    472    493   5     0.00000     0.00000     1.25520  0.0
    492    471    472    494   5     0.00000     0.00000     1.25520  0.0
    471    472    473    495   5     0.00000     0.00000     0.00000  0.0
    471    472    473    496   5    -3.67774    -0.67781     0.28033  0.0
    493    472    473    495   5     0.00000     0.00000     0.00000  0.0
    493    472    473    496   5     0.00000     0.00000     0.00000  0.0
    494    472    473    495   5     0.00000     0.00000     0.00000  0.0
    494    472    473    496   5     0.00000     0.00000     0.00000  0.0
    472    473    496    497   5     0.00000    25.47638     0.00000  0.0
    472    473    496    498   5    12.53945    12.88254     0.00000  0.0
    495    473    496    497   5     0.00000    20.50160     0.00000  0.0
    495    473    496    498   5     0.00000    20.50160     0.00000  0.0
    473    496    498    499   5    11.69428    -0.66526    -1.56900  0.0
    473    496    498    512   5     0.00000     0.00000     0.00000  0.0
    473    496    498    513   5     0.00000     0.00000     0.00000  0.0
    497    496    498    499   5     0.00000     2.52295     0.00000  0.0
    497    496    498    512   5     0.00000     0.00000     0.00000  0.0
    497    496    498    513   5     0.00000     0.00000     0.00000  0.0
    496    498    499    500   5    -8.00818    -1.52298     2.46438  0.0
    496    498    499    514   5     0.00000     0.00000    -0.94140  0.0
    496    498    499    515   5     0.00000     0.00000    -0.94140  0.0
    512    498    499    500   5     0.00000     0.00000     1.25520  0.0
    512    498    499    514   5     0.00000     0.00000     1.25520  0.0
    512    498    499    515   5     0.00000     0.00000     1.25520  0.0
    513    498    499    500   5     0.00000     0.00000     1.25520  0.0
    513    498    499    514   5     0.00000     0.00000     1.25520  0.0
    513    498    499    515   5     0.00000     0.00000     1.25520  0.0
    498    499    500    501   5     4.74884    -0.63178     1.67360  0.0
    498    499    500    516   5     0.00000     0.00000     1.25520  0.0
    498    499    500    517   5     0.00000     0.00000     1.25520  0.0
    514    499    500    501   5     0.00000     0.00000     1.25520  0.0
    514    499    500    516   5     0.00000     0.00000     1.25520  0.0
    514    499    500    517   5     0.00000     0.00000     1.25520  0.0
    515    499    500    501   5     0.00000     0.00000     1.25520  0.0
    515    499    500    516   5     0.00000     0.00000     1.25520  0.0
    515    499    500    517   5     0.00000     0.00000     1.25520  0.0
    499    500    501    502   5    -8.00818    -1.52298     2.46438  0.0
    499    500    501    518   5     0.00000     0.00000     1.25520  0.0
    499    500    501    519   5     0.00000     0.00000     1.25520  0.0
    516    500    501    502   5     0.00000     0.00000    -0.94140  0.0
    516    500    501    518   5     0.00000     0.00000     1.25520  0.0
    516    500    501    519   5     0.00000     0.00000     1.25520  0.0
    517    500    501    502   5     0.00000     0.00000    -0.94140  0.0
    517    500    501    518   5     0.00000     0.00000     1.25520  0.0
    517    500    501    519   5     0.00000     0.00000     1.25520  0.0
    500    501    502    503   5     0.00000     2.52295     0.00000  0.0
    500    501    502    504   5    11.69428    -0.66526    -1.56900  0.0
    518    501    502    503   5     0.00000     0.00000     0.00000  0.0
    518    501    502    504   5     0.00000     0.00000     0.00000  0.0
    519    501    502    503   5     0.00000     0.00000     0.00000  0.0
    519    501    502    504   5     0.00000     0.00000     0.00000  0.0
    501    502    504    505   5    12.53945    12.88254     0.00000  0.0
    501    502    504    520   5     0.00000    20.50160     0.00000  0.0
    503    502    504    505   5     0.00000    25.47638     0.00000  0.0
    503    502    504    520   5     0.00000    20.50160     0.00000  0.0
    502    504    505    506   5    -3.67774    -0.67781     0.28033  0.0
    502    504    505    521   5     0.00000     0.00000     0.00000  0.0
    502    504    505    522   5     0.00000     0.00000     0.00000  0.0
    520    504    505    506   5     0.00000     0.00000     0.00000  0.0
    520    504    505    521   5     0.00000     0.00000     0.00000  0.0
    520    504    505    522   5     0.00000     0.00000     0.00000  0.0
    504    505    506    507   5     3.67355     4.10869     2.37651  0.0
    504    505    506    523   5     0.00000     0.00000     1.25520  0.0
    504    505    506    524   5     0.00000     0.00000     1.25520  0.0
    521    505    506    507   5     0.00000     0.00000     1.25520  0.0
    521    505    506    523   5     0.00000     0.00000     1.25520  0.0
    521    505    506    524   5     0.00000     0.00000     1.25520  0.0
    522    505    506    507   5     0.00000     0.00000     1.25520  0.0
    522    505    506    523   5     0.00000     0.00000     1.25520  0.0
    522    505    506    524   5     0.00000     0.00000     1.25520  0.0
    505    506    507    508   5     4.74884    -0.63178     1.67360  0.0
    505    506    507    525   5     0.00000     0.00000     1.25520  0.0
    505    506    507    526   5     0.00000     0.00000     1.25520  0.0
    523    506    507    508   5     0.00000     0.00000     1.25520  0.0
    523    506    507    525   5     0.00000     0.00000     1.25520  0.0
    523    506    507    526   5     0.00000     0.00000     1.25520  0.0
    524    506    507    508   5     0.00000     0.00000     1.25520  0.0
    524    506    507    525   5     0.00000     0.00000     1.25520  0.0
    524    506    507    526   5     0.00000     0.00000     1.25520  0.0
    506    507    508    509   5     4.74884    -0.63178     1.67360  0.0
    506    507    508    527   5     0.00000     0.00000     1.25520  0.0
    506    507    508    528   5     0.00000     0.00000     1.25520  0.0
    525    507    508    509   5     0.00000     0.00000     1.25520  0.0
    525    507    508    527   5     0.00000     0.00000     1.25520  0.0
    525    507    508    528   5     0.00000     0.00000     1.25520  0.0
    526    507    508    509   5     0.00000     0.00000     1.25520  0.0
    526    507    508    527   5     0.00000     0.00000     1.25520  0.0
    526    507    508    528   5     0.00000     0.00000     1.25520  0.0
    507    508    509    510   5     4.74884    -0.63178     1.67360  0.0
    507    508    509    529   5     0.00000     0.00000     1.25520  0.0
    507    508    509    530   5     0.00000     0.00000     1.25520  0.0
    527    508    509    510   5     0.00000     0.00000     1.25520  0.0
    527    508    509    529   5     0.00000     0.00000     1.25520  0.0
    527    508    509    530   5     0.00000     0.00000     1.25520  0.0
    528    508    509    510   5     0.00000     0.00000     1.25520  0.0
    528    508    509    529   5     0.00000     0.00000     1.25520  0.0
    528    508    509    530   5     0.00000     0.00000     1.25520  0.0
    508    509    510    511   5     3.67355     4.10869     2.37651  0.0
    508    509    510    531   5     0.00000     0.00000     1.25520  0.0
    508    509    510    532   5     0.00000     0.00000     1.25520  0.0
    529    509    510    511   5     0.00000     0.00000     1.25520  0.0
    529    509    510    531   5     0.00000     0.00000     1.25520  0.0
    529    509    510    532   5     0.00000     0.00000     1.25520  0.0
    530    509    510    511   5     0.00000     0.00000     1.25520  0.0
    530    509    510    531   5     0.00000     0.00000     1.25520  0.0
    530    509    510    532   5     0.00000     0.00000     1.25520  0.0
    509    510    511    533   5     0.00000     0.00000     0.00000  0.0
    509    510    511    534   5    -3.67774    -0.67781     0.28033  0.0
    531    510    511    533   5     0.00000     0.00000     0.00000  0.0
    531    510    511    534   5     0.00000     0.00000     0.00000  0.0
    532    510    511    533   5     0.00000     0.00000     0.00000  0.0
    532    510    511    534   5     0.00000     0.00000     0.00000  0.0
    510    511    534    535   5     0.00000    25.47638     0.00000  0.0
    510    511    534    536   5    12.53945    12.88254     0.00000  0.0
    533    511    534    535   5     0.00000    20.50160     0.00000  0.0
    533    511    534    536   5     0.00000    20.50160     0.00000  0.0
    511    534    536    537   5    11.69428    -0.66526    -1.56900  0.0
    511    534    536    550   5     0.00000     0.00000     0.00000  0.0
    511    534    536    551   5     0.00000     0.00000     0.00000  0.0
    535    534    536    537   5     0.00000     2.52295     0.00000  0.0
    535    534    536    550   5     0.00000     0.00000     0.00000  0.0
    535    534    536    551   5     0.00000     0.00000     0.00000  0.0
    534    536    537    538   5    -8.00818    -1.52298     2.46438  0.0
    534    536    537    552   5     0.00000     0.00000    -0.94140  0.0
    534    536    537    553   5     0.00000     0.00000    -0.94140  0.0
    550    536    537    538   5     0.00000     0.00000     1.25520  0.0
    550    536    537    552   5     0.00000     0.00000     1.25520  0.0
    550    536    537    553   5     0.00000     0.00000     1.25520  0.0
    551    536    537    538   5     0.00000     0.00000     1.25520  0.0
    551    536    537    552   5     0.00000     0.00000     1.25520  0.0
    551    536    537    553   5     0.00000     0.00000     1.25520  0.0
    536    537    538    539   5     4.74884    -0.63178     1.67360  0.0
    536    537    538    554   5     0.00000     0.00000     1.25520  0.0
    536    537    538    555   5     0.00000     0.00000     1.25520  0.0
    552    537    538    539   5     0.00000     0.00000     1.25520  0.0
    552    537    538    554   5     0.00000     0.00000     1.25520  0.0
    552    537    538    555   5     0.00000     0.00000     1.25520  0.0
    553    537    538    539   5     0.00000     0.00000     1.25520  0.0
    553    537    538    554   5     0.00000     0.00000     1.25520  0.0
    553    537    538    555   5     0.00000     0.00000     1.25520  0.0
    537    538    539    540   5    -8.00818    -1.52298     2.46438  0.0
    537    538    539    556   5     0.00000     0.00000     1.25520  0.0
    537    538    539    557   5     0.00000     0.00000     1.25520  0.0
    554    538    539    540   5     0.00000     0.00000    -0.94140  0.0
    554    538    539    556   5     0.00000     0.00000     1.25520  0.0
    554    538    539    557   5     0.00000     0.00000     1.25520  0.0
    555    538    539    540   5     0.00000     0.00000    -0.94140  0.0
    555    538    539    556   5     0.00000     0.00000     1.25520  0.0
    555    538    539    557   5     0.00000     0.00000     1.25520  0.0
    538    539    540    541   5     0.00000     2.52295     0.00000  0.0
    538    539    540    542   5    11.69428    -0.66526    -1.56900  0.0
    556    539    540    541   5     0.00000     0.00000     0.00000  0.0
    556    539    540    542   5     0.00000     0.00000     0.00000  0.0
    557    539    540    541   5     0.00000     0.00000     0.00000  0.0
    557    539    540    542   5     0.00000     0.00000     0.00000  0.0
    539    540    542    543   5    12.53945    12.88254     0.00000  0.0
    539    540    542    558   5     0.00000    20.50160     0.00000  0.0
    541    540    542    543   5     0.00000    25.47638     0.00000  0.0
    541    540    542    558   5     0.00000    20.50160     0.00000  0.0
    540    542    543    544   5    -3.67774    -0.67781     0.28033  0.0
    540    542    543    559   5     0.00000     0.00000     0.00000  0.0
    540    542    543    560   5     0.00000     0.00000     0.00000  0.0
    558    542    543    544   5     0.00000     0.00000     0.00000  0.0
    558    542    543    559   5     0.00000     0.00000     0.00000  0.0
    558    542    543    560   5     0.00000     0.00000     0.00000  0.0
    542    543    544    545   5     3.67355     4.10869     2.37651  0.0
    542    543    544    561   5     0.00000     0.00000     1.25520  0.0
    542    543    544    562   5     0.00000     0.00000     1.25520  0.0
    559    543    544    545   5     0.00000     0.00000     1.25520  0.0
    559    543    544    561   5     0.00000     0.00000     1.25520  0.0
    559    543    544    562   5     0.00000     0.00000     1.25520  0.0
    560    543    544    545   5     0.00000     0.00000     1.25520  0.0
    560    543    544    561   5     0.00000     0.00000     1.25520  0.0
    560    543    544    562   5     0.00000     0.00000     1.25520  0.0
    543    544    545    546   5     4.74884    -0.63178     1.67360  0.0
    543    544    545    563   5     0.00000     0.00000     1.25520  0.0
    543    544    545    564   5     0.00000     0.00000     1.25520  0.0
    561    544    545    546   5     0.00000     0.00000     1.25520  0.0
    561    544    545    563   5     0.00000     0.00000     1.25520  0.0
    561    544    545    564   5     0.00000     0.00000     1.25520  0.0
    562    544    545    546   5     0.00000     0.00000     1.25520  0.0
    562    544    545    563   5     0.00000     0.00000     1.25520  0.0
    562    544    545    564   5     0.00000     0.00000     1.25520  0.0
    544    545    546    547   5     4.74884    -0.63178     1.67360  0.0
    544    545    546    565   5     0.00000     0.00000     1.25520  0.0
    544    545    546    566   5     0.00000     0.00000     1.25520  0.0
    563    545    546    547   5     0.00000     0.00000     1.25520  0.0
    563    545    546    565   5     0.00000     0.00000     1.25520  0.0
    563    545    546    566   5     0.00000     0.00000     1.25520  0.0
    564    545    546    547   5     0.00000     0.00000     1.25520  0.0
    564    545    546    565   5     0.00000     0.00000     1.25520  0.0
    564    545    546    566   5     0.00000     0.00000     1.25520  0.0
    545    546    547    548   5     4.74884    -0.63178     1.67360  0.0
    545    546    547    567   5     0.00000     0.00000     1.25520  0.0
    545    546    547    568   5     0.00000     0.00000     1.25520  0.0
    565    546    547    548   5     0.00000     0.00000     1.25520  0.0
    565    546    547    567   5     0.00000     0.00000     1.25520  0.0
    565    546    547    568   5     0.00000     0.00000     1.25520  0.0
    566    546    547    548   5     0.00000     0.00000     1.25520  0.0
    566    546    547    567   5     0.00000     0.00000     1.25520  0.0
    566    546    547    568   5     0.00000     0.00000     1.25520  0.0
    546    547    548    549   5     3.67355     4.10869     2.37651  0.0
    546    547    548    569   5     0.00000     0.00000     1.25520  0.0
    546    547    548    570   5     0.00000     0.00000     1.25520  0.0
    567    547    548    549   5     0.00000     0.00000     1.25520  0.0
    567    547    548    569   5     0.00000     0.00000     1.25520  0.0
    567    547    548    570   5     0.00000     0.00000     1.25520  0.0
    568    547    548    549   5     0.00000     0.00000     1.25520  0.0
    568    547    548    569   5     0.00000     0.00000     1.25520  0.0
    568    547    548    570   5     0.00000     0.00000     1.25520  0.0
    547    548    549    571   5     0.00000     0.00000     0.00000  0.0
    547    548    549    572   5    -3.67774    -0.67781     0.28033  0.0
    569    548    549    571   5     0.00000     0.00000     0.00000  0.0
    569    548    549    572   5     0.00000     0.00000     0.00000  0.0
    570    548    549    571   5     0.00000     0.00000     0.00000  0.0
    570    548    549    572   5     0.00000     0.00000     0.00000  0.0
    548    549    572    573   5     0.00000    25.47638     0.00000  0.0
    548    549    572    574   5    12.53945    12.88254     0.00000  0.0
    571    549    572    573   5     0.00000    20.50160     0.00000  0.0
    571    549    572    574   5     0.00000    20.50160     0.00000  0.0
    549    572    574    575   5    11.69428    -0.66526    -1.56900  0.0
    549    572    574    588   5     0.00000     0.00000     0.00000  0.0
    549    572    574    589   5     0.00000     0.00000     0.00000  0.0
    573    572    574    575   5     0.00000     2.52295     0.00000  0.0
    573    572    574    588   5     0.00000     0.00000     0.00000  0.0
    573    572    574    589   5     0.00000     0.00000     0.00000  0.0
    572    574    575    576   5    -8.00818    -1.52298     2.46438  0.0
    572    574    575    590   5     0.00000     0.00000    -0.94140  0.0
    572    574    575    591   5     0.00000     0.00000    -0.94140  0.0
    588    574    575    576   5     0.00000     0.00000     1.25520  0.0
    588    574    575    590   5     0.00000     0.00000     1.25520  0.0
    588    574    575    591   5     0.00000     0.00000     1.25520  0.0
    589    574    575    576   5     0.00000     0.00000     1.25520  0.0
    589    574    575    590   5     0.00000     0.00000     1.25520  0.0
    589    574    575    591   5     0.00000     0.00000     1.25520  0.0
    574    575    576    577   5     4.74884    -0.63178     1.67360  0.0
    574    575    576    592   5     0.00000     0.00000     1.25520  0.0
    574    575    576    593   5     0.00000     0.00000     1.25520  0.0
    590    575    576    577   5     0.00000     0.00000     1.25520  0.0
    590    575    576    592   5     0.00000     0.00000     1.25520  0.0
    590    575    576    593   5     0.00000     0.00000     1.25520  0.0
    591    575    576    577   5     0.00000     0.00000     1.25520  0.0
    591    575    576    592   5     0.00000     0.00000     1.25520  0.0
    591    575    576    593   5     0.00000     0.00000     1.25520  0.0
    575    576    577    578   5    -8.00818    -1.52298     2.46438  0.0
    575    576    577    594   5     0.00000     0.00000     1.25520  0.0
    575    576    577    595   5     0.00000     0.00000     1.25520  0.0
    592    576    577    578   5     0.00000     0.00000    -0.94140  0.0
    592    576    577    594   5     0.00000     0.00000     1.25520  0.0
    592    576    577    595   5     0.00000     0.00000     1.25520  0.0
    593    576    577    578   5     0.00000     0.00000    -0.94140  0.0
    593    576    577    594   5     0.00000     0.00000     1.25520  0.0
    593    576    577    595   5     0.00000     0.00000     1.25520  0.0
    576    577    578    579   5     0.00000     2.52295     0.00000  0.0
    576    577    578    580   5    11.69428    -0.66526    -1.56900  0.0
    594    577    578    579   5     0.00000     0.00000     0.00000  0.0
    594    577    578    580   5     0.00000     0.00000     0.00000  0.0
    595    577    578    579   5     0.00000     0.00000     0.00000  0.0
    595    577    578    580   5     0.00000     0.00000     0.00000  0.0
    577    578    580    581   5    12.53945    12.88254     0.00000  0.0
    577    578    580    596   5     0.00000    20.50160     0.00000  0.0
    579    578    580    581   5     0.00000    25.47638     0.00000  0.0
    579    578    580    596   5     0.00000    20.50160     0.00000  0.0
    578    580    581    582   5    -3.67774    -0.67781     0.28033  0.0
    578    580    581    597   5     0.00000     0.00000     0.00000  0.0
    578    580    581    598   5     0.00000     0.00000     0.00000  0.0
    596    580    581    582   5     0.00000     0.00000     0.00000  0.0
    596    580    581    597   5     0.00000     0.00000     0.00000  0.0
    596    580    581    598   5     0.00000     0.00000     0.00000  0.0
    580    581    582    583   5     3.67355     4.10869     2.37651  0.0
    580    581    582    599   5     0.00000     0.00000     1.25520  0.0
    580    581    582    600   5     0.00000     0.00000     1.25520  0.0
    597    581    582    583   5     0.00000     0.00000     1.25520  0.0
    597    581    582    599   5     0.00000     0.00000     1.25520  0.0
    597    581    582    600   5     0.00000     0.00000     1.25520  0.0
    598    581    582    583   5     0.00000     0.00000     1.25520  0.0
    598    581    582    599   5     0.00000     0.00000     1.25520  0.0
    598    581    582    600   5     0.00000     0.00000     1.25520  0.0
    581    582    583    584   5     4.74884    -0.63178     1.67360  0.0
    581    582    583    601   5     0.00000     0.00000     1.25520  0.0
    581    582    583    602   5     0.00000     0.00000     1.25520  0.0
    599    582    583    584   5     0.00000     0.00000     1.25520  0.0
    599    582    583    601   5     0.00000     0.00000     1.25520  0.0
    599    582    583    602   5     0.00000     0.00000     1.25520  0.0
    600    582    583    584   5     0.00000     0.00000     1.25520  0.0
    600    582    583    601   5     0.00000     0.00000     1.25520  0.0
    600    582    583    602   5     0.00000     0.00000     1.25520  0.0
    582    583    584    585   5     4.74884    -0.63178     1.67360  0.0
    582    583    584    603   5     0.00000     0.00000     1.25520  0.0
    582    583    584    604   5     0.00000     0.00000     1.25520  0.0
    601    583    584    585   5     0.00000     0.00000     1.25520  0.0
    601    583    584    603   5     0.00000     0.00000     1.25520  0.0
    601    583    584    604   5     0.00000     0.00000     1.25520  0.0
    602    583    584    585   5     0.00000     0.00000     1.25520  0.0
    602    583    584    603   5     0.00000     0.00000     1.25520  0.0
    602    583    584    604   5     0.00000     0.00000     1.25520  0.0
    583    584    585    586   5     4.74884    -0.63178     1.67360  0.0
    583    584    585    605   5     0.00000     0.00000     1.25520  0.0
    583    584    585    606   5     0.00000     0.00000     1.25520  0.0
    603    584    585    586   5     0.00000     0.00000     1.25520  0.0
    603    584    585    605   5     0.00000     0.00000     1.25520  0.0
    603    584    585    606   5     0.00000     0.00000     1.25520  0.0
    604    584    585    586   5     0.00000     0.00000     1.25520  0.0
    604    584    585    605   5     0.00000     0.00000     1.25520  0.0
    604    584    585    606   5     0.00000     0.00000     1.25520  0.0
    584    585    586    587   5     3.67355     4.10869     2.37651  0.0
    584    585    586    607   5     0.00000     0.00000     1.25520  0.0
    584    585    586    608   5     0.00000     0.00000     1.25520  0.0
    605    585    586    587   5     0.00000     0.00000     1.25520  0.0
    605    585    586    607   5     0.00000     0.00000     1.25520  0.0
    605    585    586    608   5     0.00000     0.00000     1.25520  0.0
    606    585    586    587   5     0.00000     0.00000     1.25520  0.0
    606    585    586    607   5     0.00000     0.00000     1.25520  0.0
    606    585    586    608   5     0.00000     0.00000     1.25520  0.0
    585    586    587    609   5     0.00000     0.00000     0.00000  0.0
    585    586    587    610   5    -3.67774    -0.67781     0.28033  0.0
    607    586    587    609   5     0.00000     0.00000     0.00000  0.0
    607    586    587    610   5     0.00000     0.00000     0.00000  0.0
    608    586    587    609   5     0.00000     0.00000     0.00000  0.0
    608    586    587    610   5     0.00000     0.00000     0.00000  0.0
    586    587    610    611   5     0.00000    25.47638     0.00000  0.0
    586    587    610    612   5    12.53945    12.88254     0.00000  0.0
    609    587    610    611   5     0.00000    20.50160     0.00000  0.0
    609    587    610    612   5     0.00000    20.50160     0.00000  0.0
    587    610    612    613   5    11.69428    -0.66526    -1.56900  0.0
    587    610    612    626   5     0.00000     0.00000     0.00000  0.0
    587    610    612    627   5     0.00000     0.00000     0.00000  0.0
    611    610    612    613   5     0.00000     2.52295     0.00000  0.0
    611    610    612    626   5     0.00000     0.00000     0.00000  0.0
    611    610    612    627   5     0.00000     0.00000     0.00000  0.0
    610    612    613    614   5    -8.00818    -1.52298     2.46438  0.0
    610    612    613    628   5     0.00000     0.00000    -0.94140  0.0
    610    612    613    629   5     0.00000     0.00000    -0.94140  0.0
    626    612    613    614   5     0.00000     0.00000     1.25520  0.0
    626    612    613    628   5     0.00000     0.00000     1.25520  0.0
    626    612    613    629   5     0.00000     0.00000     1.25520  0.0
    627    612    613    614   5     0.00000     0.00000     1.25520  0.0
    627    612    613    628   5     0.00000     0.00000     1.25520  0.0
    627    612    613    629   5     0.00000     0.00000     1.25520  0.0
    612    613    614    615   5     4.74884    -0.63178     1.67360  0.0
    612    613    614    630   5     0.00000     0.00000     1.25520  0.0
    612    613    614    631   5     0.00000     0.00000     1.25520  0.0
    628    613    614    615   5     0.00000     0.00000     1.25520  0.0
    628    613    614    630   5     0.00000     0.00000     1.25520  0.0
    628    613    614    631   5     0.00000     0.00000     1.25520  0.0
    629    613    614    615   5     0.00000     0.00000     1.25520  0.0
    629    613    614    630   5     0.00000     0.00000     1.25520  0.0
    629    613    614    631   5     0.00000     0.00000     1.25520  0.0
    613    614    615    616   5    -8.00818    -1.52298     2.46438  0.0
    613    614    615    632   5     0.00000     0.00000     1.25520  0.0
    613    614    615    633   5     0.00000     0.00000     1.25520  0.0
    630    614    615    616   5     0.00000     0.00000    -0.94140  0.0
    630    614    615    632   5     0.00000     0.00000     1.25520  0.0
    630    614    615    633   5     0.00000     0.00000     1.25520  0.0
    631    614    615    616   5     0.00000     0.00000    -0.94140  0.0
    631    614    615    632   5     0.00000     0.00000     1.25520  0.0
    631    614    615    633   5     0.00000     0.00000     1.25520  0.0
    614    615    616    617   5     0.00000     2.52295     0.00000  0.0
    614    615    616    618   5    11.69428    -0.66526    -1.56900  0.0
    632    615    616    617   5     0.00000     0.00000     0.00000  0.0
    632    615    616    618   5     0.00000     0.00000     0.00000  0.0
    633    615    616    617   5     0.00000     0.00000     0.00000  0.0
    633    615    616    618   5     0.00000     0.00000     0.00000  0.0
    615    616    618    619   5    12.53945    12.88254     0.00000  0.0
    615    616    618    634   5     0.00000    20.50160     0.00000  0.0
    617    616    618    619   5     0.00000    25.47638     0.00000  0.0
    617    616    618    634   5     0.00000    20.50160     0.00000  0.0
    616    618    619    620   5    -3.67774    -0.67781     0.28033  0.0
    616    618    619    635   5     0.00000     0.00000     0.00000  0.0
    616    618    619    636   5     0.00000     0.00000     0.00000  0.0
    634    618    619    620   5     0.00000     0.00000     0.00000  0.0
    634    618    619    635   5     0.00000     0.00000     0.00000  0.0
    634    618    619    636   5     0.00000     0.00000     0.00000  0.0
    618    619    620    621   5     3.67355     4.10869     2.37651  0.0
    618    619    620    637   5     0.00000     0.00000     1.25520  0.0
    618    619    620    638   5     0.00000     0.00000     1.25520  0.0
    635    619    620    621   5     0.00000     0.00000     1.25520  0.0
    635    619    620    637   5     0.00000     0.00000     1.25520  0.0
    635    619    620    638   5     0.00000     0.00000     1.25520  0.0
    636    619    620    621   5     0.00000     0.00000     1.25520  0.0
    636    619    620    637   5     0.00000     0.00000     1.25520  0.0
    636    619    620    638   5     0.00000     0.00000     1.25520  0.0
    619    620    621    622   5     4.74884    -0.63178     1.67360  0.0
    619    620    621    639   5     0.00000     0.00000     1.25520  0.0
    619    620    621    640   5     0.00000     0.00000     1.25520  0.0
    637    620    621    622   5     0.00000     0.00000     1.25520  0.0
    637    620    621    639   5     0.00000     0.00000     1.25520  0.0
    637    620    621    640   5     0.00000     0.00000     1.25520  0.0
    638    620    621    622   5     0.00000     0.00000     1.25520  0.0
    638    620    621    639   5     0.00000     0.00000     1.25520  0.0
    638    620    621    640   5     0.00000     0.00000     1.25520  0.0
    620    621    622    623   5     4.74884    -0.63178     1.67360  0.0
    620    621    622    641   5     0.00000     0.00000     1.25520  0.0
    620    621    622    642   5     0.00000     0.00000     1.25520  0.0
    639    621    622    623   5     0.00000     0.00000     1.25520  0.0
    639    621    622    641   5     0.00000     0.00000     1.25520  0.0
    639    621    622    642   5     0.00000     0.00000     1.25520  0.0
    640    621    622    623   5     0.00000     0.00000     1.25520  0.0
    640    621    622    641   5     0.00000     0.00000     1.25520  0.0
    640    621    622    642   5     0.00000     0.00000     1.25520  0.0
    621    622    623    624   5     4.74884    -0.63178     1.67360  0.0
    621    622    623    643   5     0.00000     0.00000     1.25520  0.0
    621    622    623    644   5     0.00000     0.00000     1.25520  0.0
    641    622    623    624   5     0.00000     0.00000     1.25520  0.0
    641    622    623    643   5     0.00000     0.00000     1.25520  0.0
    641    622    623    644   5     0.00000     0.00000     1.25520  0.0
    642    622    623    624   5     0.00000     0.00000     1.25520  0.0
    642    622    623    643   5     0.00000     0.00000     1.25520  0.0
    642    622    623    644   5     0.00000     0.00000     1.25520  0.0
    622    623    624    625   5     3.67355     4.10869     2.37651  0.0
    622    623    624    645   5     0.00000     0.00000     1.25520  0.0
    622    623    624    646   5     0.00000     0.00000     1.25520  0.0
    643    623    624    625   5     0.00000     0.00000     1.25520  0.0
    643    623    624    645   5     0.00000     0.00000     1.25520  0.0
    643    623    624    646   5     0.00000     0.00000     1.25520  0.0
    644    623    624    625   5     0.00000     0.00000     1.25520  0.0
    644    623    624    645   5     0.00000     0.00000     1.25520  0.0
    644    623    624    646   5     0.00000     0.00000     1.25520  0.0
    623    624    625    647   5     0.00000     0.00000     0.00000  0.0
    623    624    625    648   5    -3.67774    -0.67781     0.28033  0.0
    645    624    625    647   5     0.00000     0.00000     0.00000  0.0
    645    624    625    648   5     0.00000     0.00000     0.00000  0.0
    646    624    625    647   5     0.00000     0.00000     0.00000  0.0
    646    624    625    648   5     0.00000     0.00000     0.00000  0.0
    624    625    648    649   5     0.00000    25.47638     0.00000  0.0
    624    625    648    650   5    12.53945    12.88254     0.00000  0.0
    647    625    648    649   5     0.00000    20.50160     0.00000  0.0
    647    625    648    650   5     0.00000    20.50160     0.00000  0.0
    625    648    650    651   5    11.69428    -0.66526    -1.56900  0.0
    625    648    650    664   5     0.00000     0.00000     0.00000  0.0
    625    648    650    665   5     0.00000     0.00000     0.00000  0.0
    649    648    650    651   5     0.00000     2.52295     0.00000  0.0
    649    648    650    664   5     0.00000     0.00000     0.00000  0.0
    649    648    650    665   5     0.00000     0.00000     0.00000  0.0
    648    650    651    652   5    -8.00818    -1.52298     2.46438  0.0
    648    650    651    666   5     0.00000     0.00000    -0.94140  0.0
    648    650    651    667   5     0.00000     0.00000    -0.94140  0.0
    664    650    651    652   5     0.00000     0.00000     1.25520  0.0
    664    650    651    666   5     0.00000     0.00000     1.25520  0.0
    664    650    651    667   5     0.00000     0.00000     1.25520  0.0
    665    650    651    652   5     0.00000     0.00000     1.25520  0.0
    665    650    651    666   5     0.00000     0.00000     1.25520  0.0
    665    650    651    667   5     0.00000     0.00000     1.25520  0.0
    650    651    652    653   5     4.74884    -0.63178     1.67360  0.0
    650    651    652    668   5     0.00000     0.00000     1.25520  0.0
    650    651    652    669   5     0.00000     0.00000     1.25520  0.0
    666    651    652    653   5     0.00000     0.00000     1.25520  0.0
    666    651    652    668   5     0.00000     0.00000     1.25520  0.0
    666    651    652    669   5     0.00000     0.00000     1.25520  0.0
    667    651    652    653   5     0.00000     0.00000     1.25520  0.0
    667    651    652    668   5     0.00000     0.00000     1.25520  0.0
    667    651    652    669   5     0.00000     0.00000     1.25520  0.0
    651    652    653    654   5    -8.00818    -1.52298     2.46438  0.0
    651    652    653    670   5     0.00000     0.00000     1.25520  0.0
    651    652    653    671   5     0.00000     0.00000     1.25520  0.0
    668    652    653    654   5     0.00000     0.00000    -0.94140  0.0
    668    652    653    670   5     0.00000     0.00000     1.25520  0.0
    668    652    653    671   5     0.00000     0.00000     1.25520  0.0
    669    652    653    654   5     0.00000     0.00000    -0.94140  0.0
    669    652    653    670   5     0.00000     0.00000     1.25520  0.0
    669    652    653    671   5     0.00000     0.00000     1.25520  0.0
    652    653    654    655   5     0.00000     2.52295     0.00000  0.0
    652    653    654    656   5    11.69428    -0.66526    -1.56900  0.0
    670    653    654    655   5     0.00000     0.00000     0.00000  0.0
    670    653    654    656   5     0.00000     0.00000     0.00000  0.0
    671    653    654    655   5     0.00000     0.00000     0.00000  0.0
    671    653    654    656   5     0.00000     0.00000     0.00000  0.0
    653    654    656    657   5    12.53945    12.88254     0.00000  0.0
    653    654    656    672   5     0.00000    20.50160     0.00000  0.0
    655    654    656    657   5     0.00000    25.47638     0.00000  0.0
    655    654    656    672   5     0.00000    20.50160     0.00000  0.0
    654    656    657    658   5    -3.67774    -0.67781     0.28033  0.0
    654    656    657    673   5     0.00000     0.00000     0.00000  0.0
    654    656    657    674   5     0.00000     0.00000     0.00000  0.0
    672    656    657    658   5     0.00000     0.00000     0.00000  0.0
    672    656    657    673   5     0.00000     0.00000     0.00000  0.0
    672    656    657    674   5     0.00000     0.00000     0.00000  0.0
    656    657    658    659   5     3.67355     4.10869     2.37651  0.0
    656    657    658    675   5     0.00000     0.00000     1.25520  0.0
    656    657    658    676   5     0.00000     0.00000     1.25520  0.0
    673    657    658    659   5     0.00000     0.00000     1.25520  0.0
    673    657    658    675   5     0.00000     0.00000     1.25520  0.0
    673    657    658    676   5     0.00000     0.00000     1.25520  0.0
    674    657    658    659   5     0.00000     0.00000     1.25520  0.0
    674    657    658    675   5     0.00000     0.00000     1.25520  0.0
    674    657    658    676   5     0.00000     0.00000     1.25520  0.0
    657    658    659    660   5     4.74884    -0.63178     1.67360  0.0
    657    658    659    677   5     0.00000     0.00000     1.25520  0.0
    657    658    659    678   5     0.00000     0.00000     1.25520  0.0
    675    658    659    660   5     0.00000     0.00000     1.25520  0.0
    675    658    659    677   5     0.00000     0.00000     1.25520  0.0
    675    658    659    678   5     0.00000     0.00000     1.25520  0.0
    676    658    659    660   5     0.00000     0.00000     1.25520  0.0
    676    658    659    677   5     0.00000     0.00000     1.25520  0.0
    676    658    659    678   5     0.00000     0.00000     1.25520  0.0
    658    659    660    661   5     4.74884    -0.63178     1.67360  0.0
    658    659    660    679   5     0.00000     0.00000     1.25520  0.0
    658    659    660    680   5     0.00000     0.00000     1.25520  0.0
    677    659    660    661   5     0.00000     0.00000     1.25520  0.0
    677    659    660    679   5     0.00000     0.00000     1.25520  0.0
    677    659    660    680   5     0.00000     0.00000     1.25520  0.0
    678    659    660    661   5     0.00000     0.00000     1.25520  0.0
    678    659    660    679   5     0.00000     0.00000     1.25520  0.0
    678    659    660    680   5     0.00000     0.00000     1.25520  0.0
    659    660    661    662   5     4.74884    -0.63178     1.67360  0.0
    659    660    661    681   5     0.00000     0.00000     1.25520  0.0
    659    660    661    682   5     0.00000     0.00000     1.25520  0.0
    679    660    661    662   5     0.00000     0.00000     1.25520  0.0
    679    660    661    681   5     0.00000     0.00000     1.25520  0.0
    679    660    661    682   5     0.00000     0.00000     1.25520  0.0
    680    660    661    662   5     0.00000     0.00000     1.25520  0.0
    680    660    661    681   5     0.00000     0.00000     1.25520  0.0
    680    660    661    682   5     0.00000     0.00000     1.25520  0.0
    660    661    662    663   5     3.67355     4.10869     2.37651  0.0
    660    661    662    683   5     0.00000     0.00000     1.25520  0.0
    660    661    662    684   5     0.00000     0.00000     1.25520  0.0
    681    661    662    663   5     0.00000     0.00000     1.25520  0.0
    681    661    662    683   5     0.00000     0.00000     1.25520  0.0
    681    661    662    684   5     0.00000     0.00000     1.25520  0.0
    682    661    662    663   5     0.00000     0.00000     1.25520  0.0
    682    661    662    683   5     0.00000     0.00000     1.25520  0.0
    682    661    662    684   5     0.00000     0.00000     1.25520  0.0
    661    662    663    685   5     0.00000     0.00000     0.00000  0.0
    661    662    663    686   5    -3.67774    -0.67781     0.28033  0.0
    683    662    663    685   5     0.00000     0.00000     0.00000  0.0
    683    662    663    686   5     0.00000     0.00000     0.00000  0.0
    684    662    663    685   5     0.00000     0.00000     0.00000  0.0
    684    662    663    686   5     0.00000     0.00000     0.00000  0.0
    662    663    686    687   5     0.00000    25.47638     0.00000  0.0
    662    663    686    688   5    12.53945    12.88254     0.00000  0.0
    685    663    686    687   5     0.00000    20.50160     0.00000  0.0
    685    663    686    688   5     0.00000    20.50160     0.00000  0.0
    663    686    688    689   5    11.69428    -0.66526    -1.56900  0.0
    663    686    688    702   5     0.00000     0.00000     0.00000  0.0
    663    686    688    703   5     0.00000     0.00000     0.00000  0.0
    687    686    688    689   5     0.00000     2.52295     0.00000  0.0
    687    686    688    702   5     0.00000     0.00000     0.00000  0.0
    687    686    688    703   5     0.00000     0.00000     0.00000  0.0
    686    688    689    690   5    -8.00818    -1.52298     2.46438  0.0
    686    688    689    704   5     0.00000     0.00000    -0.94140  0.0
    686    688    689    705   5     0.00000     0.00000    -0.94140  0.0
    702    688    689    690   5     0.00000     0.00000     1.25520  0.0
    702    688    689    704   5     0.00000     0.00000     1.25520  0.0
    702    688    689    705   5     0.00000     0.00000     1.25520  0.0
    703    688    689    690   5     0.00000     0.00000     1.25520  0.0
    703    688    689    704   5     0.00000     0.00000     1.25520  0.0
    703    688    689    705   5     0.00000     0.00000     1.25520  0.0
    688    689    690    691   5     4.74884    -0.63178     1.67360  0.0
    688    689    690    706   5     0.00000     0.00000     1.25520  0.0
    688    689    690    707   5     0.00000     0.00000     1.25520  0.0
    704    689    690    691   5     0.00000     0.00000     1.25520  0.0
    704    689    690    706   5     0.00000     0.00000     1.25520  0.0
    704    689    690    707   5     0.00000     0.00000     1.25520  0.0
    705    689    690    691   5     0.00000     0.00000     1.25520  0.0
    705    689    690    706   5     0.00000     0.00000     1.25520  0.0
    705    689    690    707   5     0.00000     0.00000     1.25520  0.0
    689    690    691    692   5    -8.00818    -1.52298     2.46438  0.0
    689    690    691    708   5     0.00000     0.00000     1.25520  0.0
    689    690    691    709   5     0.00000     0.00000     1.25520  0.0
    706    690    691    692   5     0.00000     0.00000    -0.94140  0.0
    706    690    691    708   5     0.00000     0.00000     1.25520  0.0
    706    690    691    709   5     0.00000     0.00000     1.25520  0.0
    707    690    691    692   5     0.00000     0.00000    -0.94140  0.0
    707    690    691    708   5     0.00000     0.00000     1.25520  0.0
    707    690    691    709   5     0.00000     0.00000     1.25520  0.0
    690    691    692    693   5     0.00000     2.52295     0.00000  0.0
    690    691    692    694   5    11.69428    -0.66526    -1.56900  0.0
    708    691    692    693   5     0.00000     0.00000     0.00000  0.0
    708    691    692    694   5     0.00000     0.00000     0.00000  0.0
    709    691    692    693   5     0.00000     0.00000     0.00000  0.0
    709    691    692    694   5     0.00000     0.00000     0.00000  0.0
    691    692    694    695   5    12.53945    12.88254     0.00000  0.0
    691    692    694    710   5     0.00000    20.50160     0.00000  0.0
    693    692    694    695   5     0.00000    25.47638     0.00000  0.0
    693    692    694    710   5     0.00000    20.50160     0.00000  0.0
    692    694    695    696   5    -3.67774    -0.67781     0.28033  0.0
    692    694    695    711   5     0.00000     0.00000     0.00000  0.0
    692    694    695    712   5     0.00000     0.00000     0.00000  0.0
    710    694    695    696   5     0.00000     0.00000     0.00000  0.0
    710    694    695    711   5     0.00000     0.00000     0.00000  0.0
    710    694    695    712   5     0.00000     0.00000     0.00000  0.0
    694    695    696    697   5     3.67355     4.10869     2.37651  0.0
    694    695    696    713   5     0.00000     0.00000     1.25520  0.0
    694    695    696    714   5     0.00000     0.00000     1.25520  0.0
    711    695    696    697   5     0.00000     0.00000     1.25520  0.0
    711    695    696    713   5     0.00000     0.00000     1.25520  0.0
    711    695    696    714   5     0.00000     0.00000     1.25520  0.0
    712    695    696    697   5     0.00000     0.00000     1.25520  0.0
    712    695    696    713   5     0.00000     0.00000     1.25520  0.0
    712    695    696    714   5     0.00000     0.00000     1.25520  0.0
    695    696    697    698   5     4.74884    -0.63178     1.67360  0.0
    695    696    697    715   5     0.00000     0.00000     1.25520  0.0
    695    696    697    716   5     0.00000     0.00000     1.25520  0.0
    713    696    697    698   5     0.00000     0.00000     1.25520  0.0
    713    696    697    715   5     0.00000     0.00000     1.25520  0.0
    713    696    697    716   5     0.00000     0.00000     1.25520  0.0
    714    696    697    698   5     0.00000     0.00000     1.25520  0.0
    714    696    697    715   5     0.00000     0.00000     1.25520  0.0
    714    696    697    716   5     0.00000     0.00000     1.25520  0.0
    696    697    698    699   5     4.74884    -0.63178     1.67360  0.0
    696    697    698    717   5     0.00000     0.00000     1.25520  0.0
    696    697    698    718   5     0.00000     0.00000     1.25520  0.0
    715    697    698    699   5     0.00000     0.00000     1.25520  0.0
    715    697    698    717   5     0.00000     0.00000     1.25520  0.0
    715    697    698    718   5     0.00000     0.00000     1.25520  0.0
    716    697    698    699   5     0.00000     0.00000     1.25520  0.0
    716    697    698    717   5     0.00000     0.00000     1.25520  0.0
    716    697    698    718   5     0.00000     0.00000     1.25520  0.0
    697    698    699    700   5     4.74884    -0.63178     1.67360  0.0
    697    698    699    719   5     0.00000     0.00000     1.25520  0.0
    697    698    699    720   5     0.00000     0.00000     1.25520  0.0
    717    698    699    700   5     0.00000     0.00000     1.25520  0.0
    717    698    699    719   5     0.00000     0.00000     1.25520  0.0
    717    698    699    720   5     0.00000     0.00000     1.25520  0.0
    718    698    699    700   5     0.00000     0.00000     1.25520  0.0
    718    698    699    719   5     0.00000     0.00000     1.25520  0.0
    718    698    699    720   5     0.00000     0.00000     1.25520  0.0
    698    699    700    701   5     3.67355     4.10869     2.37651  0.0
    698    699    700    721   5     0.00000     0.00000     1.25520  0.0
    698    699    700    722   5     0.00000     0.00000     1.25520  0.0
    719    699    700    701   5     0.00000     0.00000     1.25520  0.0
    719    699    700    721   5     0.00000     0.00000     1.25520  0.0
    719    699    700    722   5     0.00000     0.00000     1.25520  0.0
    720    699    700    701   5     0.00000     0.00000     1.25520  0.0
    720    699    700    721   5     0.00000     0.00000     1.25520  0.0
    720    699    700    722   5     0.00000     0.00000     1.25520  0.0
    699    700    701    723   5     0.00000     0.00000     0.00000  0.0
    699    700    701    724   5    -3.67774    -0.67781     0.28033  0.0
    721    700    701    723   5     0.00000     0.00000     0.00000  0.0
    721    700    701    724   5     0.00000     0.00000     0.00000  0.0
    722    700    701    723   5     0.00000     0.00000     0.00000  0.0
    722    700    701    724   5     0.00000     0.00000     0.00000  0.0
    700    701    724    725   5     0.00000    25.47638     0.00000  0.0
    700    701    724    726   5    12.53945    12.88254     0.00000  0.0
    723    701    724    725   5     0.00000    20.50160     0.00000  0.0
    723    701    724    726   5     0.00000    20.50160     0.00000  0.0
    701    724    726    727   5    11.69428    -0.66526    -1.56900  0.0
    701    724    726    740   5     0.00000     0.00000     0.00000  0.0
    701    724    726    741   5     0.00000     0.00000     0.00000  0.0
    725    724    726    727   5     0.00000     2.52295     0.00000  0.0
    725    724    726    740   5     0.00000     0.00000     0.00000  0.0
    725    724    726    741   5     0.00000     0.00000     0.00000  0.0
    724    726    727    728   5    -8.00818    -1.52298     2.46438  0.0
    724    726    727    742   5     0.00000     0.00000    -0.94140  0.0
    724    726    727    743   5     0.00000     0.00000    -0.94140  0.0
    740    726    727    728   5     0.00000     0.00000     1.25520  0.0
    740    726    727    742   5     0.00000     0.00000     1.25520  0.0
    740    726    727    743   5     0.00000     0.00000     1.25520  0.0
    741    726    727    728   5     0.00000     0.00000     1.25520  0.0
    741    726    727    742   5     0.00000     0.00000     1.25520  0.0
    741    726    727    743   5     0.00000     0.00000     1.25520  0.0
    726    727    728    729   5     4.74884    -0.63178     1.67360  0.0
    726    727    728    744   5     0.00000     0.00000     1.25520  0.0
    726    727    728    745   5     0.00000     0.00000     1.25520  0.0
    742    727    728    729   5     0.00000     0.00000     1.25520  0.0
    742    727    728    744   5     0.00000     0.00000     1.25520  0.0
    742    727    728    745   5     0.00000     0.00000     1.25520  0.0
    743    727    728    729   5     0.00000     0.00000     1.25520  0.0
    743    727    728    744   5     0.00000     0.00000     1.25520  0.0
    743    727    728    745   5     0.00000     0.00000     1.25520  0.0
    727    728    729    730   5    -8.00818    -1.52298     2.46438  0.0
    727    728    729    746   5     0.00000     0.00000     1.25520  0.0
    727    728    729    747   5     0.00000     0.00000     1.25520  0.0
    744    728    729    730   5     0.00000     0.00000    -0.94140  0.0
    744    728    729    746   5     0.00000     0.00000     1.25520  0.0
    744    728    729    747   5     0.00000     0.00000     1.25520  0.0
    745    728    729    730   5     0.00000     0.00000    -0.94140  0.0
    745    728    729    746   5     0.00000     0.00000     1.25520  0.0
    745    728    729    747   5     0.00000     0.00000     1.25520  0.0
    728    729    730    731   5     0.00000     2.52295     0.00000  0.0
    728    729    730    732   5    11.69428    -0.66526    -1.56900  0.0
    746    729    730    731   5     0.00000     0.00000     0.00000  0.0
    746    729    730    732   5     0.00000     0.00000     0.00000  0.0
    747    729    730    731   5     0.00000     0.00000     0.00000  0.0
    747    729    730    732   5     0.00000     0.00000     0.00000  0.0
    729    730    732    733   5    12.53945    12.88254     0.00000  0.0
    729    730    732    748   5     0.00000    20.50160     0.00000  0.0
    731    730    732    733   5     0.00000    25.47638     0.00000  0.0
    731    730    732    748   5     0.00000    20.50160     0.00000  0.0
    730    732    733    734   5    -3.67774    -0.67781     0.28033  0.0
    730    732    733    749   5     0.00000     0.00000     0.00000  0.0
    730    732    733    750   5     0.00000     0.00000     0.00000  0.0
    748    732    733    734   5     0.00000     0.00000     0.00000  0.0
    748    732    733    749   5     0.00000     0.00000     0.00000  0.0
    748    732    733    750   5     0.00000     0.00000     0.00000  0.0
    732    733    734    735   5     3.67355     4.10869     2.37651  0.0
    732    733    734    751   5     0.00000     0.00000     1.25520  0.0
    732    733    734    752   5     0.00000     0.00000     1.25520  0.0
    749    733    734    735   5     0.00000     0.00000     1.25520  0.0
    749    733    734    751   5     0.00000     0.00000     1.25520  0.0
    749    733    734    752   5     0.00000     0.00000     1.25520  0.0
    750    733    734    735   5     0.00000     0.00000     1.25520  0.0
    750    733    734    751   5     0.00000     0.00000     1.25520  0.0
    750    733    734    752   5     0.00000     0.00000     1.25520  0.0
    733    734    735    736   5     4.74884    -0.63178     1.67360  0.0
    733    734    735    753   5     0.00000     0.00000     1.25520  0.0
    733    734    735    754   5     0.00000     0.00000     1.25520  0.0
    751    734    735    736   5     0.00000     0.00000     1.25520  0.0
    751    734    735    753   5     0.00000     0.00000     1.25520  0.0
    751    734    735    754   5     0.00000     0.00000     1.25520  0.0
    752    734    735    736   5     0.00000     0.00000     1.25520  0.0
    752    734    735    753   5     0.00000     0.00000     1.25520  0.0
    752    734    735    754   5     0.00000     0.00000     1.25520  0.0
    734    735    736    737   5     4.74884    -0.63178     1.67360  0.0
    734    735    736    755   5     0.00000     0.00000     1.25520  0.0
    734    735    736    756   5     0.00000     0.00000     1.25520  0.0
    753    735    736    737   5     0.00000     0.00000     1.25520  0.0
    753    735    736    755   5     0.00000     0.00000     1.25520  0.0
    753    735    736    756   5     0.00000     0.00000     1.25520  0.0
    754    735    736    737   5     0.00000     0.00000     1.25520  0.0
    754    735    736    755   5     0.00000     0.00000     1.25520  0.0
    754    735    736    756   5     0.00000     0.00000     1.25520  0.0
    735    736    737    738   5     4.74884    -0.63178     1.67360  0.0
    735    736    737    757   5     0.00000     0.00000     1.25520  0.0
    735    736    737    758   5     0.00000     0.00000     1.25520  0.0
    755    736    737    738   5     0.00000     0.00000     1.25520  0.0
    755    736    737    757   5     0.00000     0.00000     1.25520  0.0
    755    736    737    758   5     0.00000     0.00000     1.25520  0.0
    756    736    737    738   5     0.00000     0.00000     1.25520  0.0
    756    736    737    757   5     0.00000     0.00000     1.25520  0.0
    756    736    737    758   5     0.00000     0.00000     1.25520  0.0
    736    737    738    739   5    12.83651    -0.83262     0.47698  0.0
    736    737    738    759   5     0.00000     0.00000     1.25520  0.0
    736    737    738    760   5     0.00000     0.00000     1.25520  0.0
    757    737    738    739   5     0.00000     0.00000     1.25520  0.0
    757    737    738    759   5     0.00000     0.00000     1.25520  0.0
    757    737    738    760   5     0.00000     0.00000     1.25520  0.0
    758    737    738    739   5     0.00000     0.00000     1.25520  0.0
    758    737    738    759   5     0.00000     0.00000     1.25520  0.0
    758    737    738    760   5     0.00000     0.00000     1.25520  0.0
    737    738    739    761   5    -0.49790     0.74057     0.98324  0.0
    737    738    739    762   5    -0.49790     0.74057     0.98324  0.0
    759    738    739    761   5     0.00000     0.00000     1.67360  0.0
    759    738    739    762   5     0.00000     0.00000     1.67360  0.0
    760    738    739    761   5     0.00000     0.00000     1.67360  0.0
    760    738    739    762   5     0.00000     0.00000     1.67360  0.0

[ dihedrals ]
; Improper dihedrals
; h   i   j   k   funct
      2      3      1     39   5     0.00000    87.86400     0.00000  0.0
      6      8      7      9   5     0.00000    87.86400     0.00000  0.0
      7     10      9     25   5     0.00000     8.36800     0.00000  0.0
     15     38     16     40   5     0.00000     8.36800     0.00000  0.0
     16     41     40     42   5     0.00000    87.86400     0.00000  0.0
     45     47     46     48   5     0.00000    87.86400     0.00000  0.0
     46     49     48     64   5     0.00000     8.36800     0.00000  0.0
     54     77     55     78   5     0.00000     8.36800     0.00000  0.0
     55     79     78     80   5     0.00000    87.86400     0.00000  0.0
     83     85     84     86   5     0.00000    87.86400     0.00000  0.0
     84     87     86    102   5     0.00000     8.36800     0.00000  0.0
     92    115     93    116   5     0.00000     8.36800     0.00000  0.0
     93    117    116    118   5     0.00000    87.86400     0.00000  0.0
    121    123    122    124   5     0.00000    87.86400     0.00000  0.0
    122    125    124    140   5     0.00000     8.36800     0.00000  0.0
    130    153    131    154   5     0.00000     8.36800     0.00000  0.0
    131    155    154    156   5     0.00000    87.86400     0.00000  0.0
    159    161    160    162   5     0.00000    87.86400     0.00000  0.0
    160    163    162    178   5     0.00000     8.36800     0.00000  0.0
    168    191    169    192   5     0.00000     8.36800     0.00000  0.0
    169    193    192    194   5     0.00000    87.86400     0.00000  0.0
    197    199    198    200   5     0.00000    87.86400     0.00000  0.0
    198    201    200    216   5     0.00000     8.36800     0.00000  0.0
    206    229    207    230   5     0.00000     8.36800     0.00000  0.0
    207    231    230    232   5     0.00000    87.86400     0.00000  0.0
    235    237    236    238   5     0.00000    87.86400     0.00000  0.0
    236    239    238    254   5     0.00000     8.36800     0.00000  0.0
    244    267    245    268   5     0.00000     8.36800     0.00000  0.0
    245    269    268    270   5     0.00000    87.86400     0.00000  0.0
    273    275    274    276   5     0.00000    87.86400     0.00000  0.0
    274    277    276    292   5     0.00000     8.36800     0.00000  0.0
    282    305    283    306   5     0.00000     8.36800     0.00000  0.0
    283    307    306    308   5     0.00000    87.86400     0.00000  0.0
    311    313    312    314   5     0.00000    87.86400     0.00000  0.0
    312    315    314    330   5     0.00000     8.36800     0.00000  0.0
    320    343    321    344   5     0.00000     8.36800     0.00000  0.0
    321    345    344    346   5     0.00000    87.86400     0.00000  0.0
    349    351    350    352   5     0.00000    87.86400     0.00000  0.0
    350    353    352    368   5     0.00000     8.36800     0.00000  0.0
    358    381    359    382   5     0.00000     8.36800     0.00000  0.0
    359    383    382    384   5     0.00000    87.86400     0.00000  0.0
    387    389    388    390   5     0.00000    87.86400     0.00000  0.0
    388    391    390    406   5     0.00000     8.36800     0.00000  0.0
    396    419    397    420   5     0.00000     8.36800     0.00000  0.0
    397    421    420    422   5     0.00000    87.86400     0.00000  0.0
    425    427    426    428   5     0.00000    87.86400     0.00000  0.0
    426    429    428    444   5     0.00000     8.36800     0.00000  0.0
    434    457    435    458   5     0.00000     8.36800     0.00000  0.0
    435    459    458    460   5     0.00000    87.86400     0.00000  0.0
    463    465    464    466   5     0.00000    87.86400     0.00000  0.0
    464    467    466    482   5     0.00000     8.36800     0.00000  0.0
    472    495    473    496   5     0.00000     8.36800     0.00000  0.0
    473    497    496    498   5     0.00000    87.86400     0.00000  0.0
    501    503    502    504   5     0.00000    87.86400     0.00000  0.0
    502    505    504    520   5     0.00000     8.36800     0.00000  0.0
    510    533    511    534   5     0.00000     8.36800     0.00000  0.0
    511    535    534    536   5     0.00000    87.86400     0.00000  0.0
    539    541    540    542   5     0.00000    87.86400     0.00000  0.0
    540    543    542    558   5     0.00000     8.36800     0.00000  0.0
    548    571    549    572   5     0.00000     8.36800     0.00000  0.0
    549    573    572    574   5     0.00000    87.86400     0.00000  0.0
    577    579    578    580   5     0.00000    87.86400     0.00000  0.0
    578    581    580    596   5     0.00000     8.36800     0.00000  0.0
    586    609    587    610   5     0.00000     8.36800     0.00000  0.0
    587    611    610    612   5     0.00000    87.86400     0.00000  0.0
    615    617    616    618   5     0.00000    87.86400     0.00000  0.0
    616    619    618    634   5     0.00000     8.36800     0.00000  0.0
    624    647    625    648   5     0.00000     8.36800     0.00000  0.0
    625    649    648    650   5     0.00000    87.86400     0.00000  0.0
    653    655    654    656   5     0.00000    87.86400     0.00000  0.0
    654    657    656    672   5     0.00000     8.36800     0.00000  0.0
    662    685    663    686   5     0.00000     8.36800     0.00000  0.0
    663    687    686    688   5     0.00000    87.86400     0.00000  0.0
    691    693    692    694   5     0.00000    87.86400     0.00000  0.0
    692    695    694    710   5     0.00000     8.36800     0.00000  0.0
    700    723    701    724   5     0.00000     8.36800     0.00000  0.0
    701    725    724    726   5     0.00000    87.86400     0.00000  0.0
    729    731    730    732   5     0.00000    87.86400     0.00000  0.0
    730    733    732    748   5     0.00000     8.36800     0.00000  0.0
