Control file title. For DL_FIELD 4.10
49530
    1MOL     C1    1   2.719   1.851   1.378  0.6405  0.0507 -0.4273
    1MOL     O2    2   2.818   1.786   1.344  0.2831 -0.0849  0.0985
    1MOL     C3    3   2.713   1.951   1.493 -0.5978  0.5259  0.3530
    1MOL     C4    4   2.654   1.890   1.619  0.2758  0.0579 -0.3603
    1MOL     C5    5   2.753   1.822   1.709  0.2687  0.8385 -0.8730
    1MOL     C6    6   2.851   1.915   1.772 -1.0187  0.1696  0.9323
    1MOL     C7    7   2.787   2.003   1.877 -0.3974 -0.2316  0.3274
    1MOL     O8    8   2.752   1.964   1.988  0.4992  0.1226 -0.4652
    1MOL     N9    9   2.772   2.131   1.841  0.2338 -0.0058  0.3176
    1MOL    C10   10   2.717   2.233   1.930 -0.2719 -0.7102 -0.2966
    1MOL    C11   11   2.567   2.220   1.941 -0.1452 -0.6222 -0.3079
    1MOL    C12   12   2.503   2.339   2.009 -0.2405  0.0252 -0.3367
    1MOL    C13   13   2.500   2.321   2.162  0.4100  0.4912  0.8508
    1MOL    C14   14   2.419   2.432   2.236 -0.0412  0.6186 -0.3375
    1MOL    C15   15   2.466   2.456   2.380  0.2650  0.5325 -0.2781
    1MOL    N16   16   2.410   2.357   2.472  0.0451  0.4219  0.0579
    1MOL    H17   17   2.811   1.993   1.513  0.3551  0.2270 -3.3343
    1MOL    H18   18   2.646   2.022   1.445  0.7203  1.2240 -0.4814
    1MOL    H19   19   2.611   1.962   1.689  3.9677  1.8497  0.1391
    1MOL    H20   20   2.568   1.825   1.601 -0.0864  0.5464 -0.4165
    1MOL    H21   21   2.805   1.737   1.664 -0.4930  0.5791 -1.2771
    1MOL    H22   22   2.695   1.774   1.788  3.3305 -3.1190 -0.8682
    1MOL    H23   23   2.905   1.968   1.694  1.7784 -0.0951  2.6067
    1MOL    H24   24   2.919   1.851   1.828  1.3599  1.0808 -0.8582
    1MOL    H25   25   2.794   2.168   1.750 -0.0309 -0.6813 -0.0206
    1MOL    H26   26   2.769   2.222   2.025 -3.0224  1.2797  1.4951
    1MOL    H27   27   2.737   2.324   1.872  0.3938 -1.2069 -0.8619
    1MOL    H28   28   2.534   2.225   1.837 -2.9570  0.2261  0.5917
    1MOL    H29   29   2.531   2.124   1.977 -0.5119 -0.2110  0.4410
    1MOL    H30   30   2.401   2.360   1.976 -0.1514 -0.9359 -1.2724
    1MOL    H31   31   2.562   2.427   1.988 -0.4330  0.5472  1.2472
    1MOL    H32   32   2.450   2.226   2.181  2.0491 -0.7644 -0.9692
    1MOL    H33   33   2.603   2.308   2.198  0.3202 -1.2584  0.5239
    1MOL    H34   34   2.429   2.516   2.168 -1.2368 -0.9306 -2.5121
    1MOL    H35   35   2.316   2.401   2.217 -0.2033  0.8158  0.2103
    1MOL    H36   36   2.448   2.561   2.404  1.0598  0.7133 -0.4674
    1MOL    H37   37   2.575   2.451   2.383  0.1978 -0.8442  2.6861
    1MOL    H38   38   2.346   2.282   2.448  1.7012 -0.8015 -0.6608
    1MOL    H39   39   2.627   1.839   1.321  1.3921  0.0657 -1.6445
    1MOL    C40   40   2.464   2.345   2.596  0.0201  0.1773  0.2975
    1MOL    O41   41   2.544   2.431   2.639  0.1064 -0.1214  0.7562
    1MOL    C42   42   2.421   2.214   2.675  0.0261 -0.8340 -0.0079
    1MOL    C43   43   2.507   2.169   2.799 -0.1374 -0.5973 -0.4408
    1MOL    C44   44   2.647   2.126   2.768  0.8305  0.2861 -0.0325
    1MOL    C45   45   2.722   2.056   2.883  0.7438  0.0612  0.7460
    1MOL    C46   46   2.676   1.913   2.899  0.2094  0.8082  0.0113
    1MOL    O47   47   2.614   1.859   2.809  0.2064  0.1911  0.4278
    1MOL    N48   48   2.718   1.848   3.009  0.3319  0.0516 -0.6960
    1MOL    C49   49   2.694   1.701   3.031  0.1074  0.7566 -0.5631
    1MOL    C50   50   2.793   1.638   3.119  0.4133 -0.4264 -0.0678
    1MOL    C51   51   2.777   1.495   3.164 -0.0955 -0.0062 -0.2834
    1MOL    C52   52   2.739   1.482   3.312 -0.3729 -0.5567  0.2586
    1MOL    C53   53   2.593   1.517   3.356  0.4796 -0.3023  0.8171
    1MOL    C54   54   2.472   1.447   3.288  0.6663  0.2390  0.2708
    1MOL    N55   55   2.341   1.489   3.342  0.1638  0.1014  0.2077
    1MOL    H56   56   2.321   2.219   2.717  0.2284 -0.5773  0.4459
    1MOL    H57   57   2.427   2.134   2.602  1.9552 -1.8591  1.2446
    1MOL    H58   58   2.504   2.251   2.870  0.0364 -1.2828  0.3712
    1MOL    H59   59   2.450   2.086   2.842 -1.8618  0.5877 -0.4147
    1MOL    H60   60   2.702   2.210   2.725  0.7711 -0.3918 -1.4395
    1MOL    H61   61   2.645   2.053   2.687 -1.6774  1.4101 -1.0178
    1MOL    H62   62   2.700   2.109   2.975  0.8234 -0.6800  1.1902
    1MOL    H63   63   2.829   2.061   2.866  0.7772 -1.5339  0.3630
    1MOL    H64   64   2.770   1.903   3.076 -0.2393  0.2352 -0.3981
    1MOL    H65   65   2.591   1.690   3.064  0.4151  0.6631  0.3949
    1MOL    H66   66   2.698   1.651   2.935  2.4252 -2.4748  1.1149
    1MOL    H67   67   2.879   1.631   3.052  0.1687  0.0267 -0.4326
    1MOL    H68   68   2.820   1.696   3.207 -0.9268  1.3749 -0.7926
    1MOL    H69   69   2.873   1.445   3.147  0.1469  0.5079 -0.4418
    1MOL    H70   70   2.697   1.447   3.108  0.1208 -0.4223 -0.2387
    1MOL    H71   71   2.748   1.377   3.337 -1.6497 -0.2935  1.8800
    1MOL    H72   72   2.802   1.544   3.375 -3.5096  2.9341  0.1663
    1MOL    H73   73   2.584   1.516   3.464 -0.8900 -2.2757  0.7117
    1MOL    H74   74   2.578   1.624   3.346 -0.0411 -0.2841  1.7588
    1MOL    H75   75   2.476   1.338   3.295  2.5173  0.1299 -1.8727
    1MOL    H76   76   2.488   1.467   3.182  0.9980  3.0739  0.8357
    1MOL    H77   77   2.342   1.567   3.407  0.3073  0.1174  0.1866
    1MOL    C78   78   2.219   1.446   3.299  0.4774  0.2135  0.7010
    1MOL    O79   79   2.203   1.379   3.197 -0.4936 -0.1391  0.4267
    1MOL    C80   80   2.096   1.507   3.366 -0.7765  0.3326  0.3713
    1MOL    C81   81   1.978   1.547   3.275 -0.6196 -0.2780  0.3102
    1MOL    C82   82   1.897   1.665   3.334 -0.1493 -0.0090  0.7526
    1MOL    C83   83   1.811   1.631   3.465 -0.1604  0.2686 -0.1998
    1MOL    C84   84   1.675   1.561   3.444  0.0636 -0.6862  0.1214
    1MOL    O85   85   1.626   1.551   3.331  0.3706 -0.2484 -0.1286
    1MOL    N86   86   1.616   1.511   3.556  0.3264  0.4426  0.7786
    1MOL    C87   87   1.478   1.458   3.572 -0.2654 -0.7130 -0.2383
    1MOL    C88   88   1.493   1.309   3.600  0.3412 -0.2139  0.1306
    1MOL    C89   89   1.357   1.230   3.615  0.2630  0.4170  0.3895
    1MOL    C90   90   1.378   1.081   3.654  0.1579 -0.3936 -0.4582
    1MOL    C91   91   1.252   0.995   3.654 -0.1402  0.0914 -0.2094
    1MOL    C92   92   1.286   0.846   3.683  0.0830  0.0827  0.9722
    1MOL    N93   93   1.157   0.777   3.685  0.2507 -0.3695  0.1114
    1MOL    H94   94   2.071   1.439   3.447 -0.5669 -0.3394 -0.1217
    1MOL    H95   95   2.118   1.597   3.425 -3.5885  1.1783  0.2013
    1MOL    H96   96   2.017   1.588   3.182 -1.2553  1.5748  0.8387
    1MOL    H97   97   1.925   1.454   3.253  0.9649 -0.8564 -1.1914
    1MOL    H98   98   1.833   1.693   3.251  0.6508 -1.9953 -0.5821
    1MOL    H99   99   1.959   1.750   3.362 -1.5001  1.5528 -0.9214
    1MOL   H100  100   1.795   1.725   3.518  2.6006  1.1697 -0.8423
    1MOL   H101  101   1.881   1.581   3.532  0.5944  0.1342 -1.0798
    1MOL   H102  102   1.663   1.537   3.641 -0.0287  1.6048  0.6268
    1MOL   H103  103   1.425   1.491   3.661  0.1539 -1.7376  0.4071
    1MOL   H104  104   1.418   1.492   3.487 -2.1201 -0.9365  0.9621
    1MOL   H105  105   1.540   1.258   3.515  1.6959  1.3187 -0.0775
    1MOL   H106  106   1.552   1.283   3.688 -1.2365  0.4343  1.3882
    1MOL   H107  107   1.296   1.220   3.525 -0.9291 -0.5618  1.2797
    1MOL   H108  108   1.285   1.275   3.684 -2.1148 -0.9050 -1.1365
    1MOL   H109  109   1.453   1.032   3.591  1.6808  1.4132 -0.1202
    1MOL   H110  110   1.419   1.083   3.756 -1.8040  1.3883  0.3211
    1MOL   H111  111   1.174   1.042   3.714 -0.9243  1.9519 -2.6174
    1MOL   H112  112   1.207   0.994   3.555  0.6805  1.4994 -0.6126
    1MOL   H113  113   1.338   0.824   3.777 -0.0883 -0.0508  1.0371
    1MOL   H114  114   1.343   0.805   3.600 -3.6754 -3.2054 -0.1527
    1MOL   H115  115   1.082   0.814   3.629  0.1544  0.6265  0.8808
    1MOL   C116  116   1.145   0.662   3.750 -0.0194  0.0880 -0.1891
    1MOL   O117  117   1.223   0.624   3.836 -0.1020 -1.0983 -0.3035
    1MOL   C118  118   1.034   0.568   3.709 -0.0072 -0.0568  0.3374
    1MOL   C119  119   0.944   0.517   3.823 -0.2771 -0.0606 -0.0462
    1MOL   C120  120   0.834   0.621   3.863 -0.7083 -0.9047 -0.0731
    1MOL   C121  121   0.728   0.584   3.960 -1.3237 -0.4835  0.4827
    1MOL   C122  122   0.606   0.506   3.901 -0.3819 -0.0597 -0.4133
    1MOL   O123  123   0.535   0.560   3.817  0.0885  0.0494  0.1058
    1MOL   N124  124   0.584   0.381   3.939  0.2369 -0.3024 -1.1761
    1MOL   C125  125   0.481   0.295   3.886 -0.2504 -0.2159 -1.0503
    1MOL   C126  126   0.514   0.146   3.915 -1.0875 -0.3716  0.6562
    1MOL   C127  127   0.649   0.099   3.859  0.1285 -0.3795 -0.0856
    1MOL   C128  128   0.656   0.086   3.706  0.6333 -0.0827 -1.2425
    1MOL   C129  129   0.790   0.018   3.659  0.6461  0.0640 -0.0929
    1MOL   C130  130   0.795   0.012   3.509 -0.6249 -0.1641 -0.1462
    1MOL   N131  131   0.920   7.650   3.476 -0.5052 -0.4927 -0.1934
    1MOL   H132  132   0.966   0.602   3.632  1.6533 -0.0254 -1.1490
    1MOL   H133  133   1.084   0.479   3.671 -1.6035 -1.1822  0.8600
    1MOL   H134  134   0.891   0.425   3.800  1.6358 -1.2591  0.2289
    1MOL   H135  135   1.004   0.491   3.910  0.5228  1.1211 -0.2250
    1MOL   H136  136   0.790   0.639   3.765 -1.8385 -0.1294  0.5674
    1MOL   H137  137   0.889   0.709   3.897 -0.6418 -1.1325  0.4146
    1MOL   H138  138   0.699   0.666   4.026  3.4147  0.8109  1.1289
    1MOL   H139  139   0.764   0.508   4.029  1.2826  0.6609  0.4442
    1MOL   H140  140   0.629   0.357   4.025 -0.5911  0.0053 -0.6517
    1MOL   H141  141   0.385   0.333   3.921  0.0072 -0.1161 -0.4477
    1MOL   H142  142   0.472   0.314   3.779 -0.8838 -0.0039 -0.9607
    1MOL   H143  143   0.511   0.133   4.023 -2.7012  0.3366  0.7239
    1MOL   H144  144   0.440   0.079   3.872 -1.2216 -0.7120  1.4053
    1MOL   H145  145   0.660   0.000   3.902 -0.0244  1.0035  3.2746
    1MOL   H146  146   0.729   0.164   3.896 -0.1117  1.0839 -2.0503
    1MOL   H147  147   0.577   0.020   3.670 -0.2094 -0.6626  1.4807
    1MOL   H148  148   0.655   0.186   3.662  1.9742  0.5209  0.0435
    1MOL   H149  149   0.875   0.069   3.704 -0.3156  0.6968  1.0388
    1MOL   H150  150   0.781   7.625   3.700 -0.5455  0.2043  0.0253
    1MOL   H151  151   0.802   0.114   3.472 -1.2404 -0.0534  0.0455
    1MOL   H152  152   0.707   7.675   3.463 -2.3788  1.8395  1.1531
    1MOL   H153  153   1.000   7.655   3.538 -1.6621 -0.3346  1.2924
    1MOL   C154  154   0.943   7.588   3.363 -0.0303  0.3211  0.6534
    1MOL   O155  155   0.856   7.564   3.277 -0.2670 -0.1470  0.1477
    1MOL   C156  156   1.087   7.554   3.335  0.3006 -0.0047  0.5215
    1MOL   C157  157   1.118   7.526   3.187 -0.0599  0.0663  0.2428
    1MOL   C158  158   1.099   7.647   3.089 -0.2072 -0.1618  0.5815
    1MOL   C159  159   1.080   7.591   2.950 -1.0293 -0.4254  0.1884
    1MOL   C160  160   1.043   7.700   2.848  0.3478 -0.1088 -0.0351
    1MOL   O161  161   1.044   0.114   2.872  0.2487  0.2503  0.0202
    1MOL   N162  162   0.993   7.651   2.732 -0.2320 -0.3315  0.0603
    1MOL   C163  163   0.926   0.014   2.632 -0.0064 -0.5249  0.3661
    1MOL   C164  164   0.774   0.008   2.666 -0.5153  0.2753  0.2860
    1MOL   C165  165   0.696   0.058   2.549 -0.2794  0.0239  0.0593
    1MOL   C166  166   0.547   0.049   2.585 -0.1841 -0.0158  0.2988
    1MOL   C167  167   0.465   0.017   2.453  0.1233  0.2808  1.1716
    1MOL   C168  168   0.415   7.581   2.443 -0.0167  0.5839  0.2557
    1MOL   N169  169   0.524   7.481   2.451 -0.3724  0.2091 -0.1612
    1MOL   H170  170   1.143   7.646   3.352 -0.7245  0.6828  0.2324
    1MOL   H171  171   1.132   7.473   3.392  1.1767 -1.3256 -1.9787
    1MOL   H172  172   1.219   7.486   3.175 -0.4021 -0.2188 -1.8144
    1MOL   H173  173   1.052   7.444   3.161 -1.8023  1.6077 -0.2400
    1MOL   H174  174   1.173   0.018   3.095 -0.8668  0.3876  1.5884
    1MOL   H175  175   0.998   7.685   3.104 -0.7458 -1.3968  0.2157
    1MOL   H176  176   0.994   7.523   2.950 -1.0054 -0.4647  0.9985
    1MOL   H177  177   1.162   7.539   2.901  0.9263  1.6871  1.1321
    1MOL   H178  178   0.980   7.552   2.717  2.5058 -1.0226  1.7968
    1MOL   H179  179   0.966   0.115   2.624  1.9512 -1.3444 -0.6499
    1MOL   H180  180   0.942   7.669   2.538  1.3921 -0.1304  0.3637
    1MOL   H181  181   0.740   7.613   2.678  1.4909 -0.2292  2.0574
    1MOL   H182  182   0.753   0.064   2.758 -0.9815  0.9982 -0.2555
    1MOL   H183  183   0.722   7.702   2.464 -0.3974  0.3699 -0.2400
    1MOL   H184  184   0.718   0.162   2.525  1.5842 -0.4936 -0.5855
    1MOL   H185  185   0.525   7.680   2.659 -0.7676 -0.3607 -0.2309
    1MOL   H186  186   0.518   0.145   2.626  0.2476  0.2597 -0.0399
    1MOL   H187  187   0.380   0.085   2.450 -1.0061 -1.1062  1.6711
    1MOL   H188  188   0.524   0.043   2.364 -0.9757 -0.1909  0.2938
    1MOL   H189  189   0.353   7.570   2.354  2.5516  3.5704 -2.0077
    1MOL   H190  190   0.345   7.569   2.526  0.5126  0.6405  0.7193
    1MOL   H191  191   0.528   7.419   2.531 -0.7735 -0.2794 -0.5171
    1MOL   C192  192   0.599   7.455   2.347 -0.2596  0.2419 -0.2211
    1MOL   O193  193   0.564   7.497   2.236  0.5746  0.4030  0.0889
    1MOL   C194  194   0.720   7.358   2.360  0.5404  0.2595  0.8035
    1MOL   C195  195   0.719   7.254   2.241 -0.0165  0.2447  0.5187
    1MOL   C196  196   0.803   7.131   2.280 -0.4126 -0.3083 -0.2566
    1MOL   C197  197   0.816   7.013   2.182 -0.3957 -0.2183 -0.4805
    1MOL   C198  198   0.693   6.931   2.161 -0.0446  0.2106 -0.3727
    1MOL   O199  199   0.637   6.898   2.264  0.2175  0.0432  0.6103
    1MOL   N200  200   0.649   6.891   2.040  0.2609 -0.3143 -0.3025
    1MOL   C201  201   0.545   6.796   2.018 -1.0449  0.9956  0.2987
    1MOL   C202  202   0.407   6.832   2.075  0.0120  0.6812  0.5737
    1MOL   C203  203   0.292   6.732   2.029  0.0120 -0.2740  0.5387
    1MOL   C204  204   0.151   6.757   2.097  0.5206  0.0952  0.7823
    1MOL   C205  205   0.059   6.650   2.051 -0.2718  0.3971 -0.7913
    1MOL   C206  206   7.645   6.644   2.138 -0.1527  0.8291  0.4406
    1MOL   N207  207   7.535   6.560   2.088  0.0429  0.1426 -0.3801
    1MOL   H208  208   0.815   7.411   2.352  0.0195  1.1172  0.1417
    1MOL   H209  209   0.705   7.302   2.453  1.1415 -1.0481  0.1175
    1MOL   H210  210   0.617   7.217   2.230  0.6759 -1.9097  0.9279
    1MOL   H211  211   0.751   7.293   2.145 -1.1923  0.5365  0.2315
    1MOL   H212  212   0.753   7.094   2.370  1.7877 -0.2811  1.0224
    1MOL   H213  213   0.899   7.166   2.319 -0.0334 -1.8755  0.2775
    1MOL   H214  214   0.903   6.950   2.201 -1.9659 -2.7891 -1.5386
    1MOL   H215  215   0.847   7.050   2.085  0.3392  1.5913  0.4289
    1MOL   H216  216   0.695   6.944   1.968  0.6050  1.8582  1.4629
    1MOL   H217  217   0.538   6.789   1.910 -1.8348  3.4887  0.1717
    1MOL   H218  218   0.582   6.697   2.044 -0.5358  1.6740  2.2289
    1MOL   H219  219   0.416   6.813   2.182  0.5076 -1.0738  0.2255
    1MOL   H220  220   0.376   6.936   2.060 -2.2357 -0.2456 -1.5694
    1MOL   H221  221   0.326   6.630   2.045  2.6449  0.5480  0.4485
    1MOL   H222  222   0.291   6.742   1.921 -0.6113  0.2539  0.5895
    1MOL   H223  223   0.166   6.740   2.204 -0.3049  1.5786  1.1376
    1MOL   H224  224   0.111   6.856   2.078 -0.2387 -0.4679 -0.6636
    1MOL   H225  225   0.023   6.670   1.950  0.6038  0.8403 -1.0161
    1MOL   H226  226   0.110   6.553   2.045 -2.7104 -0.8616 -2.0898
    1MOL   H227  227   7.601   6.741   2.162 -0.9052  0.5909  0.0496
    1MOL   H228  228   7.677   6.602   2.234 -1.3852 -0.9333  0.1083
    1MOL   H229  229   7.526   6.470   2.134 -1.0054  0.2351 -0.3754
    1MOL   C230  230   7.437   6.586   1.999 -0.1794 -0.1167  0.4263
    1MOL   O231  231   7.361   6.498   1.958 -0.4638 -0.3414 -1.2370
    1MOL   C232  232   7.417   6.733   1.940 -0.0811 -0.1967  0.2525
    1MOL   C233  233   7.309   6.816   2.016 -0.3121 -0.1793  0.1252
    1MOL   C234  234   7.273   6.950   1.955  0.2237  0.0170 -0.1220
    1MOL   C235  235   7.354   7.075   1.981  0.0246  0.0279  0.3203
    1MOL   C236  236   7.502   7.054   1.998 -0.3533 -0.8820  0.4688
    1MOL   O237  237   7.549   6.990   2.088 -0.1604 -0.1841  0.1752
    1MOL   N238  238   7.582   7.108   1.899 -0.3099 -0.2070  0.2526
    1MOL   C239  239   0.015   7.095   1.881  0.2938 -0.2327  0.0103
    1MOL   C240  240   0.101   7.215   1.945 -0.8172  0.5946 -0.5840
    1MOL   C241  241   0.255   7.182   1.933  0.0570 -0.5231 -0.2121
    1MOL   C242  242   0.348   7.286   1.997  0.0197  0.1957 -0.7995
    1MOL   C243  243   0.493   7.246   1.999  0.1825  0.1066 -0.0849
    1MOL   C244  244   0.541   7.237   1.851 -0.0372 -0.1182 -0.7866
    1MOL   N245  245   0.683   7.267   1.848  0.1003  0.0764 -0.2231
    1MOL   H246  246   7.513   6.783   1.952 -0.2548  0.0034  0.8433
    1MOL   H247  247   7.406   6.728   1.831  0.5396  1.3217  0.1155
    1MOL   H248  248   7.222   6.752   2.032  0.6344 -1.9187 -1.3905
    1MOL   H249  249   7.343   6.828   2.119 -0.9532  0.5195  0.2611
    1MOL   H250  250   7.172   6.970   1.989  0.8203  0.8792  1.2061
    1MOL   H251  251   7.278   6.948   1.846  0.5271 -0.3096 -0.1028
    1MOL   H252  252   7.309   7.133   2.062 -2.1923  0.6357 -1.2774
    1MOL   H253  253   7.337   7.136   1.892 -1.5784 -0.4332  0.2959
    1MOL   H254  254   7.528   7.179   1.852 -1.4540 -0.7035  0.8045
    1MOL   H255  255   0.036   6.994   1.915  0.8891 -0.5401 -1.2414
    1MOL   H256  256   0.043   7.087   1.776 -0.3624 -2.5962  0.0027
    1MOL   H257  257   0.094   7.306   1.885 -0.2467  0.5370 -0.7467
    1MOL   H258  258   0.065   7.222   2.047  1.1878  2.2517  0.0450
    1MOL   H259  259   0.260   7.184   1.824 -1.0310 -0.9841 -0.2792
    1MOL   H260  260   0.285   7.085   1.972  0.0800 -0.3376  0.2348
    1MOL   H261  261   0.339   7.383   1.947  0.5931  0.1403 -1.0022
    1MOL   H262  262   0.322   7.293   2.102  1.2975 -2.8202 -0.2348
    1MOL   H263  263   0.551   7.323   2.050  2.1607 -2.1716  1.2395
    1MOL   H264  264   0.506   7.161   2.066  2.0426 -0.0741 -0.6601
    1MOL   H265  265   0.492   7.316   1.794  0.2989  0.4847 -0.2437
    1MOL   H266  266   0.517   7.138   1.812 -1.9930  0.3704 -0.8711
    1MOL   H267  267   0.706   7.365   1.852 -0.6298  0.2380  0.3317
    1MOL   C268  268   0.784   7.186   1.844  0.2070  0.5028  0.1898
    1MOL   O269  269   0.778   7.062   1.840 -0.2836  0.1344 -0.1528
    1MOL   C270  270   0.921   7.247   1.838  0.3283 -0.4656 -0.5287
    1MOL   C271  271   1.017   7.212   1.954  0.6148  0.2649 -0.5833
    1MOL   C272  272   1.162   7.279   1.946  0.2087  0.1479  0.1031
    1MOL   C273  273   1.262   7.239   2.047 -0.0526 -0.3398 -0.1352
    1MOL   C274  274   1.234   7.294   2.183 -0.0799 -0.1357 -0.5860
    1MOL   O275  275   1.155   7.229   2.253  0.0026 -0.5666 -0.2811
    1MOL   N276  276   1.289   7.410   2.219 -0.1617 -0.5848 -0.2035
    1MOL   C277  277   1.263   7.467   2.352 -0.8444  0.8043  0.4901
    1MOL   C278  278   1.375   7.424   2.454 -0.1906  0.1945  0.3157
    1MOL   C279  279   1.515   7.484   2.421  0.0495 -0.1326  0.7324
    1MOL   C280  280   1.622   7.445   2.517 -0.9593 -0.3264 -0.5402
    1MOL   C281  281   1.754   7.519   2.496  0.4822 -0.7306  0.1429
    1MOL   C282  282   1.878   7.427   2.497  0.7197  0.6281  0.2049
    1MOL   N283  283   1.998   7.504   2.501  0.2441  0.1063 -0.0706
    1MOL   H284  284   0.965   7.211   1.746  1.8658 -0.5860  0.2436
    1MOL   H285  285   0.913   7.355   1.820 -0.9664 -0.9535 -3.0927
    1MOL   H286  286   0.970   7.235   2.049  1.0204  0.0985 -0.3432
    1MOL   H287  287   1.027   7.104   1.950 -0.5812  0.0430  1.6687
    1MOL   H288  288   1.159   7.388   1.948  2.3088  0.2707 -1.5164
    1MOL   H289  289   1.195   7.260   1.844 -0.1849 -2.3966  0.4242
    1MOL   H290  290   1.362   7.263   2.011  0.7731  1.0538  2.9523
    1MOL   H291  291   1.269   7.131   2.046  0.0696 -0.3394  0.4780
    1MOL   H292  292   1.355   7.445   2.151 -1.0556 -2.6702 -2.1990
    1MOL   H293  293   1.280   7.575   2.343 -0.2931  0.5500 -1.8870
    1MOL   H294  294   1.160   7.461   2.387 -0.8012 -1.1713  0.2966
    1MOL   H295  295   1.343   7.458   2.553 -0.8887 -0.4245  0.3106
    1MOL   H296  296   1.382   7.315   2.457 -1.0994  0.1373  0.6325
    1MOL   H297  297   1.512   7.592   2.409  2.6527 -0.0794  0.1629
    1MOL   H298  298   1.541   7.449   2.321 -0.5551 -0.1422  0.5757
    1MOL   H299  299   1.592   7.461   2.621  2.6271 -0.0370  0.4984
    1MOL   H300  300   1.636   7.337   2.512 -1.5883 -0.3495 -2.2403
    1MOL   H301  301   1.758   7.575   2.403  0.0750  1.4057  1.3662
    1MOL   H302  302   1.770   7.596   2.572  5.4304 -0.8979 -0.5466
    1MOL   H303  303   1.877   7.364   2.408 -1.0243 -0.9885  1.3339
    1MOL   H304  304   1.866   7.351   2.573 -2.0136  0.3718 -0.4302
    1MOL   H305  305   2.029   7.547   2.415  2.8012  0.9968  1.2303
    1MOL   C306  306   2.056   7.537   2.614 -0.1665  0.0410  0.0803
    1MOL   O307  307   2.011   7.501   2.720  0.6053 -0.0852  0.2617
    1MOL   C308  308   2.170   7.638   2.607 -0.2212  0.7234 -0.1335
    1MOL   C309  309   2.187   0.022   2.731  0.1655  0.4464  0.1239
    1MOL   C310  310   2.074   0.129   2.750 -1.0149  0.7739  0.6873
    1MOL   C311  311   1.937   0.075   2.790 -0.4379 -0.1399 -0.2078
    1MOL   C312  312   1.861   0.183   2.868  0.1122  0.6150 -0.5694
    1MOL   O313  313   1.825   0.290   2.817 -0.4690 -0.3642  0.0792
    1MOL   N314  314   1.844   0.160   2.999  0.0673 -0.2927  0.3061
    1MOL   C315  315   1.775   0.247   3.089 -0.2575  0.8346 -0.3744
    1MOL   C316  316   1.786   0.201   3.233 -0.0774  0.6295  0.1188
    1MOL   C317  317   1.931   0.216   3.284 -0.4494  0.9441 -0.1646
    1MOL   C318  318   1.946   0.140   3.422 -0.4824 -0.2224 -0.0748
    1MOL   C319  319   1.851   0.194   3.540 -0.4243 -0.2154  0.0105
    1MOL   C320  320   1.881   0.145   3.682  0.2124  0.3775  0.9454
    1MOL   N321  321   1.795   0.208   3.787  0.0209 -0.1031  0.0217
    1MOL   H322  322   2.258   7.574   2.600  1.2075  2.3296  2.2662
    1MOL   H323  323   2.139   7.692   2.518 -2.1126  1.3878  0.9023
    1MOL   H324  324   2.195   7.655   2.810  1.5431 -0.3992 -0.8206
    1MOL   H325  325   2.288   0.062   2.739  0.3962 -0.2002  0.4947
    1MOL   H326  326   2.075   0.180   2.654  1.3832 -1.4943 -0.5775
    1MOL   H327  327   2.110   0.195   2.828 -0.8817  1.7249 -0.1744
    1MOL   H328  328   1.944   7.700   2.860  0.6842  0.1793  0.0799
    1MOL   H329  329   1.890   0.037   2.699 -0.4566 -0.6611  0.0184
    1MOL   H330  330   1.878   0.072   3.035 -1.0540 -1.1421 -0.6445
    1MOL   H331  331   1.809   0.350   3.098 -0.3668  0.7953  0.4888
    1MOL   H332  332   1.670   0.250   3.058 -0.2151 -2.2145 -0.9913
    1MOL   H333  333   1.722   0.259   3.300  1.9090 -0.4292  3.0551
    1MOL   H334  334   1.751   0.099   3.222  1.0875  0.2762 -0.3761
    1MOL   H335  335   1.951   0.322   3.303  0.0972  0.5295  1.6793
    1MOL   H336  336   2.011   0.182   3.218  0.1260  0.7473  0.6236
    1MOL   H337  337   1.933   0.033   3.406  3.2184 -0.6595 -0.6716
    1MOL   H338  338   2.050   0.159   3.450 -0.1945  0.1678 -1.3609
    1MOL   H339  339   1.848   0.303   3.535  0.2376 -0.1663  0.6815
    1MOL   H340  340   1.752   0.155   3.515 -0.2668 -0.7270  0.1668
    1MOL   H341  341   1.988   0.159   3.702  0.6836 -0.6447 -0.7326
    1MOL   H342  342   1.856   0.039   3.681 -0.3002  0.5012 -0.0944
    1MOL   H343  343   1.736   0.284   3.754 -1.2227 -1.2408 -0.4196
    1MOL   C344  344   1.779   0.172   3.914  0.3773  0.2529 -0.1492
    1MOL   O345  345   1.834   0.081   3.972  0.1907  0.0172 -0.3412
    1MOL   C346  346   1.699   0.268   3.997  0.6918  0.3702 -0.3342
    1MOL   C347  347   1.553   0.221   4.045  0.1603 -0.1482  0.3958
    1MOL   C348  348   1.567   0.161   4.179  0.3104 -0.9020 -0.1226
    1MOL   C349  349   1.437   0.134   4.257  0.5381 -0.5710  0.3337
    1MOL   C350  350   1.393   7.696   4.263  0.6843 -0.1854  0.5237
    1MOL   O351  351   1.393   7.629   4.162  0.4548  0.0881  0.1873
    1MOL   N352  352   1.346   7.653   4.381  0.4475  0.2793  0.3785
    1MOL   C353  353   1.289   7.523   4.416 -0.6422  0.4577 -1.2397
    1MOL   C354  354   1.167   7.495   4.325 -0.0218 -0.2293  0.5500
    1MOL   C355  355   1.051   7.597   4.350 -0.0040  0.3074  0.1328
    1MOL   C356  356   0.930   7.572   4.268  0.7835  0.2057  0.1935
    1MOL   C357  357   0.819   7.667   4.329 -0.0358 -0.4384  0.4654
    1MOL   C358  358   0.697   7.697   4.228 -0.0038 -0.2254 -0.4614
    1MOL   N359  359   0.611   0.088   4.284 -0.2591 -0.0014  0.4247
    1MOL   H360  360   1.758   0.295   4.084 -0.4725  2.3028 -0.1260
    1MOL   H361  361   1.693   0.360   3.939 -0.3561 -0.1608 -1.0937
    1MOL   H362  362   1.493   0.312   4.045  2.3949  1.3767 -0.9665
    1MOL   H363  363   1.504   0.151   3.977  2.2456 -0.4343 -0.8482
    1MOL   H364  364   1.641   0.213   4.240  0.2104 -2.1896  1.1250
    1MOL   H365  365   1.620   0.067   4.167  0.9605 -0.4925 -0.4478
    1MOL   H366  366   1.354   0.198   4.227  0.2398 -0.5272  1.2131
    1MOL   H367  367   1.459   0.164   4.360 -0.8241 -0.6506  0.6632
    1MOL   H368  368   1.364   0.009   4.457  0.7219  0.9382 -0.2397
    1MOL   H369  369   1.361   7.443   4.399 -1.9305 -0.8213 -0.8224
    1MOL   H370  370   1.259   7.522   4.520 -1.6557 -0.7737 -1.5271
    1MOL   H371  371   1.211   7.503   4.225  1.3110  3.4971  1.3445
    1MOL   H372  372   1.129   7.393   4.330  1.8057 -0.8297  2.6905
    1MOL   H373  373   1.089   7.697   4.333 -0.9177  0.3945 -1.5784
    1MOL   H374  374   1.021   7.582   4.454 -1.1383 -0.2914 -0.2667
    1MOL   H375  375   0.949   7.598   4.164  0.6034  0.1416  0.1433
    1MOL   H376  376   0.916   7.465   4.279 -0.7106  0.4361  0.6420
    1MOL   H377  377   0.782   7.629   4.424  2.1173 -1.8228  0.7559
    1MOL   H378  378   0.863   0.057   4.345 -2.2745  1.1738 -2.6281
    1MOL   H379  379   0.635   7.607   4.230 -1.5156  0.7976  1.1977
    1MOL   H380  380   0.723   0.010   4.125 -0.4731 -2.1450 -0.9886
    1MOL   H381  381   0.545   0.048   4.350 -1.2411 -0.8242 -1.0429
    1MOL   C382  382   0.634   0.219   4.270  0.4193  0.3471 -0.0492
    1MOL   O383  383   0.707   0.265   4.185 -0.2528  0.1113  0.0136
    1MOL   C384  384   0.559   0.320   4.356 -0.2707 -0.4114  0.6310
    1MOL   C385  385   0.437   0.365   4.286  0.0758 -0.3793  0.5186
    1MOL   C386  386   0.352   0.462   4.367 -0.1505  0.0050  1.0587
    1MOL   C387  387   0.233   0.500   4.296  0.0676 -0.3178 -0.0795
    1MOL   C388  388   0.137   0.608   4.355  0.3787 -0.3203 -0.2195
    1MOL   O389  389   0.132   0.629   4.474 -0.0714 -0.3656  0.2047
    1MOL   N390  390   0.048   0.662   4.271  0.0501  0.1948 -0.0958
    1MOL   C391  391   7.664   0.764   4.295  0.9596 -0.7574  0.8684
    1MOL   C392  392   7.578   0.785   4.169 -0.6994 -0.3676  0.2797
    1MOL   C393  393   7.481   0.898   4.191 -0.3704  0.6587 -0.9845
    1MOL   C394  394   7.441   0.953   4.052  0.2817 -0.4818 -0.8422
    1MOL   C395  395   7.378   1.096   4.066  0.1716 -0.4988 -0.3159
    1MOL   C396  396   7.305   1.140   3.945 -0.2669 -0.3303 -0.2292
    1MOL   N397  397   7.233   1.259   3.981 -0.2624 -0.0269  0.3795
    1MOL   H398  398   0.546   0.274   4.453  1.1087  1.8837  1.9585
    1MOL   H399  399   0.628   0.402   4.378  0.3904 -0.3113 -1.6000
    1MOL   H400  400   0.462   0.414   4.191 -0.1279  0.0958  0.7085
    1MOL   H401  401   0.380   0.276   4.260  0.0498 -0.3720  0.5512
    1MOL   H402  402   0.410   0.551   4.389  0.6907 -0.3386  0.2325
    1MOL   H403  403   0.331   0.427   4.468  2.3775 -1.3228  1.1495
    1MOL   H404  404   0.170   0.412   4.284 -0.2293 -0.3472  1.6689
    1MOL   H405  405   0.260   0.546   4.200 -3.3114  2.1556  0.0639
    1MOL   H406  406   0.053   0.630   4.176  0.4722 -0.7647  0.2356
    1MOL   H407  407   7.598   0.738   4.378 -0.1421 -2.6583 -0.5501
    1MOL   H408  408   0.010   0.855   4.319  1.5042 -0.4931 -1.1997
    1MOL   H409  409   7.649   0.806   4.089 -2.4575  0.8671 -0.9633
    1MOL   H410  410   7.538   0.685   4.151 -1.2038  0.0729 -1.0951
    1MOL   H411  411   7.526   0.978   4.250  1.6454 -0.4256 -1.0124
    1MOL   H412  412   7.399   0.862   4.254 -0.5768 -0.9294 -2.1379
    1MOL   H413  413   7.523   0.958   3.981 -0.1441 -3.2910 -1.5774
    1MOL   H414  414   7.361   0.892   4.010  0.4024  0.2250 -2.1281
    1MOL   H415  415   7.309   1.101   4.150  1.1221 -0.2267  0.4593
    1MOL   H416  416   7.460   1.159   4.100 -1.3719  0.1362  2.3187
    1MOL   H417  417   7.240   1.063   3.905 -3.0218  1.9316 -0.2131
    1MOL   H418  418   7.365   1.162   3.856 -2.0286  1.6039 -0.9717
    1MOL   H419  419   7.169   1.253   4.059  0.7506 -0.6347  1.1640
    1MOL   C420  420   7.227   1.371   3.901 -0.1343 -0.1919 -0.2529
    1MOL   O421  421   7.303   1.384   3.801 -0.2294 -0.2100  0.1432
    1MOL   C422  422   7.124   1.474   3.928 -0.0648 -0.2336 -0.1598
    1MOL   C423  423   6.995   1.429   3.984  0.4384 -0.4236  0.0816
    1MOL   C424  424   6.908   1.318   3.909  0.6601  0.3092  0.5160
    1MOL   C425  425   6.882   1.362   3.764 -0.1605 -0.0382 -0.0867
    1MOL   C426  426   6.784   1.280   3.675  0.4016 -0.4591  0.3915
    1MOL   O427  427   6.711   1.194   3.722  0.2814 -0.0523  0.2570
    1MOL   N428  428   6.792   1.313   3.550  0.3896  0.0835  0.2560
    1MOL   C429  429   6.717   1.261   3.435  0.6837 -0.2931 -0.6352
    1MOL   C430  430   6.602   1.369   3.410 -0.0954 -0.1406  0.8689
    1MOL   C431  431   6.507   1.315   3.301 -0.5399 -0.6398 -0.1652
    1MOL   C432  432   6.376   1.393   3.289 -1.1907  0.4562 -0.5244
    1MOL   C433  433   6.307   1.345   3.154  0.6615  0.0689  0.6466
    1MOL   C434  434   6.185   1.436   3.119 -0.5106  0.3310 -0.1299
    1MOL   N435  435   6.157   1.427   2.974  0.0061 -0.0858  0.1777
    1MOL   H436  436   7.175   1.544   3.995 -1.0579  0.0734  0.2919
    1MOL   H437  437   7.109   1.538   3.841 -2.3558 -2.0945 -1.1790
    1MOL   H438  438   7.017   1.389   4.083 -2.5525 -1.4676  0.3541
    1MOL   H439  439   6.923   1.509   4.002  0.2475 -1.1315  2.6729
    1MOL   H440  440   6.815   1.295   3.961  1.7262 -0.7408  1.9731
    1MOL   H441  441   6.956   1.221   3.910 -1.9115 -1.0062  1.7498
    1MOL   H442  442   6.972   1.355   3.702  0.3940 -0.5531  0.7653
    1MOL   H443  443   6.836   1.460   3.753  0.3488  0.3158  0.9010
    1MOL   H444  444   6.847   1.395   3.527 -0.7373  1.1585  1.3576
    1MOL   H445  445   6.788   1.240   3.355  2.7054 -0.8318  1.2315
    1MOL   H446  446   6.679   1.162   3.459  3.1874 -2.1354 -3.7671
    1MOL   H447  447   6.540   1.363   3.499 -2.0552  0.5952 -0.4089
    1MOL   H448  448   6.630   1.472   3.389  0.3298  0.0468  2.3476
    1MOL   H449  449   6.488   1.213   3.335  1.6829 -0.6320  1.2164
    1MOL   H450  450   6.570   1.316   3.212 -1.0230 -3.1719 -0.5647
    1MOL   H451  451   6.307   1.381   3.373 -1.3295 -0.4639 -0.7581
    1MOL   H452  452   6.392   1.500   3.278  0.9048  0.3271  0.9186
    1MOL   H453  453   6.381   1.354   3.073 -0.0386 -3.1431 -0.4076
    1MOL   H454  454   6.286   1.239   3.151  0.6893  0.0021  2.4332
    1MOL   H455  455   6.202   1.541   3.139 -1.4975  1.0990 -2.9847
    1MOL   H456  456   6.093   1.401   3.165  0.9782 -2.1064  1.0655
    1MOL   H457  457   6.143   1.510   2.917 -0.5978  0.4106  1.0305
    1MOL   C458  458   6.117   1.317   2.912  0.2081 -0.7299 -0.1091
    1MOL   O459  459   6.117   1.207   2.962 -0.2257  0.0749  0.3920
    1MOL   C460  460   6.064   1.327   2.771  0.0875 -0.1760  0.1094
    1MOL   C461  461   5.967   1.218   2.724 -0.3138  0.2910  0.3426
    1MOL   C462  462   5.940   1.211   2.573  0.6431 -0.3528 -0.5335
    1MOL   C463  463   5.845   1.100   2.532 -0.0175 -0.9682  0.6060
    1MOL   C464  464   5.831   1.092   2.374  0.5365  0.2911  0.8801
    1MOL   O465  465   5.830   1.193   2.300 -0.2114  0.4866  0.0817
    1MOL   N466  466   5.818   0.969   2.326 -0.1561 -0.2253  0.1995
    1MOL   C467  467   5.805   0.938   2.186 -0.0108 -0.0999 -0.2160
    1MOL   C468  468   5.945   0.921   2.121 -0.4407 -0.3766 -0.5442
    1MOL   C469  469   5.948   0.838   1.994 -1.4374 -0.0740 -0.1647
    1MOL   C470  470   6.098   0.814   1.949 -0.1351  0.1830  0.4016
    1MOL   C471  471   6.114   0.713   1.829 -0.8741 -0.3023 -0.3960
    1MOL   C472  472   6.262   0.670   1.811 -0.1409 -0.6414  0.4765
    1MOL   N473  473   6.273   0.554   1.728  0.7023  0.6843  0.0971
    1MOL   H474  474   6.025   1.429   2.777  0.0526 -0.1487 -0.6007
    1MOL   H475  475   6.147   1.332   2.701 -1.0284 -0.4990 -1.2637
    1MOL   H476  476   6.012   1.119   2.734  1.4270  0.6482 -3.1397
    1MOL   H477  477   5.873   1.230   2.778  0.8268  2.9480  1.8348
    1MOL   H478  478   6.032   1.202   2.516  0.9355 -0.4561 -0.0464
    1MOL   H479  479   5.903   1.310   2.546 -2.7110 -0.9149  1.6857
    1MOL   H480  480   5.748   1.127   2.573 -0.6451 -0.2217 -1.3457
    1MOL   H481  481   5.879   1.006   2.574  0.9312 -1.1704 -0.5985
    1MOL   H482  482   5.829   0.890   2.389  0.5104  0.2581  0.7076
    1MOL   H483  483   5.759   0.839   2.188  0.7489 -0.4506  0.2937
    1MOL   H484  484   5.734   1.004   2.137 -0.0255  0.7477  0.9281
    1MOL   H485  485   5.992   1.020   2.123 -0.6327 -0.2842 -0.6190
    1MOL   H486  486   6.002   0.864   2.195  0.9693  1.2734 -0.3294
    1MOL   H487  487   5.884   0.877   1.915  0.0190  0.9214 -0.8712
    1MOL   H488  488   5.893   0.747   2.019 -1.8144  0.5984  1.4994
    1MOL   H489  489   6.132   0.916   1.928 -0.0497  0.1026  0.1544
    1MOL   H490  490   6.154   0.776   2.034  4.3345  3.2453 -0.9981
    1MOL   H491  491   6.051   0.624   1.834  0.4377 -1.1983  0.3350
    1MOL   H492  492   6.087   0.756   1.733 -0.1811 -0.0028 -0.4585
    1MOL   H493  493   6.291   0.639   1.911  1.0106 -4.6841 -1.0328
    1MOL   H494  494   6.328   0.754   1.787 -0.7786  0.1003  1.2727
    1MOL   H495  495   6.239   0.468   1.770  0.8766  0.9624  0.8096
    1MOL   C496  496   6.285   0.544   1.598 -0.4766  0.2671  0.1894
    1MOL   O497  497   6.285   0.643   1.529  0.1786  0.4801  0.1548
    1MOL   C498  498   6.301   0.402   1.533  0.7283 -0.5105 -0.5156
    1MOL   C499  499   6.263   0.412   1.382 -0.7008  0.2197  0.1933
    1MOL   C500  500   6.228   0.276   1.322 -0.6313 -0.0568  0.1269
    1MOL   C501  501   6.186   0.279   1.171  0.1035 -0.5479  0.6928
    1MOL   C502  502   6.037   0.297   1.137 -0.6940 -0.7855  0.1124
    1MOL   O503  503   5.961   0.200   1.136  0.5019 -0.2651  0.0525
    1MOL   N504  504   5.992   0.424   1.125 -0.3067  0.5825 -0.7154
    1MOL   C505  505   5.851   0.467   1.139 -0.3698 -0.1372  0.0786
    1MOL   C506  506   5.831   0.580   1.235 -0.1874  0.2447  0.1574
    1MOL   C507  507   5.888   0.569   1.382  0.6491 -0.4484  0.0118
    1MOL   C508  508   5.869   0.434   1.459  1.0183 -0.4239  0.1941
    1MOL   C509  509   5.913   0.442   1.604  0.7251  0.6750 -0.1776
    1MOL   C510  510   5.901   0.304   1.675 -0.0417  0.6016 -0.4021
    1MOL   N511  511   5.892   0.316   1.823 -0.3280  0.4682 -0.2033
    1MOL   H512  512   6.406   0.381   1.554  1.7774  2.0872 -2.9467
    1MOL   H513  513   6.228   0.340   1.586 -2.9893  1.9234 -2.5299
    1MOL   H514  514   6.179   0.482   1.372  0.2663  1.3198 -0.3705
    1MOL   H515  515   6.350   0.456   1.332 -0.4831  0.9679  1.2116
    1MOL   H516  516   6.146   0.233   1.379 -0.3034 -0.9965 -0.1142
    1MOL   H517  517   6.305   0.206   1.354  1.8365  1.6346 -1.9424
    1MOL   H518  518   6.239   0.197   1.122  0.9832  0.6041 -0.3151
    1MOL   H519  519   6.228   0.367   1.123 -0.0123 -0.5613  0.5673
    1MOL   H520  520   6.065   0.495   1.122 -0.9433  1.1705 -4.9563
    1MOL   H521  521   5.807   0.478   1.040  1.7065 -0.0345 -0.8602
    1MOL   H522  522   5.791   0.388   1.183 -1.0506  1.1236  1.4636
    1MOL   H523  523   5.873   0.671   1.191 -0.4972  0.1433 -0.3561
    1MOL   H524  524   5.723   0.591   1.241 -0.2868 -0.0737 -0.9169
    1MOL   H525  525   5.842   0.646   1.444  1.4053 -4.1213  5.5740
    1MOL   H526  526   5.992   0.603   1.384  0.9650 -0.9535 -4.1647
    1MOL   H527  527   5.770   0.390   1.444 -0.3678  1.3687  3.5281
    1MOL   H528  528   5.933   0.365   1.405  2.3155  1.2819 -0.4776
    1MOL   H529  529   6.011   0.489   1.609  0.7826  0.7088 -1.5640
    1MOL   H530  530   5.851   0.518   1.654  0.3640  1.3991 -1.7118
    1MOL   H531  531   5.972   0.230   1.638 -0.9470  0.7044 -2.3692
    1MOL   H532  532   5.798   0.277   1.652 -1.1735  3.9092  0.5395
    1MOL   H533  533   5.797   0.304   1.853 -0.8081  0.5715 -1.6407
    1MOL   C534  534   5.993   0.347   1.906  0.1551 -0.7980  0.2187
    1MOL   O535  535   6.104   0.361   1.866  0.7240 -0.0638  0.0023
    1MOL   C536  536   5.947   0.398   2.047 -0.3388  0.1134 -0.2204
    1MOL   C537  537   6.062   0.445   2.138  0.0890 -0.2488 -1.0447
    1MOL   C538  538   6.005   0.540   2.248  0.5835 -0.6268 -0.5982
    1MOL   C539  539   6.109   0.594   2.339  0.0961  0.1842 -0.3039
    1MOL   C540  540   6.055   0.694   2.439 -0.3802 -0.5018 -0.1917
    1MOL   O541  541   5.932   0.705   2.461 -0.0399  0.4583 -0.0444
    1MOL   N542  542   6.138   0.762   2.515 -0.2230 -0.1079  0.4055
    1MOL   C543  543   6.106   0.817   2.643 -0.4922  0.0899 -0.2666
    1MOL   C544  544   6.208   0.764   2.750 -0.2501  0.5349  0.2486
    1MOL   C545  545   6.192   0.838   2.887  0.1574  0.2839 -0.1600
    1MOL   C546  546   6.057   0.839   2.955 -0.1797 -0.6571 -0.2490
    1MOL   C547  547   6.028   0.712   3.028 -1.1310 -0.2029  0.2287
    1MOL   C548  548   5.892   0.719   3.086  0.6897 -0.3710  1.2212
    1MOL   N549  549   5.842   0.592   3.138 -0.0997 -0.2495 -0.3174
    1MOL   H550  550   5.868   0.470   2.030 -0.9354 -0.4025  0.3309
    1MOL   H551  551   5.884   0.325   2.098 -3.2124  2.5169 -0.2463
    1MOL   H552  552   6.112   0.354   2.172 -0.3981  0.5211  1.8502
    1MOL   H553  553   6.138   0.488   2.072  0.4179  1.3172  0.2912
    1MOL   H554  554   5.930   0.497   2.315  0.6866  1.6431  1.0433
    1MOL   H555  555   5.952   0.626   2.206  1.7688 -0.1441 -1.1366
    1MOL   H556  556   6.180   0.636   2.267  1.8224  0.9933  1.8015
    1MOL   H557  557   6.160   0.515   2.393 -0.7585  0.9939  1.7284
    1MOL   H558  558   6.235   0.763   2.486 -0.3881 -0.3368 -0.1486
    1MOL   H559  559   6.118   0.924   2.628 -0.4217  0.0756 -0.3123
    1MOL   H560  560   6.001   0.805   2.670  0.0724  0.4286  2.2049
    1MOL   H561  561   6.190   0.657   2.758  0.8016  0.2038 -1.5438
    1MOL   H562  562   6.312   0.778   2.720  0.0381  0.7083  1.3006
    1MOL   H563  563   6.233   0.939   2.876  2.0717 -0.5195 -0.5562
    1MOL   H564  564   6.267   0.800   2.957  1.7856 -0.3562 -2.1930
    1MOL   H565  565   6.043   0.921   3.025  1.1081 -0.8164  0.2073
    1MOL   H566  566   5.979   0.857   2.881 -1.9830 -2.2010  1.2176
    1MOL   H567  567   6.038   0.623   2.966  0.8283  0.4155 -0.3906
    1MOL   H568  568   6.085   0.713   3.121 -0.8450 -1.9522  0.0889
    1MOL   H569  569   5.819   0.741   3.007 -0.4869  0.8339  2.6129
    1MOL   H570  570   5.879   0.798   3.160  0.1303 -2.1291  3.0481
    1MOL   H571  571   5.783   0.536   3.079 -0.6896 -1.9965  1.8379
    1MOL   C572  572   5.858   0.546   3.265 -0.0419 -0.8719  0.6025
    1MOL   O573  573   5.821   0.431   3.291 -0.7708  0.0369 -0.2362
    1MOL   C574  574   5.925   0.630   3.371  0.3922 -0.3181  0.9298
    1MOL   C575  575   5.881   0.592   3.515  0.0106 -0.7754 -1.4204
    1MOL   C576  576   5.939   0.688   3.615 -0.4833 -0.5921  0.3436
    1MOL   C577  577   5.884   0.672   3.762 -0.6719 -0.8528 -0.6529
    1MOL   C578  578   5.955   0.568   3.848  0.1772 -0.8428  0.0332
    1MOL   O579  579   6.000   0.466   3.799  0.2853 -0.8461 -0.2237
    1MOL   N580  580   5.957   0.592   3.979 -0.2328  0.1356 -0.8602
    1MOL   C581  581   6.022   0.509   4.077  0.1347 -0.7994  0.4757
    1MOL   C582  582   6.174   0.545   4.080  0.4736 -0.6218 -0.5543
    1MOL   C583  583   6.263   0.450   4.156 -0.0413 -0.2314 -0.1622
    1MOL   C584  584   6.415   0.476   4.147 -0.0377  0.6365  0.2752
    1MOL   C585  585   6.500   0.354   4.170  0.0110  0.4446  0.2959
    1MOL   C586  586   6.646   0.387   4.186  0.0897 -0.0404 -0.5107
    1MOL   N587  587   6.726   0.270   4.195  0.3663  0.5079 -0.4322
    1MOL   H588  588   6.030   0.602   3.364  0.0289 -0.8232 -3.2681
    1MOL   H589  589   5.912   0.733   3.338 -1.7045 -1.3849 -1.7951
    1MOL   H590  590   5.773   0.588   3.530 -0.1423 -0.1713 -2.3104
    1MOL   H591  591   5.909   0.491   3.547  2.4062 -0.1924 -1.5563
    1MOL   H592  592   5.916   0.791   3.584  1.0492  0.1845  1.7377
    1MOL   H593  593   6.046   0.671   3.616 -0.4537 -0.4618 -0.5321
    1MOL   H594  594   5.779   0.643   3.769 -0.3229 -2.0224 -0.0301
    1MOL   H595  595   5.881   0.769   3.811 -1.5453 -0.9359 -0.5394
    1MOL   H596  596   5.929   0.683   4.012  0.5180 -0.1989  0.7673
    1MOL   H597  597   5.985   0.537   4.176 -1.7565 -1.3027 -0.0737
    1MOL   H598  598   6.004   0.403   4.058 -0.8585 -0.6192  0.3721
    1MOL   H599  599   6.217   0.546   3.979 -0.1769 -1.0368 -0.8410
    1MOL   H600  600   6.182   0.644   4.124  0.5898 -0.9860  0.2535
    1MOL   H601  601   6.239   0.354   4.109  0.2245 -0.2363 -0.2879
    1MOL   H602  602   6.224   0.444   4.258 -1.4291  1.4814 -0.5703
    1MOL   H603  603   6.441   0.535   4.059  0.5694  0.0979  0.0904
    1MOL   H604  604   6.432   0.544   4.231  0.8417  0.4888  0.2137
    1MOL   H605  605   6.461   0.302   4.258  0.1071 -0.5910 -0.2656
    1MOL   H606  606   6.482   0.279   4.094  0.3043  0.1489  0.5139
    1MOL   H607  607   6.662   0.450   4.274 -0.5448 -0.9427  0.2501
    1MOL   H608  608   6.680   0.439   4.097  0.8505 -0.8452 -0.6945
    1MOL   H609  609   6.749   0.234   4.103  1.0761  2.7582 -1.1585
    1MOL   C610  610   6.786   0.223   4.304 -0.3934  0.0915  0.6395
    1MOL   O611  611   6.770   0.271   4.415  0.3179 -0.2295 -0.7720
    1MOL   C612  612   6.882   0.105   4.286  0.0882 -0.6974  0.4044
    1MOL   C613  613   6.845   7.683   4.362 -0.7017  0.2924 -0.6055
    1MOL   C614  614   6.862   7.677   4.517  0.0887  0.0186 -0.3094
    1MOL   C615  615   6.979   0.055   4.576 -0.5009 -0.2941  0.0993
    1MOL   C616  616   7.006   0.053   4.730 -0.1821  0.8908  0.2612
    1MOL   O617  617   6.923   0.004   4.806 -0.5167 -0.4820  0.3169
    1MOL   N618  618   7.126   0.085   4.770  0.4254  0.1406  0.3527
    1MOL   C619  619   7.178   0.068   4.909 -0.3777  0.2222  0.2971
    1MOL   C620  620   7.220   0.205   4.967  0.3673 -0.6176 -0.6763
    1MOL   C621  621   7.259   0.192   5.119 -0.5114 -0.1396 -0.5042
    1MOL   C622  622   7.401   0.121   5.138  0.3209  0.3154  0.4425
    1MOL   C623  623   7.434   0.096   5.280  0.4332  0.3288 -0.0825
    1MOL   C624  624   7.538   7.694   5.318 -0.7059  0.2709 -0.0233
    1MOL   N625  625   7.674   0.009   5.262  0.3418  0.4091 -0.6224
    1MOL   H626  626   6.886   0.075   4.181 -1.6074 -0.6511  0.3263
    1MOL   H627  627   6.981   0.140   4.315 -0.8910  1.9422  0.6862
    1MOL   H628  628   6.743   7.650   4.340 -0.6076 -0.9405  0.7483
    1MOL   H629  629   6.905   7.603   4.319 -1.3966  1.1546 -3.2766
    1MOL   H630  630   6.881   7.573   4.542  2.0914  0.8146  1.6179
    1MOL   H631  631   6.767   7.702   4.565 -0.6156  1.0914 -2.1976
    1MOL   H632  632   6.961   0.158   4.548  0.2125  0.2829  1.7077
    1MOL   H633  633   7.072   0.016   4.535 -2.0259  0.8073 -4.6484
    1MOL   H634  634   7.194   0.107   4.698 -1.0422  1.8157 -0.5587
    1MOL   H635  635   7.100   0.021   4.970 -0.5716 -0.3644 -0.3979
    1MOL   H636  636   7.253   7.697   4.916 -0.3333  0.1978 -0.4635
    1MOL   H637  637   7.293   0.267   4.915 -0.3006 -0.0369 -0.9281
    1MOL   H638  638   7.134   0.272   4.964  0.3284 -0.6258  0.1866
    1MOL   H639  639   7.184   0.132   5.172  0.5207  1.2078  2.5958
    1MOL   H640  640   7.260   0.291   5.164 -1.7054 -0.6570  0.6965
    1MOL   H641  641   7.382   0.032   5.079 -0.8659  0.6104  0.3511
    1MOL   H642  642   7.480   0.182   5.097  2.8956 -3.1750  0.0215
    1MOL   H643  643   7.449   0.190   5.334  1.6413 -0.8290  1.6399
    1MOL   H644  644   7.343   0.051   5.318 -0.0863  1.8019  0.4745
    1MOL   H645  645   7.501   7.594   5.299 -2.2794  0.7568  0.3688
    1MOL   H646  646   7.560   7.695   5.425  1.3510 -0.2129 -0.4282
    1MOL   H647  647   7.694   0.099   5.219  0.9560  0.4494 -0.2599
    1MOL   C648  648   0.056   7.621   5.236  0.6337  0.9033 -0.1299
    1MOL   O649  649   0.040   7.504   5.260  0.3045 -0.2706 -0.4852
    1MOL   C650  650   0.185   7.671   5.182 -0.0916  0.6328  0.0345
    1MOL   C651  651   0.283   7.563   5.133  0.5735 -0.1025  0.0821
    1MOL   C652  652   0.238   7.498   4.997 -0.0968 -0.3893  0.2851
    1MOL   C653  653   0.323   7.372   4.969  0.0978  0.3511 -0.2174
    1MOL   C654  654   0.277   7.293   4.847 -0.7308  0.5795  0.1224
    1MOL   O655  655   0.241   7.360   4.752 -0.3546  0.0648 -0.7568
    1MOL   N656  656   0.265   7.162   4.847 -0.0374 -0.2758 -0.4427
    1MOL   C657  657   0.217   7.089   4.727 -0.5873 -0.0846 -0.2709
    1MOL   C658  658   0.064   7.114   4.708 -0.0886 -0.3953 -0.3831
    1MOL   C659  659   0.021   7.016   4.601  0.0630 -0.3701  0.3631
    1MOL   C660  660   7.575   7.015   4.572  0.5567 -0.1022  0.5090
    1MOL   C661  661   7.494   6.930   4.671 -0.0772  0.0907 -0.0999
    1MOL   C662  662   7.345   6.933   4.649  0.3801  0.4218  0.4313
    1MOL   N663  663   7.281   6.866   4.762  0.4068  0.2104 -1.1474
    1MOL   H664  664   0.171   0.036   5.103  2.5210  1.2854  0.1485
    1MOL   H665  665   0.248   0.003   5.261  1.3290  0.4478 -0.9849
    1MOL   H666  666   0.378   7.609   5.104  0.6431 -2.0949 -3.0690
    1MOL   H667  667   0.312   7.494   5.213  0.5359 -0.2875 -0.0623
    1MOL   H668  668   0.232   7.564   4.910 -1.9553  1.5799  1.8438
    1MOL   H669  669   0.141   7.451   5.014  0.1548 -0.2574  2.1854
    1MOL   H670  670   0.317   7.314   5.061  2.9367 -2.1951 -1.5679
    1MOL   H671  671   0.426   7.390   4.941 -0.1268  1.3188 -0.4339
    1MOL   H672  672   0.267   7.118   4.938  2.2066  1.5091  0.3882
    1MOL   H673  673   0.272   7.114   4.636 -0.3936 -0.3874 -0.2390
    1MOL   H674  674   0.236   6.986   4.759  0.7791 -0.4555 -2.1398
    1MOL   H675  675   0.004   7.101   4.798  0.5175 -0.9149 -0.0424
    1MOL   H676  676   0.041   7.216   4.676  0.6479 -0.7207 -1.9545
    1MOL   H677  677   0.048   6.914   4.627  2.8473  0.3783  0.5682
    1MOL   H678  678   0.074   7.058   4.515  0.3534 -0.3442  0.5511
    1MOL   H679  679   7.539   7.118   4.566 -0.3609 -0.5277 -1.4670
    1MOL   H680  680   7.560   6.975   4.472 -1.2596 -0.8039  1.0563
    1MOL   H681  681   7.524   6.826   4.665 -1.9341 -0.4553 -0.3073
    1MOL   H682  682   7.512   6.967   4.773  2.7755 -0.7369 -0.2817
    1MOL   H683  683   7.316   6.865   4.568 -0.2060 -0.7729  1.6160
    1MOL   H684  684   7.308   7.035   4.641 -3.6373 -1.0918 -1.7285
    1MOL   H685  685   7.335   6.800   4.817  2.0748  1.0939 -1.6887
    1MOL   C686  686   7.152   6.880   4.800 -0.0243  0.4886  0.2272
    1MOL   O687  687   7.082   6.966   4.748  0.4869  0.1681  0.2282
    1MOL   C688  688   7.103   6.800   4.919  0.0995 -0.5186 -0.1942
    1MOL   C689  689   7.048   6.900   5.032 -0.0760 -0.0570  1.2297
    1MOL   C690  690   7.028   6.825   5.168  0.1334 -0.4163 -0.0727
    1MOL   C691  691   6.988   6.914   5.280  0.2811  0.4502 -0.4916
    1MOL   C692  692   6.842   6.944   5.290  0.0140 -0.0370  0.1585
    1MOL   O693  693   6.762   6.933   5.192 -0.0530 -0.0531 -0.0302
    1MOL   N694  694   6.799   6.975   5.412 -0.2274 -0.4804 -0.1461
    1MOL   C695  695   6.657   7.014   5.447  0.1483 -0.1283  0.2528
    1MOL   C696  696   6.635   7.010   5.596  0.2352  0.2010 -0.5025
    1MOL   C697  697   6.492   7.028   5.633 -0.6162 -0.2925  0.6929
    1MOL   C698  698   6.474   7.033   5.793  0.5496  0.8848  0.2481
    1MOL   C699  699   6.334   7.085   5.838  0.2143 -0.4723 -0.1202
    1MOL   C700  700   6.319   7.238   5.805 -0.1707 -0.4171  0.3430
    1MOL   N701  701   6.202   7.290   5.871  0.4618  0.0792  0.1224
    1MOL   H702  702   7.025   6.732   4.885 -0.6073 -0.6008  1.5077
    1MOL   H703  703   7.191   6.751   4.960 -1.6048 -2.0265  1.8297
    1MOL   H704  704   7.121   6.981   5.037  1.2367 -1.0668 -1.0713
    1MOL   H705  705   6.954   6.942   4.998 -1.0302 -2.2398  1.1132
    1MOL   H706  706   7.124   6.781   5.195  1.1262  1.7009 -0.0130
    1MOL   H707  707   6.958   6.743   5.155 -1.0166  0.7142 -1.1939
    1MOL   H708  708   7.033   7.013   5.272  0.1230  0.4738 -1.1042
    1MOL   H709  709   7.033   6.871   5.370 -2.3464  0.7184  0.9897
    1MOL   H710  710   6.870   6.997   5.480 -1.4525  0.0039  1.0087
    1MOL   H711  711   6.634   7.113   5.407  1.3006  1.2823  2.9734
    1MOL   H712  712   6.592   6.943   5.396  0.0064  0.1807  0.0001
    1MOL   H713  713   6.684   6.923   5.639  0.8530  0.3277 -0.9407
    1MOL   H714  714   6.683   7.097   5.640 -0.8765  0.9876 -0.8265
    1MOL   H715  715   6.432   6.951   5.584 -1.0611 -0.3997  1.3946
    1MOL   H716  716   6.451   7.112   5.577  3.1012  1.3598  0.2956
    1MOL   H717  717   6.495   6.931   5.826  1.0792  0.4193 -1.4612
    1MOL   H718  718   6.554   7.090   5.839  0.9969  0.9302 -0.5685
    1MOL   H719  719   6.253   7.025   5.796 -0.9741  1.4901 -0.7124
    1MOL   H720  720   6.319   7.073   5.945  2.7563  2.4491  0.6500
    1MOL   H721  721   6.318   7.253   5.697  2.2583  0.8140  0.4797
    1MOL   H722  722   6.405   7.291   5.842  1.4439 -1.7705 -1.3387
    1MOL   H723  723   6.164   7.249   5.955  1.1946  0.5942  0.7130
    1MOL   C724  724   6.159   7.417   5.846 -0.2830 -0.1951 -0.9226
    1MOL   O725  725   6.202   7.480   5.747 -0.3629 -0.0932 -0.0990
    1MOL   C726  726   6.044   7.473   5.946 -0.2174 -0.2700  0.1075
    1MOL   C727  727   5.921   7.564   5.884  0.2807  0.3369  0.1440
    1MOL   C728  728   5.946   0.005   5.896 -0.5367 -0.3359  0.0876
    1MOL   C729  729   6.071   0.059   5.819  0.4446 -0.5831 -0.0170
    1MOL   C730  730   6.064   0.067   5.668  0.0172 -0.0733  0.0411
    1MOL   O731  731   6.011   0.162   5.612 -0.1175  0.5172  0.1560
    1MOL   N732  732   6.119   7.683   5.594 -0.4340 -0.3669  0.1057
    1MOL   C733  733   6.149   7.694   5.451 -0.6088 -0.1030 -0.6843
    1MOL   C734  734   6.222   7.576   5.387  0.8209 -0.7403  0.5274
    1MOL   C735  735   6.134   7.450   5.383  0.3227  0.1641 -0.2148
    1MOL   C736  736   6.222   7.323   5.367  0.2810  0.3969  0.1417
    1MOL   C737  737   6.311   7.313   5.240 -0.2434  0.2810  0.3715
    1MOL   C738  738   6.395   7.189   5.241  0.8028  0.0846  0.0349
    1MOL   N739  739   6.512   7.197   5.163  0.1792  0.5097  0.3078
    1MOL   H740  740   5.995   7.388   5.993 -0.0520  0.6092  1.8892
    1MOL   H741  741   6.094   7.529   6.024  0.2777 -0.5979  0.0293
    1MOL   H742  742   5.905   7.538   5.779 -2.4937 -3.8542  1.4465
    1MOL   H743  743   5.834   7.545   5.947 -0.4110  0.7801 -0.6814
    1MOL   H744  744   5.962   0.012   6.004  1.1588  2.0913 -0.3000
    1MOL   H745  745   5.859   0.062   5.863  0.6752  0.8440 -1.1094
    1MOL   H746  746   6.167   0.020   5.851  1.2399  0.6064 -0.8683
    1MOL   H747  747   6.076   0.159   5.861 -0.0039 -1.1376  1.3701
    1MOL   H748  748   6.153   7.614   5.660 -0.4685  1.3380  1.9800
    1MOL   H749  749   6.067   0.016   5.386 -0.7766 -1.2525 -1.0119
    1MOL   H750  750   6.205   0.079   5.440 -2.1326  0.8769 -0.1950
    1MOL   H751  751   6.257   7.606   5.288  0.5005  0.2557  0.7057
    1MOL   H752  752   6.309   7.549   5.448  2.4289 -2.2648 -2.3143
    1MOL   H753  753   6.054   7.440   5.309  0.5812 -1.4591 -0.3111
    1MOL   H754  754   6.085   7.422   5.477  2.6394 -2.0700  0.3900
    1MOL   H755  755   6.279   7.318   5.459  2.3910 -2.1196 -1.2156
    1MOL   H756  756   6.165   7.230   5.367  2.0019 -0.7228 -2.4001
    1MOL   H757  757   6.256   7.315   5.146  2.0773 -0.7122 -1.0630
    1MOL   H758  758   6.373   7.402   5.243  0.6592 -0.3744  1.4453
    1MOL   H759  759   6.333   7.105   5.207 -0.2467  0.7101  0.3608
    1MOL   H760  760   6.430   7.177   5.343  1.2023 -0.2417 -0.1382
    1MOL   H761  761   6.511   7.257   5.082 -1.3233  2.4341  1.6778
    1MOL   H762  762   6.537   7.101   5.146 -1.2506  0.7784 -3.7837
    2MOL     C1  763   6.658   0.665   1.169  0.2469  0.5277  0.3079
    2MOL     O2  764   6.650   0.546   1.192 -0.3399 -0.0161  0.1215
    2MOL     C3  765   6.740   0.757   1.252 -0.0029 -0.7426 -0.4771
    2MOL     C4  766   6.764   0.702   1.400 -0.4289  0.1745  0.4562
    2MOL     C5  767   6.648   0.735   1.493  0.3513 -0.8637  0.6216
    2MOL     C6  768   6.644   0.628   1.609 -1.3137  0.0886  0.0927
    2MOL     C7  769   6.760   0.634   1.706  0.3765 -0.9790  0.5784
    2MOL     O8  770   6.838   0.729   1.698  0.2477 -0.0805 -0.6085
    2MOL     N9  771   6.779   0.531   1.789  0.3922 -0.3292 -0.8179
    2MOL    C10  772   6.884   0.522   1.892  0.4612 -0.4579  0.7421
    2MOL    C11  773   6.850   0.442   2.016  0.4411 -0.2406  0.1672
    2MOL    C12  774   6.975   0.422   2.105 -0.5355 -0.5501  0.2199
    2MOL    C13  775   6.959   0.400   2.251 -0.4261  0.3827 -0.6130
    2MOL    C14  776   6.930   0.250   2.283 -0.1824  0.4174  0.0185
    2MOL    C15  777   6.866   0.231   2.421  0.2072  0.0068 -0.0882
    2MOL    N16  778   6.852   0.092   2.463 -0.2184  0.2170 -0.2230
    2MOL    H17  779   6.829   0.789   1.198  0.1652 -1.3822 -0.5831
    2MOL    H18  780   6.687   0.852   1.252  1.4783  0.0941  0.0537
    2MOL    H19  781   6.795   0.598   1.400  2.2298  0.8994 -1.1397
    2MOL    H20  782   6.849   0.763   1.432 -0.3202  0.6524 -0.6930
    2MOL    H21  783   6.553   0.721   1.441  2.2272  0.2339 -3.2827
    2MOL    H22  784   6.652   0.838   1.529  0.9380  0.1447 -2.2502
    2MOL    H23  785   6.640   0.525   1.575 -2.3522 -0.4693  1.8466
    2MOL    H24  786   6.551   0.620   1.665 -0.7172 -2.7187  0.7300
    2MOL    H25  787   6.708   0.460   1.796  0.9283 -1.0232 -2.2824
    2MOL    H26  788   6.966   0.465   1.848  0.6506  1.4910 -1.5591
    2MOL    H27  789   6.928   0.621   1.906  0.4512 -0.1774 -1.0145
    2MOL    H28  790   6.781   0.499   2.078  1.1026 -0.7647  1.4100
    2MOL    H29  791   6.809   0.343   1.998 -2.0442  1.2683 -2.9577
    2MOL    H30  792   7.042   0.507   2.089  0.4234 -1.6251 -1.7202
    2MOL    H31  793   7.025   0.337   2.057  2.4772  0.0393  2.1579
    2MOL    H32  794   7.045   0.437   2.306 -0.9636  0.7294  0.0099
    2MOL    H33  795   6.878   0.462   2.290 -0.0605  1.4241 -1.4739
    2MOL    H34  796   6.851   0.230   2.211 -0.0045  0.6215 -0.2353
    2MOL    H35  797   7.018   0.189   2.263  0.3603  1.8160 -2.0497
    2MOL    H36  798   6.769   0.277   2.406  0.6335  0.6131 -1.0176
    2MOL    H37  799   6.923   0.276   2.503  1.0678 -1.2011  0.0048
    2MOL    H38  800   6.897   0.023   2.405 -0.2207  0.3431 -0.3754
    2MOL    H39  801   6.602   0.721   1.094 -0.3289  0.2499  0.5323
    2MOL    C40  802   6.801   0.052   2.576 -0.1143 -0.3636  0.7110
    2MOL    O41  803   6.749   0.128   2.657  0.3616  0.0283 -0.7246
    2MOL    C42  804   6.809   7.612   2.606  0.4477 -0.0199 -0.0595
    2MOL    C43  805   6.685   7.543   2.669 -0.4131  0.6797 -0.4116
    2MOL    C44  806   6.701   7.385   2.682 -0.0998  0.2281 -0.6210
    2MOL    C45  807   6.770   7.330   2.798 -0.1399 -0.3138 -0.0639
    2MOL    C46  808   6.928   7.327   2.780 -0.4876  0.1563 -0.1503
    2MOL    O47  809   6.981   7.256   2.696  0.4839 -0.7104 -0.5441
    2MOL    N48  810   6.996   7.403   2.865 -0.0184 -0.0735 -0.1837
    2MOL    C49  811   7.146   7.414   2.847 -0.3594  0.1161 -0.1279
    2MOL    C50  812   7.200   7.509   2.954 -0.6530 -0.7863  0.4892
    2MOL    C51  813   7.149   7.488   3.095  0.4414 -0.4208 -0.0335
    2MOL    C52  814   7.175   7.608   3.192  0.2108 -0.5121 -0.7816
    2MOL    C53  815   7.177   7.556   3.340 -0.0454 -0.1303  0.1664
    2MOL    C54  816   7.193   7.664   3.452 -0.3616  0.1395 -0.1806
    2MOL    N55  817   7.089   0.058   3.463  0.1984  0.0015 -0.3129
    2MOL    H56  818   6.863   7.551   2.534 -0.1484 -0.2535 -0.3094
    2MOL    H57  819   6.879   7.612   2.690 -0.6108 -1.0983  0.8498
    2MOL    H58  820   6.664   7.588   2.766 -0.6402  0.1107 -0.1909
    2MOL    H59  821   6.602   7.573   2.604 -0.9552 -1.1500 -0.6146
    2MOL    H60  822   6.749   7.346   2.593 -1.4048 -3.3808  0.1837
    2MOL    H61  823   6.606   7.334   2.698 -0.8805  1.5073 -1.1025
    2MOL    H62  824   6.737   7.227   2.810 -1.4442  0.3197  2.0779
    2MOL    H63  825   6.744   7.385   2.888  0.8057  0.6493 -0.3610
    2MOL    H64  826   6.947   7.461   2.931  0.3005  1.7625 -1.4996
    2MOL    H65  827   7.190   7.315   2.858  0.7979  0.5759 -0.4391
    2MOL    H66  828   7.172   7.454   2.749  1.1254 -2.1516 -0.7017
    2MOL    H67  829   7.309   7.508   2.952 -0.6492 -0.1199  0.1381
    2MOL    H68  830   7.167   7.607   2.919  0.2668 -0.5371  0.2928
    2MOL    H69  831   7.189   7.391   3.125 -0.7986 -0.3522  1.9280
    2MOL    H70  832   7.041   7.477   3.103  0.5601 -1.0461  0.8680
    2MOL    H71  833   7.267   7.661   3.170 -0.5940  0.7307 -1.1790
    2MOL    H72  834   7.106   7.691   3.180  0.6168 -0.0769 -0.1424
    2MOL    H73  835   7.085   7.500   3.354  2.0048 -3.5222  0.6031
    2MOL    H74  836   7.252   7.478   3.343 -1.7286 -1.9792 -3.1533
    2MOL    H75  837   7.290   0.006   3.453 -0.9244  1.2478 -0.5510
    2MOL    H76  838   7.185   7.614   3.548  0.8777  1.2529  0.5303
    2MOL    H77  839   7.011   0.048   3.526 -0.3593 -0.6033 -1.0766
    2MOL    C78  840   7.092   0.172   3.395 -0.0298  0.0574  0.7143
    2MOL    O79  841   7.181   0.205   3.322 -0.0845 -0.0759  0.2819
    2MOL    C80  842   6.980   0.268   3.418 -0.0456 -0.3378  0.7592
    2MOL    C81  843   6.996   0.407   3.357 -0.0211 -0.0294  0.5199
    2MOL    C82  844   6.878   0.496   3.373  0.6457 -0.0500  0.5784
    2MOL    C83  845   6.908   0.636   3.316  0.2738 -0.0537  0.0400
    2MOL    C84  846   6.780   0.709   3.295  0.8461 -0.2946 -0.5656
    2MOL    O85  847   6.675   0.655   3.334 -0.3420  0.6397  0.0054
    2MOL    N86  848   6.788   0.832   3.237  1.3873  0.4243  0.3924
    2MOL    C87  849   6.676   0.918   3.193  0.6746  0.0109 -0.3733
    2MOL    C88  850   6.661   0.913   3.043  0.1154 -0.3945 -1.1786
    2MOL    C89  851   6.559   1.005   2.992  0.1542 -0.3584 -0.4906
    2MOL    C90  852   6.541   0.998   2.837  0.3322 -0.2939  0.1610
    2MOL    C91  853   6.476   1.120   2.764  0.3648  0.1916 -1.0535
    2MOL    C92  854   6.440   1.083   2.615  0.0700  0.0081  0.0882
    2MOL    N93  855   6.393   1.196   2.535  0.5011 -0.9504  0.4688
    2MOL    H94  856   6.895   0.213   3.377  2.4636 -3.3436 -0.6626
    2MOL    H95  857   6.970   0.284   3.525  1.7852 -0.2801  0.9430
    2MOL    H96  858   7.091   0.454   3.381  1.1489 -2.2994  0.4372
    2MOL    H97  859   7.010   0.397   3.250 -1.1040 -1.7605  0.5170
    2MOL    H98  860   6.833   0.505   3.472 -1.4378  0.8609 -0.4104
    2MOL    H99  861   6.800   0.450   3.313 -0.8940  1.1025  1.6503
    2MOL   H100  862   6.955   0.630   3.218 -2.1527 -2.5712 -1.0396
    2MOL   H101  863   6.965   0.687   3.394 -2.1710  0.4596  1.5669
    2MOL   H102  864   6.882   0.871   3.238  1.5556 -0.0003  1.4737
    2MOL   H103  865   6.579   0.890   3.234  0.5989  1.7301  0.6873
    2MOL   H104  866   6.697   1.023   3.214 -0.0623  0.2555 -0.8560
    2MOL   H105  867   6.757   0.952   3.008  1.1175 -0.3162  1.4983
    2MOL   H106  868   6.656   0.809   3.010  1.4470 -0.6886 -0.5156
    2MOL   H107  869   6.565   1.110   3.023 -0.6962  0.1328 -1.9224
    2MOL   H108  870   6.462   0.971   3.028 -0.4112 -0.2823 -1.9020
    2MOL   H109  871   6.634   0.973   2.787  0.5604  0.0661  0.4071
    2MOL   H110  872   6.482   0.908   2.820 -0.2520 -0.1725  1.4835
    2MOL   H111  873   6.387   1.164   2.810  0.9003 -0.1162  0.3215
    2MOL   H112  874   6.544   1.205   2.775 -0.9105  1.0852  0.1827
    2MOL   H113  875   6.370   1.000   2.612  0.0387  0.1114 -2.7478
    2MOL   H114  876   6.525   1.033   2.570  0.7478  1.0490  0.1908
    2MOL   H115  877   6.445   1.282   2.530  0.9851 -1.2573  0.1359
    2MOL   C116  878   6.293   1.182   2.442 -0.2759  0.6388 -0.1397
    2MOL   O117  879   6.238   1.076   2.427  0.1375 -0.2806  0.2747
    2MOL   C118  880   6.245   1.312   2.355  0.6356  0.2276  0.5490
    2MOL   C119  881   6.337   1.329   2.230 -0.4407 -0.2471 -0.4273
    2MOL   C120  882   6.314   1.223   2.120  0.2440 -0.2659 -0.4517
    2MOL   C121  883   6.435   1.229   2.027  0.3075  0.8337 -0.3012
    2MOL   C122  884   6.403   1.150   1.898  0.1892 -0.1790 -0.3160
    2MOL   O123  885   6.289   1.135   1.856  0.2675 -0.0786 -0.4587
    2MOL   N124  886   6.507   1.097   1.836  0.1351  0.0898  0.2755
    2MOL   C125  887   6.500   1.031   1.705 -0.7855  0.1326  0.1341
    2MOL   C126  888   6.441   1.127   1.594 -0.0493  0.2913  0.2416
    2MOL   C127  889   6.460   1.067   1.458  0.2223  0.6612  0.3571
    2MOL   C128  890   6.369   0.952   1.431  0.5170 -0.9041  0.2190
    2MOL   C129  891   6.380   0.923   1.281 -0.1726 -0.2106 -0.1873
    2MOL   C130  892   6.318   0.795   1.241 -0.4856  0.2000  0.0809
    2MOL   N131  893   6.312   0.788   1.094 -0.4717 -0.5203 -0.5949
    2MOL   H132  894   6.144   1.302   2.316 -0.1626  1.7603  2.1662
    2MOL   H133  895   6.239   1.403   2.414  0.8870  0.3979  0.3118
    2MOL   H134  896   6.323   1.434   2.203  0.2683 -0.2071 -0.6376
    2MOL   H135  897   6.442   1.325   2.258  0.0793  0.3217 -2.1682
    2MOL   H136  898   6.214   1.240   2.081  0.3501  3.4996  0.7301
    2MOL   H137  899   6.308   1.126   2.171  1.4659 -0.5909 -0.9067
    2MOL   H138  900   6.526   1.200   2.080 -0.7688 -0.4559  0.8723
    2MOL   H139  901   6.449   1.332   1.993  0.0053  1.3497  1.1078
    2MOL   H140  902   6.597   1.099   1.881 -1.1353 -1.3821  2.9672
    2MOL   H141  903   6.600   1.006   1.670 -1.6745 -2.7627 -0.5303
    2MOL   H142  904   6.457   0.931   1.712  2.2084 -1.5684 -3.9910
    2MOL   H143  905   6.334   1.149   1.604  0.1710  1.2795  0.4315
    2MOL   H144  906   6.495   1.221   1.596  0.0504  0.2585 -0.8276
    2MOL   H145  907   6.567   1.049   1.448  0.6258  2.8709  0.2574
    2MOL   H146  908   6.436   1.147   1.388 -0.8459 -0.0815 -0.1296
    2MOL   H147  909   6.408   0.867   1.488  0.3654 -1.3599 -0.3483
    2MOL   H148  910   6.267   0.970   1.466 -0.1114  0.5729 -2.2342
    2MOL   H149  911   6.324   0.998   1.225  2.5202  0.5890 -1.9072
    2MOL   H150  912   6.484   0.934   1.250 -0.1583 -2.4693 -1.0788
    2MOL   H151  913   6.218   0.788   1.283 -0.5439 -3.1428 -0.4048
    2MOL   H152  914   6.385   0.712   1.266 -0.8883 -0.9208 -2.3345
    2MOL   H153  915   6.376   0.848   1.044 -2.1177  0.5643 -1.4729
    2MOL   C154  916   6.242   0.701   1.017  0.3726  0.0448  0.2301
    2MOL   O155  917   6.171   0.614   1.074 -0.5047 -0.6459  0.1424
    2MOL   C156  918   6.229   0.724   0.864 -0.1712  0.6692  0.5667
    2MOL   C157  919   6.158   0.860   0.822  0.0892  0.0998  1.0425
    2MOL   C158  920   6.014   0.886   0.869 -0.1720 -0.5495  0.1088
    2MOL   C159  921   5.934   1.004   0.819 -0.0388  0.2531 -0.0187
    2MOL   C160  922   6.003   1.138   0.846  0.5606  0.1627 -0.1093
    2MOL   O161  923   6.092   1.151   0.936 -0.5660 -0.0663  0.5871
    2MOL   N162  924   5.965   1.241   0.765  0.0972 -0.3342 -1.0803
    2MOL   C163  925   6.035   1.373   0.759  1.1240 -0.3875  0.0608
    2MOL   C164  926   5.962   1.473   0.851 -0.0507  0.2487  0.4062
    2MOL   C165  927   5.818   1.491   0.811  0.5821  0.4381 -0.5370
    2MOL   C166  928   5.747   1.586   0.907 -0.4885 -0.2660 -0.0828
    2MOL   C167  929   5.606   1.635   0.862 -0.3464 -0.5241  0.2628
    2MOL   C168  930   5.533   1.711   0.976  0.7016  0.5512 -0.0718
    2MOL   N169  931   5.618   1.820   1.033 -0.7081  0.3297 -0.0833
    2MOL   H170  932   6.318   0.709   0.804  1.8766  1.5295  3.2862
    2MOL   H171  933   6.168   0.637   0.842  1.4844 -0.0019 -1.5652
    2MOL   H172  934   6.226   0.939   0.854  2.3759 -1.3249 -0.2005
    2MOL   H173  935   6.161   0.871   0.714 -1.1136  1.4950  1.1271
    2MOL   H174  936   6.004   0.876   0.977  0.8290  1.6948  0.4237
    2MOL   H175  937   5.962   0.796   0.836  0.0560 -0.7356  0.2536
    2MOL   H176  938   5.842   1.007   0.878  1.4883  2.2836  2.3791
    2MOL   H177  939   5.907   0.987   0.715  0.5382  0.4586 -0.2042
    2MOL   H178  940   5.899   1.227   0.690 -1.8201  2.9642 -0.1031
    2MOL   H179  941   6.140   1.363   0.786  1.1412  1.0737  0.5585
    2MOL   H180  942   6.027   1.404   0.655  0.1597 -2.1998 -0.4144
    2MOL   H181  943   5.963   1.439   0.955 -0.2249 -2.5983 -0.4838
    2MOL   H182  944   6.017   1.568   0.846  2.3221 -1.1426 -1.2353
    2MOL   H183  945   5.773   1.391   0.807  1.1381 -0.0396  3.0748
    2MOL   H184  946   5.828   1.535   0.712  1.3639  3.2639  0.7674
    2MOL   H185  947   5.734   1.542   1.006  0.3771  0.7368  0.4801
    2MOL   H186  948   5.810   1.674   0.921  0.7596 -1.2246  0.4078
    2MOL   H187  949   5.613   1.696   0.772  0.4553  0.1216  0.7550
    2MOL   H188  950   5.547   1.543   0.852 -1.4494  0.2597 -0.4945
    2MOL   H189  951   5.500   1.649   1.060 -1.0735  0.0956 -1.0846
    2MOL   H190  952   5.445   1.764   0.939 -0.0566  1.0016  2.2659
    2MOL   H191  953   5.708   1.832   0.990 -1.1829  0.0913 -1.1748
    2MOL   C192  954   5.577   1.901   1.132 -0.2510  0.5549  0.2218
    2MOL   O193  955   5.463   1.897   1.165 -0.1285  0.0872  0.0302
    2MOL   C194  956   5.673   2.011   1.186 -0.2211  0.0867  0.8777
    2MOL   C195  957   5.595   2.120   1.267 -0.0126 -0.4162  0.2537
    2MOL   C196  958   5.521   2.224   1.181  0.2936 -0.6429 -0.4600
    2MOL   C197  959   5.475   2.347   1.263 -0.4529  0.6127 -0.3407
    2MOL   C198  960   5.340   2.335   1.324  0.1744 -0.2032  0.0265
    2MOL   O199  961   5.242   2.380   1.264  0.3040  0.3977  1.0464
    2MOL   N200  962   5.326   2.276   1.447 -0.0018  0.6980  0.1375
    2MOL   C201  963   5.204   2.267   1.525  0.3669  0.1138  1.0169
    2MOL   C202  964   5.133   2.143   1.477  1.1438  0.1040 -0.0085
    2MOL   C203  965   4.991   2.122   1.526 -0.2265  0.1056 -0.4034
    2MOL   C204  966   4.938   1.976   1.534 -0.2573 -0.6430 -0.1936
    2MOL   C205  967   4.899   1.918   1.403  0.2952  0.2213 -0.0134
    2MOL   C206  968   4.786   1.994   1.327  0.5509  0.1564 -0.7296
    2MOL   N207  969   4.774   1.935   1.193 -0.1565  0.1475 -0.0057
    2MOL   H208  970   5.747   1.954   1.241  1.5888 -0.8727 -2.4292
    2MOL   H209  971   5.733   2.064   1.112 -2.0785 -1.4199 -1.8058
    2MOL   H210  972   5.516   2.074   1.327  0.9383 -0.6471  1.3415
    2MOL   H211  973   5.661   2.164   1.342 -1.9083  2.7332  0.2023
    2MOL   H212  974   5.433   2.176   1.139 -0.3571 -0.4492  0.6686
    2MOL   H213  975   5.581   2.272   1.103  0.7315  1.1198  0.9287
    2MOL   H214  976   5.469   2.430   1.193 -1.0947  1.1372  0.3233
    2MOL   H215  977   5.547   2.380   1.338  1.6567 -1.1583 -1.5448
    2MOL   H216  978   5.408   2.243   1.497 -0.7631 -0.7096  0.4865
    2MOL   H217  979   5.232   2.260   1.630  1.3258 -4.4138  0.5603
    2MOL   H218  980   5.146   2.360   1.521  1.0574  0.5243  0.2207
    2MOL   H219  981   5.132   2.155   1.368 -1.8328  1.0843  0.1007
    2MOL   H220  982   5.191   2.058   1.514  0.4927 -1.2189 -1.9346
    2MOL   H221  983   4.928   2.189   1.466 -0.3030 -0.0321 -0.4778
    2MOL   H222  984   4.988   2.172   1.622 -0.8851  0.4951 -0.6199
    2MOL   H223  985   5.007   1.910   1.586  0.1172  0.5552  0.8470
    2MOL   H224  986   4.846   1.990   1.590  0.2057 -0.4573  0.5306
    2MOL   H225  987   4.982   1.918   1.333 -0.5047  2.5453 -1.0391
    2MOL   H226  988   4.882   1.811   1.418 -1.8801  0.3666 -1.1755
    2MOL   H227  989   4.797   2.100   1.308 -0.9694  0.5865  0.6363
    2MOL   H228  990   4.692   1.994   1.382  1.0465  1.0047  0.1186
    2MOL   H229  991   4.860   1.914   1.144 -0.1291  2.3117 -0.9449
    2MOL   C230  992   4.666   1.919   1.126  0.1855 -0.2671  0.1383
    2MOL   O231  993   4.550   1.935   1.168 -0.2134  0.2224  0.7449
    2MOL   C232  994   4.674   1.865   0.979  0.0581  0.3292  0.2794
    2MOL   C233  995   4.609   1.727   0.954 -0.2187  0.4265 -1.5273
    2MOL   C234  996   4.690   1.598   1.002  0.1092 -0.0071  0.5815
    2MOL   C235  997   4.607   1.474   0.976  0.4311 -0.1521  0.8134
    2MOL   C236  998   4.486   1.455   1.067 -0.0737  0.0420 -0.7386
    2MOL   O237  999   4.513   1.430   1.186 -0.1480 -0.0677  0.4163
    2MOL   N238 1000   4.365   1.440   1.011 -0.0613  0.2712 -0.3056
    2MOL   C239 1001   4.238   1.432   1.082 -0.6360  0.2947 -0.7281
    2MOL   C240 1002   4.178   1.294   1.070 -0.4795 -0.5308 -0.0259
    2MOL   C241 1003   4.040   1.285   1.135 -0.2368  0.3225  0.0943
    2MOL   C242 1004   3.943   1.190   1.061  0.5311 -0.1099 -0.2614
    2MOL   C243 1005   3.999   1.047   1.071 -0.2220 -0.0683 -0.0973
    2MOL   C244 1006   3.925   0.949   0.975  0.5448 -0.0846 -0.4584
    2MOL   N245 1007   4.005   0.828   0.983  0.3235 -0.8187  0.3206
    2MOL   H246 1008   4.617   1.939   0.923  1.3990 -0.1947 -1.8663
    2MOL   H247 1009   4.771   1.874   0.929 -0.1945 -2.3516 -0.7520
    2MOL   H248 1010   4.512   1.727   1.002  0.4811  1.7204 -0.0327
    2MOL   H249 1011   4.583   1.715   0.849 -0.6154 -1.7859 -1.1976
    2MOL   H250 1012   4.710   1.596   1.109 -2.0339 -1.3543  0.9863
    2MOL   H251 1013   4.780   1.603   0.940 -0.3554 -2.4544 -0.3462
    2MOL   H252 1014   4.677   1.391   0.992  0.4880 -0.5094 -1.1116
    2MOL   H253 1015   4.577   1.480   0.871  0.2949 -0.3263  0.8431
    2MOL   H254 1016   4.349   1.486   0.923 -3.6875  0.8499  0.5479
    2MOL   H255 1017   4.241   1.469   1.184 -2.3171  2.1712 -1.3287
    2MOL   H256 1018   4.170   1.497   1.027 -1.8111  0.0581  0.3958
    2MOL   H257 1019   4.181   1.266   0.964  0.5390  1.5282 -0.5747
    2MOL   H258 1020   4.253   1.230   1.116  0.6506  1.3963  0.8379
    2MOL   H259 1021   4.002   1.387   1.139 -1.9574 -0.2286 -1.2738
    2MOL   H260 1022   4.058   1.254   1.238  0.4384 -0.5681 -0.2856
    2MOL   H261 1023   3.845   1.188   1.111  0.0956  0.9386 -1.0481
    2MOL   H262 1024   3.929   1.219   0.957 -0.1804 -3.0852 -1.0189
    2MOL   H263 1025   4.107   1.042   1.060 -0.0247 -0.0197  1.5677
    2MOL   H264 1026   3.982   1.025   1.177 -0.8537  0.4240 -0.0950
    2MOL   H265 1027   3.920   0.982   0.872 -1.6752 -0.3024 -0.4377
    2MOL   H266 1028   3.822   0.932   1.007  0.6959  1.3690  0.8888
    2MOL   H267 1029   4.002   0.775   1.070 -1.5150  0.3210  0.9681
    2MOL   C268 1030   4.110   0.793   0.909 -1.0150 -0.1526  0.0860
    2MOL   O269 1031   4.153   0.868   0.822 -0.0167  0.7240 -0.4116
    2MOL   C270 1032   4.196   0.672   0.957  0.6855 -0.6530  0.2205
    2MOL   C271 1033   4.183   0.565   0.847 -0.5804  0.4716  0.1026
    2MOL   C272 1034   4.046   0.487   0.834  0.6982 -0.1081 -0.5013
    2MOL   C273 1035   4.062   0.359   0.749 -0.2758 -0.5372  0.3568
    2MOL   C274 1036   3.926   0.294   0.731  0.2492  0.0076  0.5900
    2MOL   O275 1037   3.843   0.343   0.648 -0.1887  0.0093  0.2327
    2MOL   N276 1038   3.887   0.190   0.809  0.1321 -0.4917 -0.4287
    2MOL   C277 1039   3.760   0.122   0.815  0.4614 -0.1132  0.1379
    2MOL   C278 1040   3.642   0.204   0.860  0.7245 -0.0769 -0.1500
    2MOL   C279 1041   3.669   0.324   0.945  0.4529  0.1084  0.0726
    2MOL   C280 1042   3.541   0.410   0.945  0.0652 -0.4352 -0.0382
    2MOL   C281 1043   3.575   0.553   1.009  0.2438 -0.3989  0.1579
    2MOL   C282 1044   3.446   0.638   1.040 -0.5177 -0.2960 -0.0419
    2MOL   N283 1045   3.483   0.742   1.130 -0.1964 -0.1797  0.5162
    2MOL   H284 1046   4.302   0.695   0.959  0.4451  0.5889 -0.5390
    2MOL   H285 1047   4.167   0.646   1.059  0.6866 -3.2091 -0.3844
    2MOL   H286 1048   4.220   0.603   0.752 -1.0061  1.1975  0.2220
    2MOL   H287 1049   4.267   0.498   0.868  0.3783  1.7433  0.3456
    2MOL   H288 1050   3.967   0.558   0.807 -0.2525 -0.9015  0.1351
    2MOL   H289 1051   4.009   0.463   0.934 -1.2877 -0.8872 -1.3903
    2MOL   H290 1052   4.119   0.286   0.807 -4.6063 -3.6039  1.0911
    2MOL   H291 1053   4.105   0.374   0.650  1.1873 -0.3586  1.0084
    2MOL   H292 1054   3.961   0.164   0.872  0.4062  0.5519 -0.3176
    2MOL   H293 1055   3.746   0.076   0.718  1.9667  1.0655 -0.6571
    2MOL   H294 1056   3.760   0.041   0.888 -0.8000 -0.4364 -0.1996
    2MOL   H295 1057   3.597   0.235   0.766  0.6946 -0.1039 -0.1442
    2MOL   H296 1058   3.565   0.150   0.916  1.4053 -0.0253  0.8525
    2MOL   H297 1059   3.755   0.381   0.909 -1.5932  1.8871 -2.1824
    2MOL   H298 1060   3.699   0.295   1.046 -1.6788 -2.7493 -0.0420
    2MOL   H299 1061   3.511   0.427   0.841  0.0169  0.5142  0.1245
    2MOL   H300 1062   3.462   0.355   0.996 -0.7872  0.8974  0.1120
    2MOL   H301 1063   3.634   0.539   1.099  2.3137  1.1732 -0.9120
    2MOL   H302 1064   3.642   0.612   0.946  0.9076  0.2471  1.4457
    2MOL   H303 1065   3.370   0.573   1.082 -1.6120 -0.5708 -2.3585
    2MOL   H304 1066   3.398   0.679   0.951  1.7801  0.9559 -0.7306
    2MOL   H305 1067   3.462   0.737   1.228  1.7473 -1.0863  0.9030
    2MOL   C306 1068   3.535   0.860   1.097  0.8884 -0.5186  0.1733
    2MOL   O307 1069   3.570   0.891   0.982 -0.5517 -0.1781  0.6287
    2MOL   C308 1070   3.544   0.964   1.206 -0.2866  0.0107 -0.3655
    2MOL   C309 1071   3.676   0.964   1.296 -0.1402 -0.2597  0.2784
    2MOL   C310 1072   3.693   0.839   1.382 -0.5129 -0.3279 -0.2316
    2MOL   C311 1073   3.825   0.828   1.458 -0.1055  0.1898 -0.2712
    2MOL   C312 1074   3.942   0.789   1.367 -0.0414  0.0387 -0.6467
    2MOL   O313 1075   3.927   0.747   1.252 -0.3141 -0.0337  0.1551
    2MOL   N314 1076   4.059   0.824   1.418  0.4662 -0.9954 -0.4124
    2MOL   C315 1077   4.189   0.822   1.354 -0.0629  0.2252 -0.2089
    2MOL   C316 1078   4.261   0.689   1.364 -0.4247 -0.1839 -0.4534
    2MOL   C317 1079   4.257   0.627   1.516  0.0796 -0.6217  0.7134
    2MOL   C318 1080   4.343   0.496   1.522  0.0543  0.1776  0.3073
    2MOL   C319 1081   4.341   0.444   1.665 -0.0906 -0.2601  0.1163
    2MOL   C320 1082   4.426   0.321   1.690 -0.2970 -0.1005 -0.4090
    2MOL   N321 1083   4.405   0.256   1.818  0.5069  0.0782 -0.3890
    2MOL   H322 1084   3.541   1.053   1.142 -1.3585  0.1771 -0.0957
    2MOL   H323 1085   3.451   0.965   1.263 -1.2164 -0.8368 -1.8518
    2MOL   H324 1086   3.763   0.987   1.235 -1.4241 -3.2288 -2.8286
    2MOL   H325 1087   3.668   1.055   1.356 -2.3621  0.3877 -0.9534
    2MOL   H326 1088   3.671   0.741   1.338  1.7605 -1.2552  0.5904
    2MOL   H327 1089   3.621   0.837   1.463  0.0709 -2.4609  0.2583
    2MOL   H328 1090   3.820   0.750   1.533  0.6220  1.3385  1.0066
    2MOL   H329 1091   3.842   0.927   1.501  3.5020  0.1827 -1.4941
    2MOL   H330 1092   4.046   0.860   1.512 -0.4828 -2.6695  0.1142
    2MOL   H331 1093   4.185   0.874   1.258  0.7984  2.1796  0.7679
    2MOL   H332 1094   4.249   0.897   1.405 -0.5548 -0.9803  2.1952
    2MOL   H333 1095   4.212   0.623   1.292 -2.8634  1.3097 -0.2316
    2MOL   H334 1096   4.361   0.706   1.325 -0.2174 -0.6425 -0.1305
    2MOL   H335 1097   4.151   0.615   1.534  0.4549 -0.3146  3.2429
    2MOL   H336 1098   4.301   0.693   1.591  0.6747  1.1040 -1.0982
    2MOL   H337 1099   4.309   0.411   1.463 -0.6740 -1.0633  2.4679
    2MOL   H338 1100   4.447   0.504   1.489 -0.9691  1.7445 -2.7290
    2MOL   H339 1101   4.373   0.519   1.737  0.1110  2.5384 -2.8028
    2MOL   H340 1102   4.237   0.427   1.694 -0.8454 -0.1318 -2.3513
    2MOL   H341 1103   4.528   0.347   1.665 -0.2587  1.4595  1.2539
    2MOL   H342 1104   4.389   0.250   1.616 -0.4022  0.6011 -1.0391
    2MOL   H343 1105   4.375   0.311   1.897 -0.2348  2.3751 -2.2092
    2MOL   C344 1106   4.421   0.132   1.853 -0.2784  0.4247  0.1885
    2MOL   O345 1107   4.465   0.045   1.781  0.4879  0.3494  0.1134
    2MOL   C346 1108   4.376   0.103   1.993  0.0827  0.3702  0.4489
    2MOL   C347 1109   4.444   7.686   2.053  0.7152 -0.2168  0.0102
    2MOL   C348 1110   4.405   7.655   2.197  0.2925  0.1433  0.5895
    2MOL   C349 1111   4.449   7.514   2.259  0.7289 -0.5686  0.4578
    2MOL   C350 1112   4.597   7.505   2.273  0.7873 -0.0665  0.2579
    2MOL   O351 1113   4.657   7.555   2.367  0.1719  0.2728 -0.2260
    2MOL   N352 1114   4.661   7.452   2.166 -0.1197  0.0619  0.1558
    2MOL   C353 1115   4.804   7.452   2.145 -0.1143 -0.0454 -0.2706
    2MOL   C354 1116   4.852   7.561   2.047  0.2574 -0.2660 -0.1241
    2MOL   C355 1117   4.780   7.556   1.908 -0.0686 -0.2823  0.5103
    2MOL   C356 1118   4.828   7.671   1.804  0.0163 -0.4005 -0.7411
    2MOL   C357 1119   4.971   7.666   1.753 -0.2869 -0.3731  0.2150
    2MOL   C358 1120   4.999   0.065   1.646 -0.6727 -0.0574  0.0511
    2MOL   N359 1121   5.142   0.058   1.612 -0.1116 -0.2657  0.0658
    2MOL   H360 1122   4.399   0.179   2.067  1.4830  0.1894  0.2149
    2MOL   H361 1123   4.270   0.079   1.990  0.3300 -0.6617 -0.6504
    2MOL   H362 1124   4.442   7.605   1.979  1.3473  0.1633 -0.4231
    2MOL   H363 1125   4.549   0.003   2.066  1.5785 -3.0111 -1.2181
    2MOL   H364 1126   4.296   7.662   2.204  0.0688  0.5723 -2.5120
    2MOL   H365 1127   4.438   0.035   2.253 -0.2048  1.3120 -0.9276
    2MOL   H366 1128   4.422   7.433   2.192  1.4230 -0.5338  0.1349
    2MOL   H367 1129   4.402   7.480   2.351  0.6442 -1.6837  0.0051
    2MOL   H368 1130   4.616   7.414   2.084  0.5417 -0.1829 -0.0973
    2MOL   H369 1131   4.861   7.461   2.238  0.8150 -1.0670 -0.7245
    2MOL   H370 1132   4.829   7.352   2.109  4.2985 -0.1600  2.7277
    2MOL   H371 1133   4.842   7.658   2.095 -1.6085  0.1411 -1.2744
    2MOL   H372 1134   4.956   7.543   2.019  0.9988  0.9546  1.7665
    2MOL   H373 1135   4.673   7.573   1.919 -0.5633 -0.0966 -3.8512
    2MOL   H374 1136   4.791   7.457   1.862  0.0979 -0.0704  0.0912
    2MOL   H375 1137   4.759   7.673   1.720  1.9795  0.3106 -2.3783
    2MOL   H376 1138   4.804   0.049   1.866  0.1343 -1.5773  0.9872
    2MOL   H377 1139   5.048   7.681   1.829 -0.4821  1.5800  0.0488
    2MOL   H378 1140   4.985   7.570   1.703  2.0369 -0.1730  0.4552
    2MOL   H379 1141   4.962   0.159   1.685 -0.4105  1.4051 -3.0392
    2MOL   H380 1142   4.930   0.056   1.562  1.2172 -1.4109 -1.4157
    2MOL   H381 1143   5.205   0.036   1.688 -1.8128  0.8642  1.8515
    2MOL   C382 1144   5.179   0.084   1.483  0.0713  0.5191  0.8251
    2MOL   O383 1145   5.099   0.089   1.383 -0.5130  0.1983 -0.1126
    2MOL   C384 1146   5.328   0.093   1.455 -0.4586 -0.1896  0.0999
    2MOL   C385 1147   5.367   0.243   1.452  0.3994  0.5357  0.5372
    2MOL   C386 1148   5.451   0.292   1.573 -0.2172  0.0629 -0.0713
    2MOL   C387 1149   5.378   0.299   1.708  0.4060  0.0312  0.2892
    2MOL   C388 1150   5.468   0.347   1.816 -0.0067  0.2486 -0.0750
    2MOL   O389 1151   5.582   0.299   1.827 -0.1552 -0.5613  0.1017
    2MOL   N390 1152   5.426   0.451   1.887  0.0339 -0.6959 -0.1395
    2MOL   C391 1153   5.501   0.503   1.998 -0.0195 -0.2328 -0.0020
    2MOL   C392 1154   5.633   0.574   1.953  0.1457  0.6100 -0.6175
    2MOL   C393 1155   5.616   0.691   1.849  0.6938 -0.0769  0.7422
    2MOL   C394 1156   5.541   0.795   1.926 -0.3058 -0.1541  0.2660
    2MOL   C395 1157   5.559   0.936   1.869  0.1410 -1.2112  0.2954
    2MOL   C396 1158   5.472   1.041   1.933  0.2006 -0.2331  0.0481
    2MOL   N397 1159   5.504   1.174   1.879 -0.1371 -0.0412  0.4231
    2MOL   H398 1160   5.380   0.033   1.530  0.8141 -1.0539 -1.4384
    2MOL   H399 1161   5.340   0.041   1.360  1.0633 -0.9347  0.6740
    2MOL   H400 1162   5.419   0.244   1.357 -0.0838  0.6346  0.2713
    2MOL   H401 1163   5.282   0.311   1.439 -0.9084 -1.0483  0.5820
    2MOL   H402 1164   5.496   0.389   1.552  1.3118 -0.7282 -0.5470
    2MOL   H403 1165   5.536   0.225   1.586  0.5393  1.2931  1.5197
    2MOL   H404 1166   5.356   0.194   1.725 -0.2254  0.2265  0.6740
    2MOL   H405 1167   5.282   0.351   1.706  0.9058  1.0410  1.9899
    2MOL   H406 1168   5.339   0.496   1.864  0.0821 -0.4739  0.1019
    2MOL   H407 1169   5.437   0.564   2.062 -0.6636 -0.5763 -0.3034
    2MOL   H408 1170   5.525   0.417   2.060 -0.3881 -0.8621 -0.7140
    2MOL   H409 1171   5.686   0.603   2.044 -1.0995 -1.4203  0.8128
    2MOL   H410 1172   5.697   0.500   1.906 -0.2043 -0.3456  0.3744
    2MOL   H411 1173   5.576   0.662   1.752 -2.0850  1.5439  1.3477
    2MOL   H412 1174   5.720   0.721   1.841  1.6789 -2.8887  2.3157
    2MOL   H413 1175   5.436   0.765   1.924 -0.6987  1.2329 -2.3688
    2MOL   H414 1176   5.587   0.787   2.025 -1.1498 -2.0171  0.5344
    2MOL   H415 1177   5.661   0.974   1.881 -1.1845  2.9407 -0.8931
    2MOL   H416 1178   5.539   0.943   1.763 -1.7976 -0.5218  0.6919
    2MOL   H417 1179   5.504   1.041   2.038  0.5542 -2.6496 -0.0363
    2MOL   H418 1180   5.366   1.017   1.925 -0.1453  1.6479 -1.3199
    2MOL   H419 1181   5.568   1.178   1.800 -2.2047 -2.8315 -1.4983
    2MOL   C420 1182   5.479   1.281   1.952  0.1207  0.7338 -0.3616
    2MOL   O421 1183   5.405   1.279   2.049 -0.5252  0.1346  0.2640
    2MOL   C422 1184   5.550   1.410   1.900 -0.8560  0.1643 -0.4589
    2MOL   C423 1185   5.562   1.521   2.008 -0.4307 -0.1331 -0.1943
    2MOL   C424 1186   5.418   1.585   2.025 -0.4355 -0.0204 -0.3871
    2MOL   C425 1187   5.410   1.674   2.149  0.1274  0.6108  0.8870
    2MOL   C426 1188   5.462   1.817   2.127 -0.0041 -0.2248 -0.2427
    2MOL   O427 1189   5.431   1.888   2.028 -0.5553 -0.2355 -0.4607
    2MOL   N428 1190   5.541   1.869   2.226  0.3836  0.0483 -0.4808
    2MOL   C429 1191   5.618   1.989   2.212 -0.2807  0.2683  0.2979
    2MOL   C430 1192   5.770   1.967   2.218 -0.0391  0.4936 -0.2003
    2MOL   C431 1193   5.837   2.102   2.237  0.4624 -0.1776  0.0735
    2MOL   C432 1194   5.812   2.213   2.128 -0.7690 -0.6133  0.0856
    2MOL   C433 1195   5.923   2.316   2.148  0.4966  0.3861  0.0439
    2MOL   C434 1196   5.915   2.440   2.053  0.1216  0.0132  0.5001
    2MOL   N435 1197   5.792   2.511   2.062  0.0980 -0.0809 -0.3861
    2MOL   H436 1198   5.656   1.393   1.881 -0.2607  1.8459  1.1829
    2MOL   H437 1199   5.523   1.440   1.799  0.1567  0.4620 -0.6488
    2MOL   H438 1200   5.606   1.484   2.100 -0.1882  1.8884  0.5300
    2MOL   H439 1201   5.628   1.600   1.972 -1.8663  0.9296 -0.5276
    2MOL   H440 1202   5.339   1.509   2.026 -0.0750 -0.4313 -2.4630
    2MOL   H441 1203   5.390   1.646   1.940 -2.3270  2.0276  1.6271
    2MOL   H442 1204   5.459   1.625   2.233  0.9175 -1.1059 -0.5507
    2MOL   H443 1205   5.303   1.677   2.172 -0.4843  0.4918 -1.7990
    2MOL   H444 1206   5.579   1.807   2.296 -0.9105 -1.1458 -0.8104
    2MOL   H445 1207   5.596   2.039   2.117  1.8014  1.1751  0.2762
    2MOL   H446 1208   5.585   2.057   2.290 -1.2274  1.1933 -0.8738
    2MOL   H447 1209   5.802   1.909   2.305  0.6241 -0.7071 -1.2304
    2MOL   H448 1210   5.804   1.913   2.129  0.0410 -1.1579  0.8022
    2MOL   H449 1211   5.945   2.082   2.235  0.4981 -0.0032  0.2542
    2MOL   H450 1212   5.813   2.140   2.336  0.0260  3.0722 -1.2234
    2MOL   H451 1213   5.843   2.158   2.039 -2.5100  1.3269 -1.7693
    2MOL   H452 1214   5.708   2.244   2.140 -0.4297  0.3783  0.5262
    2MOL   H453 1215   5.919   2.361   2.247 -0.3093  1.1302 -0.3232
    2MOL   H454 1216   6.021   2.269   2.136 -0.6213 -2.2344  0.8235
    2MOL   H455 1217   5.927   2.417   1.948 -0.1608 -0.3179  0.5397
    2MOL   H456 1218   5.988   2.516   2.081 -1.3492  0.9477  1.9778
    2MOL   H457 1219   5.721   2.505   1.991  1.1866 -0.8263 -1.4440
    2MOL   C458 1220   5.761   2.583   2.166  0.1172 -0.2294  0.4377
    2MOL   O459 1221   5.826   2.608   2.269  0.0331  0.7608 -0.0812
    2MOL   C460 1222   5.625   2.642   2.153  0.1522  0.2554  0.2757
    2MOL   C461 1223   5.600   2.779   2.211 -0.2576 -0.2039  0.0294
    2MOL   C462 1224   5.466   2.851   2.162 -0.1667  0.3880 -0.1762
    2MOL   C463 1225   5.490   2.953   2.045 -0.0474  0.2007  0.3682
    2MOL   C464 1226   5.537   2.891   1.919  0.4002 -0.5586 -0.7968
    2MOL   O465 1227   5.455   2.851   1.837  0.0353 -0.2571  0.1268
    2MOL   N466 1228   5.665   2.896   1.894 -0.2526 -0.0251 -0.2258
    2MOL   C467 1229   5.729   2.838   1.777 -0.3492  0.3718 -0.1588
    2MOL   C468 1230   5.880   2.836   1.790  0.5482  0.4103  0.0811
    2MOL   C469 1231   5.949   2.800   1.657  1.1971 -0.1311 -0.4947
    2MOL   C470 1232   6.103   2.792   1.677  0.0651 -0.1835 -0.7524
    2MOL   C471 1233   6.172   2.847   1.554 -0.2200 -0.2616 -0.3023
    2MOL   C472 1234   6.322   2.817   1.535 -0.1244 -0.0595  0.3093
    2MOL   N473 1235   6.342   2.677   1.513  0.1881  0.5650  0.0265
    2MOL   H474 1236   5.604   2.636   2.047  0.7235  0.9149  0.1185
    2MOL   H475 1237   5.558   2.569   2.198 -1.1206  0.7034 -0.8720
    2MOL   H476 1238   5.601   2.768   2.320 -2.8265 -1.1539  0.0125
    2MOL   H477 1239   5.684   2.843   2.188 -0.0764  0.0006  1.2106
    2MOL   H478 1240   5.423   2.889   2.254  0.4187 -0.9437  0.6789
    2MOL   H479 1241   5.389   2.775   2.147 -0.8166  1.1341 -0.6149
    2MOL   H480 1242   5.563   3.031   2.069  1.7629 -1.3887  0.1556
    2MOL   H481 1243   5.402   3.009   2.014 -0.9856 -1.3484  0.2070
    2MOL   H482 1244   5.736   2.941   1.950  0.3669  0.5207 -1.4365
    2MOL   H483 1245   5.701   2.733   1.761 -1.5568  0.9896 -2.3601
    2MOL   H484 1246   5.703   2.898   1.690  1.0222  1.9957  0.5226
    2MOL   H485 1247   5.917   2.928   1.836 -0.5005  0.3364  1.0943
    2MOL   H486 1248   5.906   2.768   1.872 -0.3920  0.8719  0.7684
    2MOL   H487 1249   5.924   2.869   1.576  1.2497 -0.5288 -0.8497
    2MOL   H488 1250   5.908   2.703   1.628  0.0699 -0.2166  1.3231
    2MOL   H489 1251   6.130   2.846   1.768  0.8456  1.1791 -1.7691
    2MOL   H490 1252   6.132   2.687   1.685 -2.1941 -0.7175  1.0039
    2MOL   H491 1253   6.106   2.799   1.482 -1.1655 -0.4887  0.7196
    2MOL   H492 1254   6.159   2.954   1.536  1.9631 -0.1691 -1.5208
    2MOL   H493 1255   6.384   2.863   1.612  0.9661  0.1799 -0.7012
    2MOL   H494 1256   6.358   2.866   1.445 -1.6698 -0.5866 -0.6126
    2MOL   H495 1257   6.268   2.628   1.464  0.4875  1.2058 -1.1030
    2MOL   C496 1258   6.442   2.603   1.544 -0.6264 -0.3678 -0.1277
    2MOL   O497 1259   6.544   2.643   1.604  0.1521  0.3466  0.8819
    2MOL   C498 1260   6.426   2.459   1.488 -0.7032  0.2945 -0.6024
    2MOL   C499 1261   6.519   2.358   1.564 -0.5408  0.0520  0.1105
    2MOL   C500 1262   6.497   2.204   1.543  0.0077 -0.1751  0.0872
    2MOL   C501 1263   6.355   2.149   1.574 -0.0116  0.5486  0.3737
    2MOL   C502 1264   6.342   2.162   1.724  0.2952  0.5156 -0.8354
    2MOL   O503 1265   6.391   2.078   1.803 -0.0981 -0.0027  0.4960
    2MOL   N504 1266   6.284   2.271   1.773 -0.8102  0.6735 -0.3505
    2MOL   C505 1267   6.284   2.297   1.915 -0.4750  0.3198 -0.0391
    2MOL   C506 1268   6.396   2.393   1.951  0.2115  0.6305 -0.2717
    2MOL   C507 1269   6.354   2.537   1.934 -0.0654  0.1826 -0.6942
    2MOL   C508 1270   6.466   2.642   1.946 -0.2288  0.0039 -0.4620
    2MOL   C509 1271   6.423   2.782   1.914  0.4867  0.5841  0.2874
    2MOL   C510 1272   6.544   2.875   1.922  0.5086 -0.7011  0.4556
    2MOL   N511 1273   6.638   2.850   1.818  0.6569  0.9382 -0.7343
    2MOL   H512 1274   6.322   2.429   1.498  0.1476 -2.6282 -0.1737
    2MOL   H513 1275   6.457   2.460   1.384  1.0104 -1.6807 -0.1422
    2MOL   H514 1276   6.624   2.387   1.551 -1.2687  2.0142 -1.7123
    2MOL   H515 1277   6.501   2.381   1.669  2.4371  0.9972  0.4857
    2MOL   H516 1278   6.566   2.153   1.609 -0.2187 -0.0927  0.3899
    2MOL   H517 1279   6.514   2.180   1.438 -1.1780 -2.4317  0.3879
    2MOL   H518 1280   6.342   2.043   1.553  0.1161 -0.2221  3.8081
    2MOL   H519 1281   6.286   2.212   1.519  0.3105  1.2309  0.7426
    2MOL   H520 1282   6.233   2.334   1.713 -0.5375  0.5664 -0.7050
    2MOL   H521 1283   6.191   2.347   1.942  0.7250  1.9662  1.1449
    2MOL   H522 1284   6.296   2.200   1.962 -0.1474 -0.9051 -2.5595
    2MOL   H523 1285   6.430   2.377   2.053 -1.6258 -2.1016 -0.0148
    2MOL   H524 1286   6.487   2.379   1.892  0.6217  0.3480  0.4264
    2MOL   H525 1287   6.272   2.561   2.002  0.9401  0.9346  0.2816
    2MOL   H526 1288   6.306   2.549   1.838 -1.0462 -1.0281 -0.3672
    2MOL   H527 1289   6.503   2.647   2.048 -0.2803 -0.6545 -0.4070
    2MOL   H528 1290   6.556   2.618   1.889 -0.1683  0.4237 -0.5454
    2MOL   H529 1291   6.382   2.788   1.813  1.5620 -1.9513 -0.3641
    2MOL   H530 1292   6.345   2.811   1.985 -0.9745 -2.8076  0.1928
    2MOL   H531 1293   6.582   2.871   2.024 -0.4901  1.3800  0.9295
    2MOL   H532 1294   6.509   2.975   1.895  0.8533 -0.5467  0.5758
    2MOL   H533 1295   6.614   2.768   1.764  2.0516 -0.1261  0.2193
    2MOL   C534 1296   6.736   2.931   1.775  0.3725 -0.4442  0.3186
    2MOL   O535 1297   6.776   3.029   1.839  0.2413  0.2557 -0.5987
    2MOL   C536 1298   6.803   2.906   1.643 -0.5020  0.5065  0.6116
    2MOL   C537 1299   6.939   2.825   1.645  0.0632 -0.1292 -0.5956
    2MOL   C538 1300   6.930   2.675   1.641  0.3006 -0.6464  0.1253
    2MOL   C539 1301   6.840   2.606   1.755  0.3616  0.0213 -0.0231
    2MOL   C540 1302   6.848   2.450   1.757 -0.3051 -0.4427 -0.0174
    2MOL   O541 1303   6.927   2.395   1.682 -0.4568 -0.1037 -0.2206
    2MOL   N542 1304   6.768   2.394   1.846 -0.2838 -0.1901 -0.4347
    2MOL   C543 1305   6.752   2.246   1.862  0.2743  0.2425  0.3041
    2MOL   C544 1306   6.745   2.207   2.017 -0.7332 -0.6477 -0.4663
    2MOL   C545 1307   6.705   2.053   2.037 -0.0698 -0.5162 -0.5643
    2MOL   C546 1308   6.693   2.012   2.184 -0.1725  0.2540  0.2008
    2MOL   C547 1309   6.591   2.072   2.272 -0.0388 -0.8846 -0.4142
    2MOL   C548 1310   6.607   2.033   2.426  0.2950 -0.4189  0.1788
    2MOL   N549 1311   6.507   2.081   2.519 -0.0236  0.1796 -0.4969
    2MOL   H550 1312   6.731   2.851   1.582 -1.4219  4.0095 -1.6123
    2MOL   H551 1313   6.817   3.006   1.602  0.9483  0.0732  0.0509
    2MOL   H552 1314   6.995   2.850   1.555 -0.4204  0.2734 -0.7907
    2MOL   H553 1315   6.998   2.853   1.733  0.2520 -0.6932 -0.5433
    2MOL   H554 1316   7.029   2.630   1.639 -1.2716 -4.2385 -0.4041
    2MOL   H555 1317   6.887   2.652   1.543 -2.1317 -0.6958  1.1668
    2MOL   H556 1318   6.735   2.633   1.751 -0.0436 -1.5603 -0.2183
    2MOL   H557 1319   6.880   2.648   1.847 -1.3596  1.7156 -0.0345
    2MOL   H558 1320   6.701   2.452   1.895  0.6829  3.0919 -2.8420
    2MOL   H559 1321   6.666   2.223   1.798  0.7159 -1.0210  0.1637
    2MOL   H560 1322   6.826   2.184   1.813  0.4372  0.2662  0.5225
    2MOL   H561 1323   6.840   2.216   2.070 -0.7483 -1.7014 -0.2499
    2MOL   H562 1324   6.673   2.266   2.074  2.1746  1.0478  1.6375
    2MOL   H563 1325   6.774   1.987   1.985 -2.0969 -1.3879 -2.2410
    2MOL   H564 1326   6.606   2.040   1.993 -1.3079 -0.8499  2.2646
    2MOL   H565 1327   6.676   1.905   2.187  1.2266  0.0327  0.3995
    2MOL   H566 1328   6.793   2.021   2.225  0.2693  0.4083 -0.8821
    2MOL   H567 1329   6.602   2.180   2.262  0.9047 -0.6618  2.5488
    2MOL   H568 1330   6.487   2.055   2.243 -0.8483  0.9481  1.2931
    2MOL   H569 1331   6.707   2.063   2.458 -0.6102  0.4653  2.2833
    2MOL   H570 1332   6.614   1.925   2.439 -1.1196 -0.5808 -0.3440
    2MOL   H571 1333   6.456   2.163   2.489 -0.8529 -0.7411 -1.6528
    2MOL   C572 1334   6.482   2.026   2.638 -0.6276  0.0024  0.0935
    2MOL   O573 1335   6.531   1.919   2.674  0.2660 -0.2654  0.3720
    2MOL   C574 1336   6.373   2.095   2.724 -0.0536  0.1378  0.2744
    2MOL   C575 1337   6.367   2.047   2.870 -0.5100 -0.2044  0.0352
    2MOL   C576 1338   6.298   1.909   2.881 -0.0806  0.2970 -0.2865
    2MOL   C577 1339   6.146   1.921   2.889  0.9791  0.5239 -0.1218
    2MOL   C578 1340   6.062   1.791   2.900  0.7805  0.1469 -0.0970
    2MOL   O579 1341   6.109   1.683   2.879  0.4316  0.2826  0.0942
    2MOL   N580 1342   5.937   1.805   2.939 -0.0917 -0.6397  0.1462
    2MOL   C581 1343   5.836   1.695   2.939 -0.3002  0.8202 -0.4849
    2MOL   C582 1344   5.851   1.604   3.063  0.5463  0.2642  0.3681
    2MOL   C583 1345   5.779   1.473   3.057  0.5108  0.7627 -0.9008
    2MOL   C584 1346   5.762   1.403   3.196 -0.3871 -0.2776 -0.1906
    2MOL   C585 1347   5.687   1.272   3.182  0.5532 -0.0749  0.3622
    2MOL   C586 1348   5.763   1.154   3.121 -0.1653  0.1137  0.4994
    2MOL   N587 1349   5.901   1.135   3.166 -0.5284  0.0223 -0.6058
    2MOL   H588 1350   6.388   2.202   2.734  0.5238 -0.0563  1.5613
    2MOL   H589 1351   6.276   2.084   2.675 -0.5707  2.5658  0.7116
    2MOL   H590 1352   6.470   2.040   2.904  0.5301 -1.3722 -3.1719
    2MOL   H591 1353   6.331   2.128   2.933  0.6000 -1.3614  2.1996
    2MOL   H592 1354   6.333   1.856   2.970  0.8717  0.9425 -0.2643
    2MOL   H593 1355   6.329   1.841   2.802 -2.4732 -2.1210  0.7956
    2MOL   H594 1356   6.107   1.971   2.800 -0.9206  0.6979  0.7839
    2MOL   H595 1357   6.130   1.979   2.980 -0.5937  0.5396 -0.3935
    2MOL   H596 1358   5.896   1.896   2.952  1.3984  0.2789 -1.4303
    2MOL   H597 1359   5.736   1.739   2.934 -0.6542  0.1562  0.4064
    2MOL   H598 1360   5.852   1.634   2.850 -0.6957 -0.7136  0.4581
    2MOL   H599 1361   5.956   1.591   3.090  1.1800 -0.9459 -2.5492
    2MOL   H600 1362   5.801   1.666   3.138  0.2232 -1.2908  1.4698
    2MOL   H601 1363   5.819   1.410   2.978 -0.0215  0.5224 -0.9841
    2MOL   H602 1364   5.677   1.482   3.020 -0.6566 -1.3425  1.5846
    2MOL   H603 1365   5.856   1.372   3.241 -0.4219 -0.8002 -0.4646
    2MOL   H604 1366   5.707   1.466   3.265  0.5026  0.7303 -0.3930
    2MOL   H605 1367   5.664   1.235   3.282 -0.8443  0.9530  0.4358
    2MOL   H606 1368   5.589   1.292   3.140  0.0934 -0.6604  1.1333
    2MOL   H607 1369   5.766   1.163   3.013  0.1610 -1.5022  0.3574
    2MOL   H608 1370   5.699   1.067   3.139 -1.4304  0.6329 -1.3473
    2MOL   H609 1371   5.968   1.157   3.094  0.4949 -1.9218 -0.3034
    2MOL   C610 1372   5.948   1.075   3.277  0.6840  0.7213 -0.3078
    2MOL   O611 1373   5.871   1.013   3.349 -0.1706  0.0189  0.2467
    2MOL   C612 1374   6.099   1.085   3.294 -0.4668  0.2650  0.3470
    2MOL   C613 1375   6.145   1.004   3.417 -0.5711 -0.0532  0.1787
    2MOL   C614 1376   6.296   1.008   3.435  0.4500  0.6033  0.1890
    2MOL   C615 1377   6.349   0.961   3.579  0.4030  0.0841  0.7009
    2MOL   C616 1378   6.320   1.067   3.689  0.0905 -0.3787 -0.0166
    2MOL   O617 1379   6.225   1.039   3.762  0.1226  0.3964 -0.1941
    2MOL   N618 1380   6.401   1.174   3.709  0.5259 -0.7037  0.2054
    2MOL   C619 1381   6.389   1.285   3.811  0.2545 -0.7083  0.0687
    2MOL   C620 1382   6.427   1.227   3.952  0.1378 -0.3225  0.5474
    2MOL   C621 1383   6.426   1.320   4.072 -0.2430 -0.1884  0.8462
    2MOL   C622 1384   6.466   1.255   4.206  0.2175 -0.3447 -0.5144
    2MOL   C623 1385   6.492   1.359   4.320  0.8208 -0.1403  0.5452
    2MOL   C624 1386   6.509   1.290   4.457 -0.5234  0.7369 -0.0932
    2MOL   N625 1387   6.559   1.384   4.556 -0.8606 -0.0876 -0.3040
    2MOL   H626 1388   6.140   1.053   3.199 -0.0871  1.5135  0.0707
    2MOL   H627 1389   6.122   1.192   3.297 -0.3706  0.2230  1.4956
    2MOL   H628 1390   6.101   1.038   3.511  0.2197  0.9233  0.2083
    2MOL   H629 1391   6.130   0.897   3.403  0.4869 -0.3192  1.0033
    2MOL   H630 1392   6.315   1.114   3.422  1.0879  0.7573  2.2810
    2MOL   H631 1393   6.356   0.960   3.358 -0.9029  0.4646 -0.8035
    2MOL   H632 1394   6.456   0.941   3.586  0.7458  1.8740  0.9477
    2MOL   H633 1395   6.299   0.867   3.599 -2.6829  1.4977 -0.0537
    2MOL   H634 1396   6.466   1.198   3.635  0.1234 -1.9175 -0.5595
    2MOL   H635 1397   6.443   1.376   3.787  0.6721 -0.5340  1.5945
    2MOL   H636 1398   6.285   1.316   3.819  0.6710  1.0490 -1.1196
    2MOL   H637 1399   6.355   1.147   3.969  0.1036 -0.6649 -1.1297
    2MOL   H638 1400   6.519   1.168   3.943 -0.4573 -1.2931  0.7261
    2MOL   H639 1401   6.322   1.353   4.076 -0.9258 -2.3959  2.2900
    2MOL   H640 1402   6.483   1.410   4.051 -0.6273 -0.5040 -1.6185
    2MOL   H641 1403   6.381   1.194   4.232  0.4285 -1.0933 -1.5653
    2MOL   H642 1404   6.543   1.179   4.194 -0.3215 -1.3781  2.2178
    2MOL   H643 1405   6.581   1.417   4.295  0.9975  0.3065  2.1821
    2MOL   H644 1406   6.407   1.428   4.320  0.4585 -0.5840  0.8163
    2MOL   H645 1407   6.575   1.204   4.453 -1.7760 -0.3190  1.3728
    2MOL   H646 1408   6.420   1.241   4.497 -2.4588  3.1888 -1.2449
    2MOL   H647 1409   6.633   1.448   4.529 -1.3395  0.7781  0.4090
    2MOL   C648 1410   6.558   1.353   4.684  0.9107 -0.3829  0.1124
    2MOL   O649 1411   6.506   1.250   4.732 -0.0531  0.1595  0.0059
    2MOL   C650 1412   6.637   1.438   4.784 -0.4927  0.5824 -0.1857
    2MOL   C651 1413   6.729   1.354   4.876  0.1723 -0.0283 -0.2986
    2MOL   C652 1414   6.791   1.427   4.993  0.8076  0.6783  0.0723
    2MOL   C653 1415   6.866   1.332   5.082  0.4861 -1.2732  0.1074
    2MOL   C654 1416   6.941   1.401   5.202 -0.5240 -0.1495  0.1885
    2MOL   O655 1417   6.934   1.346   5.313  0.1095  0.0292 -0.3937
    2MOL   N656 1418   7.022   1.506   5.181  0.0621  0.0060 -0.0553
    2MOL   C657 1419   7.125   1.547   5.277  0.9003  0.7334  0.2432
    2MOL   C658 1420   7.188   1.668   5.218  0.0235 -0.4990  0.5615
    2MOL   C659 1421   7.302   1.729   5.302 -0.8553 -0.3383  0.2196
    2MOL   C660 1422   7.365   1.843   5.225 -0.2095 -0.0154 -0.2521
    2MOL   C661 1423   7.472   1.936   5.304  0.2156  0.1218 -0.1548
    2MOL   C662 1424   7.606   1.864   5.328 -1.3406  1.0274 -0.5681
    2MOL   N663 1425   7.691   1.852   5.208 -0.3113 -0.0163  0.2322
    2MOL   H664 1426   6.705   1.502   4.728  0.4367  1.1298  1.5430
    2MOL   H665 1427   6.576   1.497   4.853  0.2275  0.0852  0.8741
    2MOL   H666 1428   6.680   1.267   4.918  3.9281 -1.4051  1.4580
    2MOL   H667 1429   6.808   1.322   4.808 -2.3996 -0.3569 -3.1985
    2MOL   H668 1430   6.709   1.469   5.051 -1.1683 -0.7423 -1.5878
    2MOL   H669 1431   6.844   1.515   4.957  2.6830 -0.4225  0.0436
    2MOL   H670 1432   6.950   1.288   5.029  0.8843 -0.2033 -0.1558
    2MOL   H671 1433   6.803   1.249   5.116 -1.3359 -0.3376 -0.8735
    2MOL   H672 1434   7.033   1.544   5.088  3.6547  1.9487  1.0433
    2MOL   H673 1435   7.074   1.578   5.369 -0.4953  1.5924 -0.7978
    2MOL   H674 1436   7.201   1.471   5.296  1.0476  0.1022 -2.6412
    2MOL   H675 1437   7.227   1.640   5.120  1.3826 -0.6205  1.1298
    2MOL   H676 1438   7.118   1.751   5.209  0.9373  0.3600  1.1918
    2MOL   H677 1439   7.385   1.659   5.315  1.3845  2.2703  0.3607
    2MOL   H678 1440   7.271   1.755   5.403  0.4126 -0.1010  0.5531
    2MOL   H679 1441   7.398   1.799   5.131  1.8685  2.0591 -0.5197
    2MOL   H680 1442   7.292   1.914   5.186 -1.9991 -1.7655 -0.1617
    2MOL   H681 1443   7.503   2.028   5.253  0.8608  0.3426  0.6179
    2MOL   H682 1444   7.429   1.963   5.401  3.4212 -0.3163  1.4647
    2MOL   H683 1445   7.587   1.775   5.388  0.3120 -0.8144 -2.6815
    2MOL   H684 1446   7.669   1.919   5.398  0.5970 -0.0900 -1.3974
    2MOL   H685 1447   7.656   1.849   5.113  0.4646  1.4139 -0.1226
    2MOL   C686 1448   0.109   1.811   5.224  0.2163 -0.2272  0.2006
    2MOL   O687 1449   0.155   1.795   5.334  0.5164  0.1444 -0.0228
    2MOL   C688 1450   0.203   1.798   5.103  0.1072 -0.7424  0.2153
    2MOL   C689 1451   0.345   1.732   5.127  0.4139  1.4858  0.2116
    2MOL   C690 1452   0.445   1.825   5.209  0.0037 -0.0548  0.0939
    2MOL   C691 1453   0.590   1.781   5.209 -0.6672 -0.3742  0.1846
    2MOL   C692 1454   0.664   1.792   5.081  0.7000  0.1848  0.5515
    2MOL   O693 1455   0.688   1.901   5.041  0.3890  0.2956  0.1104
    2MOL   N694 1456   0.711   1.680   5.028 -0.3634 -0.6588  0.8721
    2MOL   C695 1457   0.800   1.688   4.915  0.0287  0.1591  0.0774
    2MOL   C696 1458   0.842   1.546   4.883  0.6283 -0.2625  0.1349
    2MOL   C697 1459   0.921   1.541   4.751 -0.4828 -0.3879 -0.3990
    2MOL   C698 1460   0.952   1.394   4.727 -0.6837 -0.5220 -0.6886
    2MOL   C699 1461   1.034   1.370   4.602  0.7954  0.3305  0.9030
    2MOL   C700 1462   1.026   1.233   4.536 -0.8144 -0.2165  0.3105
    2MOL   N701 1463   1.150   1.217   4.465 -0.6701  0.0033 -0.0954
    2MOL   H702 1464   0.143   1.753   5.024 -1.1584  1.0243  0.1446
    2MOL   H703 1465   0.215   1.900   5.068 -0.3528 -0.6467  0.3321
    2MOL   H704 1466   0.335   1.629   5.160 -0.5981  0.9374 -1.7066
    2MOL   H705 1467   0.392   1.719   5.029 -1.1478 -1.0488 -0.2527
    2MOL   H706 1468   0.421   1.845   5.314 -0.1759 -0.5531  0.1497
    2MOL   H707 1469   0.437   1.931   5.184  1.7104  0.7992  2.8185
    2MOL   H708 1470   0.601   1.683   5.256  1.2513 -0.8911 -1.3035
    2MOL   H709 1471   0.653   1.840   5.276  0.8420 -3.2456  1.4075
    2MOL   H710 1472   0.690   1.591   5.071 -3.1124  0.0186  1.0481
    2MOL   H711 1473   0.744   1.727   4.830  1.0456  2.0391  0.2536
    2MOL   H712 1474   0.887   1.749   4.940 -1.4893  2.5529 -0.3020
    2MOL   H713 1475   0.888   1.495   4.968 -1.5575  0.3260  1.7101
    2MOL   H714 1476   0.750   1.487   4.880 -0.7519  1.8112  0.8100
    2MOL   H715 1477   1.009   1.603   4.769 -0.6438  0.2208 -1.6202
    2MOL   H716 1478   0.867   1.579   4.664  1.0656  1.9002 -0.4265
    2MOL   H717 1479   1.007   1.354   4.811 -0.9147  1.2381  0.3232
    2MOL   H718 1480   0.857   1.339   4.727 -0.1922 -1.3973  1.0679
    2MOL   H719 1481   0.999   1.455   4.543  0.8216  0.8050  1.5694
    2MOL   H720 1482   1.130   1.406   4.639  0.1052  2.0052  1.1342
    2MOL   H721 1483   0.936   1.232   4.474  0.2557 -0.3960 -1.2774
    2MOL   H722 1484   1.006   1.154   4.608  0.1722  0.2786  1.1243
    2MOL   H723 1485   1.227   1.187   4.522 -2.6102 -0.7177  2.2648
    2MOL   C724 1486   1.179   1.258   4.343 -0.1613 -0.0556  1.0854
    2MOL   O725 1487   1.101   1.311   4.265 -0.2319  0.4667 -0.2059
    2MOL   C726 1488   1.320   1.232   4.299 -0.5292  0.3546 -0.5589
    2MOL   C727 1489   1.366   1.311   4.170  0.1677 -0.3893 -0.6200
    2MOL   C728 1490   1.515   1.278   4.131  0.3307  0.2016 -0.7009
    2MOL   C729 1491   1.568   1.354   4.007 -0.4971  0.0028 -0.4931
    2MOL   C730 1492   1.572   1.504   4.036  0.0607 -0.0700 -0.2654
    2MOL   O731 1493   1.629   1.545   4.140 -0.0013 -0.4948  0.0354
    2MOL   N732 1494   1.500   1.575   3.944  0.0933  0.1102  0.0961
    2MOL   C733 1495   1.488   1.725   3.952 -0.3922  0.6035 -0.2024
    2MOL   C734 1496   1.584   1.807   3.851  0.1870 -0.4443  0.0829
    2MOL   C735 1497   1.573   1.960   3.870 -0.0070  0.1206 -0.0285
    2MOL   C736 1498   1.664   2.052   3.783 -0.4145  0.4944  0.8049
    2MOL   C737 1499   1.637   2.203   3.807  0.3503 -0.7540  0.0719
    2MOL   C738 1500   1.757   2.287   3.759  0.5570  0.1797  0.4105
    2MOL   N739 1501   1.855   2.277   3.866  0.0640  0.9790  0.6291
    2MOL   H740 1502   1.383   1.273   4.378  1.2297 -0.7634 -1.3394
    2MOL   H741 1503   1.338   1.125   4.288  1.7064  0.7696 -1.3051
    2MOL   H742 1504   1.302   1.288   4.085  0.0333  0.0733 -0.6493
    2MOL   H743 1505   1.366   1.416   4.202 -1.9415 -0.6372  0.2750
    2MOL   H744 1506   1.533   1.171   4.125  3.0931  0.3326  3.2741
    2MOL   H745 1507   1.567   1.300   4.225 -1.8625  0.7012  0.4354
    2MOL   H746 1508   1.499   1.344   3.923  0.4644 -0.5991 -1.2192
    2MOL   H747 1509   1.656   1.302   3.971  0.4268  2.0798 -1.3149
    2MOL   H748 1510   1.450   1.525   3.873 -1.8564  2.3775 -0.1741
    2MOL   H749 1511   1.382   1.751   3.942 -1.0632 -2.1055 -0.6862
    2MOL   H750 1512   1.522   1.754   4.051 -0.3750 -0.6751  0.1828
    2MOL   H751 1513   1.687   1.777   3.868  0.5141  0.6803  0.0573
    2MOL   H752 1514   1.568   1.777   3.747 -0.6934 -0.5990  0.2506
    2MOL   H753 1515   1.587   1.997   3.971  0.7076 -0.4910  0.1020
    2MOL   H754 1516   1.467   1.978   3.853  0.3446  2.2601 -0.0618
    2MOL   H755 1517   1.766   2.032   3.816 -0.1429 -1.2616 -0.9784
    2MOL   H756 1518   1.662   2.026   3.677  1.6103 -0.0793  0.8935
    2MOL   H757 1519   1.547   2.227   3.752 -0.1770  1.5852  1.8705
    2MOL   H758 1520   1.610   2.219   3.912  0.3459 -2.0275  0.2771
    2MOL   H759 1521   1.725   2.390   3.745 -1.2442 -0.3073  0.8554
    2MOL   H760 1522   1.786   2.259   3.658  1.6041  0.5238  0.6098
    2MOL   H761 1523   1.897   2.367   3.883  2.2396  0.4501 -1.6699
    2MOL   H762 1524   1.811   2.248   3.952  1.7601 -3.1802  0.2336
    3MOL     C1 1525   2.174   3.737   4.748  0.0219 -0.3044  0.2536
    3MOL     O2 1526   2.177   3.857   4.780  0.2665 -0.2836  0.1331
    3MOL     C3 1527   2.255   3.632   4.832 -0.3378  0.5663  0.5081
    3MOL     C4 1528   2.173   3.579   4.952  0.3786 -0.0734  0.0559
    3MOL     C5 1529   2.252   3.497   5.056 -0.1177  0.3147  0.1232
    3MOL     C6 1530   2.288   3.357   4.999  0.5142 -0.2729  0.1825
    3MOL     C7 1531   2.346   3.258   5.099 -0.2624  1.3112  0.2054
    3MOL     O8 1532   2.280   3.216   5.194 -0.1316 -0.4381 -0.1276
    3MOL     N9 1533   2.477   3.231   5.088 -0.8486  0.2988 -0.6072
    3MOL    C10 1534   2.554   3.139   5.175  0.3018 -0.0398  0.6562
    3MOL    C11 1535   2.653   3.221   5.247 -0.4499 -0.5860  0.0096
    3MOL    C12 1536   2.760   3.138   5.329 -0.2252  0.2695 -0.2142
    3MOL    C13 1537   2.697   3.055   5.445  0.4678  0.1398 -0.1185
    3MOL    C14 1538   2.790   3.030   5.567  0.5926  0.6403  0.5992
    3MOL    C15 1539   2.729   2.930   5.663  0.2224  0.0026  0.5305
    3MOL    N16 1540   2.814   2.913   5.783 -0.0881 -0.0312 -0.8982
    3MOL    H17 1541   2.287   3.553   4.764  2.3765  0.8761  1.3521
    3MOL    H18 1542   2.345   3.690   4.856 -0.7832  1.3807  0.2102
    3MOL    H19 1543   2.130   3.664   5.005 -3.5323 -1.2879 -0.9970
    3MOL    H20 1544   2.098   3.520   4.899 -0.8674  2.0330 -0.6323
    3MOL    H21 1545   2.195   3.499   5.149 -1.4853 -1.2164 -0.6604
    3MOL    H22 1546   2.348   3.545   5.079 -1.4416  2.3025  1.7087
    3MOL    H23 1547   2.355   3.373   4.914 -1.4405  0.3469 -1.2537
    3MOL    H24 1548   2.198   3.304   4.970  0.0611 -0.3447  1.6856
    3MOL    H25 1549   2.534   3.267   5.013  0.4086 -1.5283 -0.5638
    3MOL    H26 1550   2.483   3.079   5.232  0.0539 -2.7371 -2.2979
    3MOL    H27 1551   2.603   3.062   5.114 -0.7628 -1.5473  1.6573
    3MOL    H28 1552   2.698   3.277   5.165 -4.6657 -0.1070 -2.1142
    3MOL    H29 1553   2.607   3.290   5.317 -1.8683 -0.3217 -1.1503
    3MOL    H30 1554   2.823   3.209   5.382 -0.8785 -0.0553  1.0018
    3MOL    H31 1555   2.824   3.082   5.261  0.0694  0.0953  0.2066
    3MOL    H32 1556   2.615   3.110   5.492  1.7084  0.9898  1.1076
    3MOL    H33 1557   2.670   2.955   5.410  0.0022  0.3934 -0.4917
    3MOL    H34 1558   2.890   2.994   5.544 -0.0291  1.6047 -3.9379
    3MOL    H35 1559   2.801   3.122   5.625  2.0449 -0.7682  2.6545
    3MOL    H36 1560   2.712   2.830   5.623  0.2644 -0.1540  0.9001
    3MOL    H37 1561   2.630   2.959   5.698  0.7948  0.3439  1.8892
    3MOL    H38 1562   2.904   2.870   5.769  0.2699  0.3436  0.1580
    3MOL    H39 1563   2.124   3.702   4.658  1.1822 -0.8304 -0.2075
    3MOL    C40 1564   2.791   2.952   5.907  0.3557  1.0369  0.0819
    3MOL    O41 1565   2.692   3.015   5.938 -0.4258  0.2607  0.0959
    3MOL    C42 1566   2.881   2.907   6.013 -0.5857 -0.7742  0.7527
    3MOL    C43 1567   2.904   2.995   6.140 -0.6585 -0.4202  0.5549
    3MOL    C44 1568   2.783   3.005   6.238 -0.2691 -0.4859  0.4770
    3MOL    C45 1569   2.823   3.069   6.377  0.4248 -0.3216 -0.1248
    3MOL    C46 1570   2.720   3.037   6.488  0.5860 -0.6926  0.1382
    3MOL    O47 1571   2.711   2.925   6.537  0.2511  0.6257 -0.0474
    3MOL    N48 1572   2.661   3.139   6.537  0.0064 -0.7534 -0.3355
    3MOL    C49 1573   2.569   3.126   6.649  0.5302  0.9040 -0.2319
    3MOL    C50 1574   2.437   3.200   6.627 -0.4710  0.3910 -0.8254
    3MOL    C51 1575   2.338   3.188   6.745 -0.1801 -0.1716  0.6949
    3MOL    C52 1576   2.208   3.273   6.739 -0.1375 -0.3887 -0.0047
    3MOL    C53 1577   2.212   3.410   6.791 -0.0201 -0.9014 -0.5901
    3MOL    C54 1578   2.214   3.424   6.944 -0.1156  0.2600 -0.5700
    3MOL    N55 1579   2.184   3.558   6.986 -0.6554 -0.0368 -1.1945
    3MOL    H56 1580   2.855   2.808   6.051  2.0569 -1.9752 -0.4548
    3MOL    H57 1581   2.979   2.887   5.969 -1.2905  0.2160 -1.3034
    3MOL    H58 1582   2.986   2.948   6.195 -0.6067  1.1712  1.8731
    3MOL    H59 1583   2.938   3.089   6.097  2.8597 -1.7875  0.1682
    3MOL    H60 1584   2.748   2.904   6.260 -2.0820 -0.2838 -1.4210
    3MOL    H61 1585   2.696   3.057   6.199  0.5249  1.1405  0.7963
    3MOL    H62 1586   2.827   3.176   6.360  1.9889 -0.0602  1.6684
    3MOL    H63 1587   2.923   3.036   6.406  0.2099 -1.0467 -0.1927
    3MOL    H64 1588   2.674   3.226   6.489 -1.6240 -0.5871 -0.4816
    3MOL    H65 1589   2.554   3.023   6.680 -0.2715  0.9781 -0.3582
    3MOL    H66 1590   2.626   3.174   6.729  0.1426 -0.9985  1.2203
    3MOL    H67 1591   2.444   3.307   6.606  1.3158  0.3764 -0.3763
    3MOL    H68 1592   2.388   3.175   6.534  1.1412  3.1408 -2.4954
    3MOL    H69 1593   2.374   3.182   6.848  2.0246 -2.8343 -0.1452
    3MOL    H70 1594   2.304   3.084   6.740  1.8963 -0.9777  2.3818
    3MOL    H71 1595   2.188   3.268   6.632 -0.9980 -0.0490  0.1350
    3MOL    H72 1596   2.126   3.217   6.785 -0.4969  0.3911  0.3040
    3MOL    H73 1597   2.298   3.461   6.746 -0.6718  0.3047 -0.5038
    3MOL    H74 1598   2.128   3.461   6.744 -0.1842 -1.1401 -0.5536
    3MOL    H75 1599   2.302   3.386   6.995 -0.0584  0.9460 -0.1507
    3MOL    H76 1600   2.134   3.359   6.980  1.9959 -1.3820  1.2749
    3MOL    H77 1601   2.191   3.627   6.913  1.6086  0.5397 -0.4753
    3MOL    C78 1602   2.149   3.596   7.111 -0.8020 -0.9970  0.5988
    3MOL    O79 1603   2.135   3.513   7.200  0.7307  0.1001  0.0624
    3MOL    C80 1604   2.129   3.741   7.130  0.1783 -0.8805  0.7573
    3MOL    C81 1605   2.155   3.782   7.280 -0.2438  0.1866 -0.4501
    3MOL    C82 1606   2.108   3.925   7.328  0.3671 -0.0780 -0.2151
    3MOL    C83 1607   2.139   3.938   7.479 -0.6630  0.1436  0.3198
    3MOL    C84 1608   2.088   4.067   7.537 -0.3147  0.8951  0.6776
    3MOL    O85 1609   2.057   4.157   7.459  0.1275 -0.2558 -0.2543
    3MOL    N86 1610   2.068   4.069   7.667  0.3310  0.3933 -0.4574
    3MOL    C87 1611   2.020   4.188   0.025 -0.5220 -0.3664 -0.0885
    3MOL    C88 1612   1.868   4.188   0.056  0.1217  0.2396  0.5001
    3MOL    C89 1613   1.828   4.296   0.164 -0.6067  0.6415 -0.6288
    3MOL    C90 1614   1.679   4.336   0.155 -0.0244 -0.7346 -0.4131
    3MOL    C91 1615   1.580   4.232   0.197  0.5540  0.0497 -1.2144
    3MOL    C92 1616   1.440   4.297   0.196  0.2947  0.8302 -0.6782
    3MOL    N93 1617   1.341   4.209   0.257  0.3634  0.5962  0.2112
    3MOL    H94 1618   2.187   3.806   7.064  0.0281  1.4284  2.8381
    3MOL    H95 1619   2.024   3.754   7.105  0.2780  1.7506  1.5746
    3MOL    H96 1620   2.086   3.722   7.338 -0.1266  1.3157  0.8826
    3MOL    H97 1621   2.256   3.760   7.315 -0.9534 -2.7561 -0.1968
    3MOL    H98 1622   2.003   3.943   7.309  0.3239  0.2548  0.3275
    3MOL    H99 1623   2.157   4.009   7.280  1.6715 -0.9809 -0.5037
    3MOL   H100 1624   2.246   3.935   7.502 -0.4801 -1.2935 -0.6639
    3MOL   H101 1625   2.087   3.857   7.530 -0.3822 -0.2773 -0.0594
    3MOL   H102 1626   2.083   3.989   0.018  0.7929  0.0652 -1.0146
    3MOL   H103 1627   2.077   4.197   0.117  1.0295 -1.0444 -0.9695
    3MOL   H104 1628   2.049   4.280   7.682 -0.4279 -0.6056 -0.4734
    3MOL   H105 1629   1.823   4.224   7.671  0.8655  1.4514  0.5920
    3MOL   H106 1630   1.836   4.089   0.088  2.0441 -0.7797 -0.6521
    3MOL   H107 1631   1.886   4.387   0.147 -3.1097  2.7218  1.6997
    3MOL   H108 1632   1.859   4.271   0.266 -0.3046 -1.4097 -1.1888
    3MOL   H109 1633   1.662   4.409   0.234  0.4679 -0.0118 -0.9816
    3MOL   H110 1634   1.679   4.389   0.061  1.3513 -0.6126 -0.3531
    3MOL   H111 1635   1.591   4.143   0.135  0.6145 -2.3617  2.1102
    3MOL   H112 1636   1.607   4.200   0.298 -2.5200 -2.0153 -0.9594
    3MOL   H113 1637   1.405   4.301   0.093 -0.3331 -1.0544 -0.5557
    3MOL   H114 1638   1.433   4.398   0.237  0.2655 -0.2135  2.0132
    3MOL   H115 1639   1.325   4.213   0.357 -1.2710  0.7516 -0.0457
    3MOL   C116 1640   1.277   4.111   0.188  0.2592 -1.0219 -0.5533
    3MOL   O117 1641   1.297   4.079   0.069  0.0496  0.8211 -0.1588
    3MOL   C118 1642   1.183   4.026   0.276 -0.0286 -0.6780  0.3960
    3MOL   C119 1643   1.033   4.031   0.220  0.8551  0.4077  0.3296
    3MOL   C120 1644   0.955   4.161   0.227 -0.3878 -0.6143 -0.2786
    3MOL   C121 1645   0.829   4.176   0.146 -0.2351  0.0292  1.1370
    3MOL   C122 1646   0.704   4.132   0.220 -0.0012  0.0643  0.2117
    3MOL   O123 1647   0.647   4.210   0.298 -0.1101 -0.1599  0.3901
    3MOL   N124 1648   0.663   4.010   0.205 -0.1766 -0.8115 -0.0944
    3MOL   C125 1649   0.570   3.947   0.291  0.0997 -0.6017  0.6970
    3MOL   C126 1650   0.499   3.838   0.206  0.0207 -0.4387  0.5287
    3MOL   C127 1651   0.581   3.729   0.138 -0.3136 -0.3312 -0.3332
    3MOL   C128 1652   0.702   3.676   0.226  0.4926 -0.4958  0.6611
    3MOL   C129 1653   0.778   3.564   0.164 -0.0130 -0.5246 -0.5024
    3MOL   C130 1654   0.874   3.499   0.270 -0.0061 -0.4277  0.2442
    3MOL   N131 1655   0.956   3.388   0.223  0.2599 -0.4230  0.1547
    3MOL   H132 1656   1.230   3.930   0.255  3.4367  1.0840 -0.4618
    3MOL   H133 1657   1.185   4.062   0.379  1.3313 -0.0450  0.1699
    3MOL   H134 1658   1.053   4.008   0.115  1.3421 -1.9664  0.9240
    3MOL   H135 1659   0.963   3.961   0.264 -0.3276  1.3883  0.0323
    3MOL   H136 1660   1.023   4.242   0.203 -1.4257  0.3998  0.1397
    3MOL   H137 1661   0.930   4.192   0.328 -3.5442  0.4864 -1.3236
    3MOL   H138 1662   0.838   4.133   0.046 -1.4782 -3.8407  2.5877
    3MOL   H139 1663   0.814   4.281   0.119  1.2364 -0.5793 -2.3922
    3MOL   H140 1664   0.726   3.954   0.149  1.0443 -1.1133  1.5290
    3MOL   H141 1665   0.616   3.908   0.382  3.0069 -3.6963 -1.9380
    3MOL   H142 1666   0.491   4.009   0.332  1.5447  1.4014  0.5237
    3MOL   H143 1667   0.419   3.792   0.265 -2.4406  0.6563 -1.8395
    3MOL   H144 1668   0.444   3.895   0.131  1.9887  1.1652  0.2726
    3MOL   H145 1669   0.616   3.763   0.041 -1.5986  1.3366 -0.2441
    3MOL   H146 1670   0.511   3.645   0.132 -0.2750 -0.4086  0.2741
    3MOL   H147 1671   0.777   3.754   0.243  0.9216 -1.4429  3.4159
    3MOL   H148 1672   0.667   3.645   0.325 -1.2592  2.0155  0.8663
    3MOL   H149 1673   0.710   3.482   0.141 -0.2611 -0.2874 -0.6083
    3MOL   H150 1674   0.832   3.592   0.074  0.8185 -1.1441 -0.2091
    3MOL   H151 1675   0.820   3.463   0.358 -0.0230 -2.6191 -0.6323
    3MOL   H152 1676   0.930   3.585   0.306  0.0177  0.0680 -0.9535
    3MOL   H153 1677   0.918   3.296   0.238 -0.7679  0.1205  0.8973
    3MOL   C154 1678   1.094   3.388   0.218 -0.1300  0.8211  1.0416
    3MOL   O155 1679   1.154   3.493   0.235 -0.2778  0.2611 -0.1333
    3MOL   C156 1680   1.161   3.256   0.177  0.1373  0.3883 -0.2815
    3MOL   C157 1681   1.295   3.280   0.101  0.2326  0.0241 -0.4478
    3MOL   C158 1682   1.274   3.330   7.661  0.1724  0.8837 -0.1257
    3MOL   C159 1683   1.402   3.332   7.571  0.0089 -0.7881 -0.5786
    3MOL   C160 1684   1.359   3.358   7.434 -0.4171 -0.0573 -0.0725
    3MOL   O161 1685   1.327   3.468   7.396 -0.3291  0.1002 -0.4345
    3MOL   N162 1686   1.341   3.252   7.358 -0.5827 -0.1043 -0.5809
    3MOL   C163 1687   1.284   3.247   7.226  0.0613  0.4531  1.2140
    3MOL   C164 1688   1.391   3.246   7.110 -0.7689  0.4944 -0.1314
    3MOL   C165 1689   1.344   3.210   6.967  0.1280 -0.4590 -0.1603
    3MOL   C166 1690   1.430   3.256   6.847 -0.5441  0.6697  0.0193
    3MOL   C167 1691   1.365   3.204   6.714 -0.2952 -0.0323  0.1165
    3MOL   C168 1692   1.241   3.279   6.663  0.0774 -0.3541 -0.1378
    3MOL   N169 1693   1.273   3.409   6.599  0.2611  0.7425 -0.9964
    3MOL   H170 1694   1.176   3.203   0.271 -0.8949 -0.3689 -0.5390
    3MOL   H171 1695   1.101   3.183   0.123 -1.3649  1.7217 -0.4362
    3MOL   H172 1696   1.354   3.353   0.156  0.9469 -0.6003 -0.3705
    3MOL   H173 1697   1.352   3.187   0.105  1.4266  0.7631  0.0885
    3MOL   H174 1698   1.227   3.428   7.667 -1.4260  0.1938 -1.0806
    3MOL   H175 1699   1.197   3.268   7.615 -2.0198  2.2237  1.6611
    3MOL   H176 1700   1.463   3.242   7.570  0.0946 -0.7332 -0.3452
    3MOL   H177 1701   1.473   3.403   7.613 -0.4500  0.7109 -2.2669
    3MOL   H178 1702   1.344   3.168   7.413  1.7206  0.6830  0.5450
    3MOL   H179 1703   1.219   3.160   7.217 -0.2327  0.7329  0.6014
    3MOL   H180 1704   1.214   3.324   7.195  0.0348 -0.2468 -0.5519
    3MOL   H181 1705   1.436   3.345   7.112 -0.9392  0.5887 -0.7630
    3MOL   H182 1706   1.467   3.171   7.132 -2.1488 -0.1539  2.6312
    3MOL   H183 1707   1.246   3.253   6.949 -0.3446 -0.6225  1.8806
    3MOL   H184 1708   1.325   3.103   6.958 -0.3660 -0.4199  0.4284
    3MOL   H185 1709   1.449   3.364   6.850  1.3966  0.4015 -1.2324
    3MOL   H186 1710   1.530   3.217   6.868 -0.0759  2.9478  2.3273
    3MOL   H187 1711   1.448   3.218   6.644  0.0555 -0.7207  0.3833
    3MOL   H188 1712   1.341   3.098   6.724  2.5924 -0.9883 -2.3318
    3MOL   H189 1713   1.162   3.286   6.739  0.1313 -0.7426 -0.0446
    3MOL   H190 1714   1.198   3.226   6.578 -1.2062  0.7972 -0.2184
    3MOL   H191 1715   1.217   3.486   6.631  1.6959  0.1825  3.1197
    3MOL   C192 1716   1.340   3.428   6.488 -0.0372  0.3310 -0.2472
    3MOL   O193 1717   1.403   3.346   6.424 -0.1345 -0.3047 -0.0695
    3MOL   C194 1718   1.352   3.572   6.447 -0.0117  0.2268 -0.3869
    3MOL   C195 1719   1.485   3.619   6.389  0.0854 -0.0585 -0.2013
    3MOL   C196 1720   1.604   3.613   6.483  0.3644 -0.0741  0.3564
    3MOL   C197 1721   1.733   3.625   6.394 -0.0461 -0.2894  0.1920
    3MOL   C198 1722   1.798   3.774   6.374  0.5352 -0.1818  0.1934
    3MOL   O199 1723   1.821   3.846   6.472 -0.1835 -0.1098 -0.4458
    3MOL   N200 1724   1.848   3.802   6.254  0.0987  0.0728 -0.0225
    3MOL   C201 1725   1.915   3.930   6.212 -0.4707 -0.0885  0.5315
    3MOL   C202 1726   2.054   3.907   6.150  0.6063 -0.2981 -0.7096
    3MOL   C203 1727   2.096   4.036   6.073  0.0184 -0.1732 -0.3341
    3MOL   C204 1728   2.192   4.126   6.151  0.0037 -0.3469 -0.0213
    3MOL   C205 1729   2.147   4.189   6.282 -0.3007  0.0278 -0.7773
    3MOL   C206 1730   2.024   4.270   6.287 -0.1009  0.5167 -0.4938
    3MOL   N207 1731   1.953   4.252   6.412  0.3588  0.6934 -0.1265
    3MOL   H208 1732   1.279   3.593   6.369  1.6663  1.4787 -1.6503
    3MOL   H209 1733   1.315   3.643   6.521  1.0718  0.9832 -0.5595
    3MOL   H210 1734   1.502   3.584   6.287  0.1096 -0.8269  0.0619
    3MOL   H211 1735   1.460   3.724   6.374 -1.8577 -0.4983 -0.2338
    3MOL   H212 1736   1.608   3.518   6.537 -1.1346 -0.8744 -0.8965
    3MOL   H213 1737   1.611   3.684   6.565  0.6144 -0.3801  0.5988
    3MOL   H214 1738   1.724   3.566   6.303  0.0524  0.1018 -0.0752
    3MOL   H215 1739   1.808   3.567   6.448 -0.1767  0.6966  1.4593
    3MOL   H216 1740   1.837   3.735   6.180  0.6875 -1.5865  1.3502
    3MOL   H217 1741   1.855   3.982   6.137 -0.4531 -1.3067 -0.3459
    3MOL   H218 1742   1.922   4.002   6.294 -2.6558  0.5889  0.1458
    3MOL   H219 1743   2.126   3.887   6.230 -0.2833  0.0323  0.1809
    3MOL   H220 1744   2.060   3.817   6.089 -0.3276  1.7443 -3.9280
    3MOL   H221 1745   2.010   4.090   6.034 -0.2289  1.4928  2.4322
    3MOL   H222 1746   2.156   4.003   5.988 -1.8014 -0.7426 -1.4210
    3MOL   H223 1747   2.287   4.075   6.168  0.1732 -0.5962 -1.6142
    3MOL   H224 1748   2.205   4.216   6.090  0.3157 -0.3993 -0.0319
    3MOL   H225 1749   2.135   4.108   6.355  0.4734  0.9869  0.4145
    3MOL   H226 1750   2.238   4.238   6.315 -0.4225  0.0652 -0.4898
    3MOL   H227 1751   1.955   4.242   6.207 -0.6494  0.8810 -0.1508
    3MOL   H228 1752   2.053   4.375   6.274  2.6630 -0.2291 -0.6571
    3MOL   H229 1753   2.015   4.275   6.488 -1.0870  0.0607  1.2728
    3MOL   C230 1754   1.827   4.216   6.451 -0.5321  0.1319 -0.8080
    3MOL   O231 1755   1.739   4.176   6.367  0.3997 -0.7045 -0.0948
    3MOL   C232 1756   1.802   4.206   6.603  0.2087 -0.0714  0.5248
    3MOL   C233 1757   1.724   4.335   6.648  0.1731  0.0800 -0.4086
    3MOL   C234 1758   1.701   4.328   6.799 -0.1465 -0.3003 -0.4207
    3MOL   C235 1759   1.620   4.454   6.851 -0.0739  0.4751  0.4614
    3MOL   C236 1760   1.686   4.587   6.836  0.3561  0.1380 -0.8350
    3MOL   O237 1761   1.656   4.670   6.748 -0.3198  0.7785  0.3483
    3MOL   N238 1762   1.787   4.608   6.926 -0.4656 -0.8785 -0.6340
    3MOL   C239 1763   1.873   4.723   6.938 -0.0279 -0.8125 -0.1530
    3MOL   C240 1764   1.799   4.840   7.011 -0.8654 -0.3178 -0.7096
    3MOL   C241 1765   1.757   4.805   7.153  0.0936  0.4057  0.5812
    3MOL   C242 1766   1.667   4.917   7.211 -0.2063 -0.0594 -0.5554
    3MOL   C243 1767   1.619   4.911   7.348  0.2234  0.2542 -0.2324
    3MOL   C244 1768   1.483   4.840   7.364 -1.5455 -0.4590  0.1905
    3MOL   N245 1769   1.492   4.696   7.337  0.1774  0.1409 -0.4079
    3MOL   H246 1770   1.763   4.109   6.632  1.3298 -0.4194  0.9136
    3MOL   H247 1771   1.900   4.213   6.650  0.5447  0.0514 -0.1833
    3MOL   H248 1772   1.790   4.420   6.627 -0.2565 -0.0287 -2.2035
    3MOL   H249 1773   1.633   4.361   6.595 -1.4313 -2.0792  1.2025
    3MOL   H250 1774   1.792   4.315   6.858 -1.0681 -1.1800  0.8197
    3MOL   H251 1775   1.641   4.240   6.822 -0.5353  0.1368  0.2671
    3MOL   H252 1776   1.594   4.419   6.951  1.1430 -1.2237  0.2001
    3MOL   H253 1777   1.526   4.465   6.796 -1.2277 -0.2318  2.2640
    3MOL   H254 1778   1.794   4.537   6.998  0.1096 -0.6874 -0.5063
    3MOL   H255 1779   1.959   4.704   7.002  0.3679  1.5598  0.0865
    3MOL   H256 1780   1.920   4.740   6.841  0.2219 -2.3252 -0.3044
    3MOL   H257 1781   1.869   4.924   7.006 -2.7405  1.3527  0.2878
    3MOL   H258 1782   1.721   4.867   6.940 -0.4183  4.9818  0.5987
    3MOL   H259 1783   1.831   4.777   7.227 -0.4411 -2.0484  0.2317
    3MOL   H260 1784   1.681   4.728   7.139 -2.1065  2.5562  0.2734
    3MOL   H261 1785   1.732   5.004   7.204 -0.5657  0.3966  1.5572
    3MOL   H262 1786   1.592   4.953   7.141 -3.4651 -0.7477  2.4402
    3MOL   H263 1787   1.698   4.870   7.410 -1.5546 -1.4072  0.9826
    3MOL   H264 1788   1.587   5.012   7.376  0.4015  0.1219  0.4371
    3MOL   H265 1789   1.410   4.876   7.292 -1.2560  0.8313  0.5309
    3MOL   H266 1790   1.440   4.869   7.461  1.6919  1.7605  1.0469
    3MOL   H267 1791   1.468   4.669   7.242 -1.1651  3.3948 -1.0378
    3MOL   C268 1792   1.496   4.601   7.435 -0.2944  0.8486  0.4144
    3MOL   O269 1793   1.495   4.621   7.559  0.0043 -0.1148 -0.7555
    3MOL   C270 1794   1.478   4.462   7.386  0.1534 -0.4176 -0.2152
    3MOL   C271 1795   1.527   4.356   7.478  0.8072  0.0640  0.6472
    3MOL   C272 1796   1.493   4.218   7.430  0.2094  0.2292 -0.1932
    3MOL   C273 1797   1.548   4.105   7.527 -0.0628 -0.5869  0.1953
    3MOL   C274 1798   1.496   3.964   7.488  0.0437 -0.2775 -0.3396
    3MOL   O275 1799   1.556   3.894   7.406 -0.1868  0.0785 -0.4198
    3MOL   N276 1800   1.385   3.926   7.551  0.0095  0.3181  0.0397
    3MOL   C277 1801   1.333   3.787   7.549  0.5098  0.8676 -0.2545
    3MOL   C278 1802   1.393   3.702   7.660  0.1814 -0.7900  0.2852
    3MOL   C279 1803   1.360   3.750   0.092  0.7525 -0.2045  0.0896
    3MOL   C280 1804   1.440   3.674   0.200 -0.3019 -0.2976  0.2395
    3MOL   C281 1805   1.429   3.745   0.336 -0.3148  0.0162 -0.3482
    3MOL   C282 1806   1.522   3.678   0.434  0.1472 -0.2234  0.2555
    3MOL   N283 1807   1.514   3.732   0.565  0.0340  0.4133  0.5344
    3MOL   H284 1808   1.376   4.442   7.352 -1.1753  2.3709  1.8834
    3MOL   H285 1809   1.537   4.458   7.295  1.7434  1.5587  0.6944
    3MOL   H286 1810   1.635   4.369   7.480  1.2470 -3.2529  3.3671
    3MOL   H287 1811   1.483   4.372   7.577  0.2892 -0.7542  0.5565
    3MOL   H288 1812   1.518   4.191   7.327 -1.6802 -2.3091 -0.0381
    3MOL   H289 1813   1.386   4.201   7.444  0.5101 -3.4101 -1.7148
    3MOL   H290 1814   1.537   4.123   7.634  1.7638 -0.3611  0.3675
    3MOL   H291 1815   1.655   4.099   7.508  0.2062 -1.1037  1.8009
    3MOL   H292 1816   1.367   3.993   7.624 -1.1361  1.4276 -1.2259
    3MOL   H293 1817   1.225   3.782   7.559  0.5485 -1.1954 -0.7572
    3MOL   H294 1818   1.351   3.741   7.452  0.8328  1.9856 -0.7403
    3MOL   H295 1819   1.367   3.600   7.633  0.7317  0.3310 -5.0946
    3MOL   H296 1820   1.502   3.707   7.648 -0.0916  0.3516 -1.9614
    3MOL   H297 1821   1.254   3.733   0.112  0.4272  0.8581 -0.6859
    3MOL   H298 1822   1.392   3.854   0.100  1.0294 -0.3248  0.5696
    3MOL   H299 1823   1.405   3.571   0.200  1.0412 -0.7674  1.1007
    3MOL   H300 1824   1.544   3.661   0.169  0.5036 -0.1750  2.7107
    3MOL   H301 1825   1.470   3.846   0.337 -0.8666  0.2430  2.4852
    3MOL   H302 1826   1.324   3.740   0.362 -0.5568 -0.3256 -1.3551
    3MOL   H303 1827   1.624   3.668   0.395 -1.1326 -0.9843 -3.0492
    3MOL   H304 1828   1.491   3.573   0.436 -1.6427  0.2383 -1.7826
    3MOL   H305 1829   1.441   3.800   0.581 -0.6475  0.0631 -1.0344
    3MOL   C306 1830   1.611   3.716   0.658  0.1615  0.3052  0.1717
    3MOL   O307 1831   1.709   3.647   0.630 -0.0556 -0.0797  0.5139
    3MOL   C308 1832   1.600   3.788   0.786 -1.1150 -0.0813 -0.2042
    3MOL   C309 1833   1.697   3.910   0.774  0.6053 -0.2228 -0.5778
    3MOL   C310 1834   1.659   4.022   0.869  0.1629 -0.1086 -0.1799
    3MOL   C311 1835   1.644   3.974   1.012  0.1319 -0.1274 -0.4150
    3MOL   C312 1836   1.642   4.088   1.115 -0.5871 -0.1215 -0.4076
    3MOL   O313 1837   1.731   4.174   1.109  0.4942  0.4777 -0.7195
    3MOL   N314 1838   1.547   4.071   1.208  0.2596 -0.2897 -0.1073
    3MOL   C315 1839   1.526   4.162   1.320  0.4356  0.0114 -0.2152
    3MOL   C316 1840   1.554   4.092   1.452  0.3393  0.3015  0.2175
    3MOL   C317 1841   1.481   3.965   1.486 -0.1513  0.0232  0.4897
    3MOL   C318 1842   1.325   3.985   1.504  0.4081  0.3916  0.5556
    3MOL   C319 1843   1.260   3.849   1.544  0.5973 -0.0207  0.0351
    3MOL   C320 1844   1.132   3.855   1.631 -0.7366  0.4431 -0.4192
    3MOL   N321 1845   1.019   3.891   1.548  0.1094  0.3218  0.4515
    3MOL   H322 1846   1.495   3.814   0.802 -0.8857  0.0430  1.1861
    3MOL   H323 1847   1.630   3.722   0.867 -4.4601  0.6086  1.6777
    3MOL   H324 1848   1.800   3.878   0.790  0.4053  0.6020  2.6769
    3MOL   H325 1849   1.684   3.959   0.678 -3.1044  0.3506  0.1504
    3MOL   H326 1850   1.560   4.062   0.848  1.5332  2.7463 -1.3960
    3MOL   H327 1851   1.732   4.102   0.861  0.0456  0.0104 -0.0543
    3MOL   H328 1852   1.726   3.905   1.033  0.4736 -0.4318 -2.6054
    3MOL   H329 1853   1.558   3.907   1.023 -1.4077  0.9118 -4.9781
    3MOL   H330 1854   1.480   3.996   1.196 -0.5141  0.4795 -0.6395
    3MOL   H331 1855   1.585   4.252   1.305  2.1250 -1.0745 -0.1691
    3MOL   H332 1856   1.423   4.200   1.324 -0.6306 -2.7432 -0.3807
    3MOL   H333 1857   1.663   4.088   1.454  0.3790  1.6274  1.2984
    3MOL   H334 1858   1.524   4.161   1.531  0.7287  1.3792 -0.5697
    3MOL   H335 1859   1.530   3.921   1.573 -0.9340 -1.5644  0.1406
    3MOL   H336 1860   1.501   3.888   1.412 -0.6648 -0.5989  0.9921
    3MOL   H337 1861   1.304   4.046   1.592  3.1492  1.6202  0.4231
    3MOL   H338 1862   1.264   4.024   1.422  1.2531  0.8781  0.1408
    3MOL   H339 1863   1.250   3.795   1.450  1.3622  0.2857 -0.2272
    3MOL   H340 1864   1.334   3.791   1.599  3.1315  2.4012 -0.6972
    3MOL   H341 1865   1.132   3.940   1.699 -1.2845  0.2037 -0.1188
    3MOL   H342 1866   1.103   3.765   1.685  1.8112  0.6716  1.4438
    3MOL   H343 1867   0.990   3.988   1.549  0.9174  0.5954 -1.8181
    3MOL   C344 1868   0.952   3.811   1.456  0.3970  0.2021  0.6154
    3MOL   O345 1869   0.875   3.853   1.370 -0.4289  0.0781  0.1014
    3MOL   C346 1870   0.971   3.664   1.468  0.1906  0.0342 -0.6819
    3MOL   C347 1871   0.860   3.595   1.540  0.2695  0.3682  0.4487
    3MOL   C348 1872   0.848   3.636   1.687 -0.3129  0.1680  0.4785
    3MOL   C349 1873   0.765   3.539   1.769  0.3068 -0.1659 -1.2691
    3MOL   C350 1874   0.627   3.491   1.712  0.3557 -0.3713 -0.0247
    3MOL   O351 1875   0.539   3.566   1.673  0.5247 -0.1839 -0.3912
    3MOL   N352 1876   0.616   3.354   1.698  0.5816 -0.1375  0.3766
    3MOL   C353 1877   0.502   3.284   1.634 -0.5809  0.3335  0.3830
    3MOL   C354 1878   0.413   3.192   1.726  0.6867  0.1451 -0.3314
    3MOL   C355 1879   0.280   3.159   1.658  0.7757  0.3749 -0.0147
    3MOL   C356 1880   0.192   3.077   1.742  0.4034 -0.1950 -0.5368
    3MOL   C357 1881   0.236   2.934   1.772 -0.9769 -0.1594  0.4486
    3MOL   C358 1882   0.127   2.841   1.830 -0.1601 -0.2088  0.0536
    3MOL   N359 1883   0.009   2.835   1.744  0.2042 -0.0872 -0.3860
    3MOL   H360 1884   0.985   3.625   1.367  0.0030 -0.6748 -0.4400
    3MOL   H361 1885   1.075   3.641   1.492  0.4330  0.8110 -0.9775
    3MOL   H362 1886   0.766   3.616   1.490  0.7863  0.5808 -0.4497
    3MOL   H363 1887   0.882   3.488   1.534 -0.1639  0.3554 -1.2792
    3MOL   H364 1888   0.800   3.734   1.690 -2.2568 -0.7531 -0.1765
    3MOL   H365 1889   0.940   3.632   1.746  0.3296 -0.0519 -0.5364
    3MOL   H366 1890   0.739   3.574   1.868 -1.5674  0.4913 -1.9753
    3MOL   H367 1891   0.824   3.447   1.782  0.0236  0.0305  1.6742
    3MOL   H368 1892   0.700   3.299   1.701 -0.2164 -1.4951 -1.3452
    3MOL   H369 1893   0.429   3.352   1.590 -1.1057  0.8041  1.9397
    3MOL   H370 1894   0.547   3.226   1.553  2.6485  2.5453  0.5025
    3MOL   H371 1895   0.457   3.096   1.753  0.1405  0.1160  0.4640
    3MOL   H372 1896   0.400   3.236   1.825  0.1881 -0.3407 -0.1802
    3MOL   H373 1897   0.294   3.114   1.560 -3.0578 -0.2554 -0.3686
    3MOL   H374 1898   0.217   3.248   1.649  2.8948  2.1954  2.3417
    3MOL   H375 1899   0.148   3.117   1.834  0.5754 -2.8838  0.7688
    3MOL   H376 1900   0.104   3.061   1.679  0.0694 -1.9135  0.3216
    3MOL   H377 1901   0.257   2.886   1.677  1.2619  0.2052  0.7350
    3MOL   H378 1902   0.317   2.943   1.845 -2.1764 -1.6655  2.0121
    3MOL   H379 1903   0.096   2.888   1.924  1.4613  0.1910  0.4074
    3MOL   H380 1904   0.172   2.744   1.849 -0.9352 -0.4845  0.5059
    3MOL   H381 1905   0.012   2.851   1.644 -1.9382  1.5110 -0.2529
    3MOL   C382 1906   7.589   2.833   1.797  0.1625 -0.2164  0.0265
    3MOL   O383 1907   7.559   2.835   1.918 -0.4272 -0.6245  0.1041
    3MOL   C384 1908   7.473   2.821   1.695  0.7809 -0.2184 -0.9868
    3MOL   C385 1909   7.341   2.897   1.729 -0.1062  0.6421  0.6502
    3MOL   C386 1910   7.343   3.048   1.723  0.4450 -0.2121 -0.9042
    3MOL   C387 1911   7.204   3.112   1.757 -0.3107  0.0951 -0.0091
    3MOL   C388 1912   7.118   3.159   1.640 -0.4673  0.0387 -0.9862
    3MOL   O389 1913   7.123   3.099   1.534  0.0046  0.2633 -0.2066
    3MOL   N390 1914   7.052   3.276   1.649  0.4017  0.1819  0.2839
    3MOL   C391 1915   6.961   3.315   1.534 -0.1210 -0.4324 -0.4401
    3MOL   C392 1916   6.845   3.405   1.583 -0.2434 -0.0511 -0.1430
    3MOL   C393 1917   6.899   3.544   1.628 -0.4355  0.3279 -0.2796
    3MOL   C394 1918   6.785   3.646   1.658 -0.2551 -0.4144  0.0650
    3MOL   C395 1919   6.859   3.784   1.645  0.4761  0.7033  0.2561
    3MOL   C396 1920   6.763   3.914   1.676 -0.3228  0.4840  0.3964
    3MOL   N397 1921   6.642   3.904   1.601 -0.2731 -0.2029 -0.3769
    3MOL   H398 1922   7.495   2.855   1.594  0.5784 -0.5311 -1.1378
    3MOL   H399 1923   7.460   2.713   1.693 -0.3823 -0.1196  0.1256
    3MOL   H400 1924   7.269   2.876   1.649  0.6980  3.0330 -0.7365
    3MOL   H401 1925   7.299   2.856   1.821  0.6941 -0.7134  0.4166
    3MOL   H402 1926   7.381   3.075   1.625 -0.8673  0.7851 -1.1381
    3MOL   H403 1927   7.416   3.094   1.790 -1.8305  2.5834 -0.2560
    3MOL   H404 1928   7.228   3.201   1.815  2.7057 -2.7361  3.3917
    3MOL   H405 1929   7.141   3.043   1.814 -0.2878 -1.5570 -1.9162
    3MOL   H406 1930   7.059   3.315   1.742  0.3517 -0.9177  0.7700
    3MOL   H407 1931   7.011   3.362   1.450  0.4666 -1.9911 -0.9847
    3MOL   H408 1932   6.925   3.228   1.479 -2.2360 -0.2604  0.5940
    3MOL   H409 1933   6.774   3.420   1.501  0.9070 -1.1496 -1.3659
    3MOL   H410 1934   6.790   3.366   1.668 -0.1678  2.0796  0.9299
    3MOL   H411 1935   6.975   3.591   1.567 -1.0785  2.0365  0.2146
    3MOL   H412 1936   6.954   3.537   1.721  0.5235  1.2319 -0.7783
    3MOL   H413 1937   6.713   3.634   1.577 -1.9173  2.7864  0.9700
    3MOL   H414 1938   6.747   3.622   1.757 -1.1848 -0.8723 -0.4036
    3MOL   H415 1939   6.945   3.793   1.712  0.6720 -1.4458  0.3080
    3MOL   H416 1940   6.893   3.784   1.542 -0.0181  0.2261  0.0860
    3MOL   H417 1941   6.818   4.006   1.656 -0.9431  0.1103 -3.4177
    3MOL   H418 1942   6.745   3.912   1.783  0.9064 -0.3872  0.6033
    3MOL   H419 1943   6.574   3.842   1.644  0.8032 -1.8722 -1.0410
    3MOL   C420 1944   6.603   4.000   1.508 -0.1869  0.5934  0.0793
    3MOL   O421 1945   6.678   4.084   1.461 -0.1987  0.0173  0.2131
    3MOL   C422 1946   6.454   3.997   1.476 -0.2224  0.4400 -0.1072
    3MOL   C423 1947   6.371   4.095   1.567 -0.4606 -0.9950 -0.0781
    3MOL   C424 1948   6.222   4.069   1.589 -0.3897  0.2592 -0.0766
    3MOL   C425 1949   6.150   4.149   1.702  0.2129 -0.1984 -0.5770
    3MOL   C426 1950   6.005   4.105   1.709 -0.3902 -0.0036 -0.1948
    3MOL   O427 1951   5.941   4.126   1.608 -0.5286 -0.7222 -0.1211
    3MOL   N428 1952   5.961   4.047   1.822 -0.2238 -0.0710  0.3647
    3MOL   C429 1953   5.817   4.040   1.844  0.1820 -0.7727 -0.8454
    3MOL   C430 1954   5.772   3.938   1.952 -0.4818 -0.1200 -0.8647
    3MOL   C431 1955   5.615   3.924   1.961  0.4447  0.3660  0.0335
    3MOL   C432 1956   5.571   3.814   2.055 -0.3065 -0.5631  0.0004
    3MOL   C433 1957   5.575   3.853   2.202  0.4267 -0.2065 -0.4436
    3MOL   C434 1958   5.521   3.743   2.292  0.3543  0.1391 -0.0797
    3MOL   N435 1959   5.535   3.775   2.436 -0.6013 -0.2041 -0.2341
    3MOL   H436 1960   6.434   4.021   1.372  3.7683 -2.7120 -1.6883
    3MOL   H437 1961   6.425   3.893   1.490  2.3070 -0.5014 -1.4703
    3MOL   H438 1962   6.419   4.089   1.664 -1.4823  0.3846  0.5317
    3MOL   H439 1963   6.388   4.198   1.534 -0.7562 -0.7746  0.4463
    3MOL   H440 1964   6.209   3.963   1.612  0.0490 -0.0187 -1.1060
    3MOL   H441 1965   6.166   4.090   1.498 -1.1416  0.3947  0.4026
    3MOL   H442 1966   6.152   4.256   1.681 -2.1424 -0.1851 -0.9227
    3MOL   H443 1967   6.203   4.137   1.796 -0.0606  0.6840 -0.3018
    3MOL   H444 1968   6.024   4.034   1.900  0.0651 -0.6108  0.0447
    3MOL   H445 1969   5.795   4.134   1.894 -2.6425 -2.0763  0.4979
    3MOL   H446 1970   5.756   4.041   1.754 -1.5545 -0.5782  0.3151
    3MOL   H447 1971   5.819   3.845   1.919  1.0889  0.0664  0.7394
    3MOL   H448 1972   5.821   3.958   2.047  1.6855  1.1914 -2.2103
    3MOL   H449 1973   5.569   3.897   1.866 -0.2381  0.7383  0.2516
    3MOL   H450 1974   5.569   4.017   1.995  2.1477  0.1079  3.2707
    3MOL   H451 1975   5.467   3.794   2.032 -0.1386 -0.8175 -0.5367
    3MOL   H452 1976   5.630   3.724   2.037  0.5524 -0.3945  1.8028
    3MOL   H453 1977   5.682   3.861   2.219  0.5880  1.3088 -2.0079
    3MOL   H454 1978   5.521   3.945   2.223  0.0736 -0.5695  0.2514
    3MOL   H455 1979   5.573   3.649   2.275  1.1674  0.4592  0.5596
    3MOL   H456 1980   5.424   3.701   2.267 -0.0135  1.8007 -1.5233
    3MOL   H457 1981   5.559   3.868   2.467 -2.9250 -0.2252  1.8254
    3MOL   C458 1982   5.479   3.700   2.530 -0.0912  0.0923 -0.1823
    3MOL   O459 1983   5.440   3.584   2.505 -0.3735  0.3652  0.2768
    3MOL   C460 1984   5.464   3.750   2.670  0.0125 -0.6130 -0.5100
    3MOL   C461 1985   5.576   3.692   2.760  0.4050 -0.0845 -0.2558
    3MOL   C462 1986   5.570   3.539   2.795  0.1816 -0.8057  0.6983
    3MOL   C463 1987   5.684   3.501   2.887 -0.5725 -0.1283  0.2580
    3MOL   C464 1988   5.691   3.353   2.931  0.8053 -0.3238  0.5672
    3MOL   O465 1989   5.580   3.292   2.924 -0.5827 -0.6359  0.6625
    3MOL   N466 1990   5.803   3.295   2.960 -0.6182 -0.1761  0.7393
    3MOL   C467 1991   5.805   3.165   3.010 -0.9493  0.6397 -0.7945
    3MOL   C468 1992   5.932   3.147   3.084 -1.0456 -0.3626  0.0121
    3MOL   C469 1993   5.947   3.236   3.210 -0.4610  0.0852  0.9958
    3MOL   C470 1994   5.850   3.205   3.321 -0.3861 -0.4228  0.6027
    3MOL   C471 1995   5.869   3.313   3.436 -0.3160  0.2328 -0.3940
    3MOL   C472 1996   5.935   3.246   3.545  0.2067 -0.3977  0.1011
    3MOL   N473 1997   5.955   3.330   3.666 -0.0767  0.4256 -0.4725
    3MOL   H474 1998   5.460   3.859   2.667 -1.5694 -0.4961  3.1785
    3MOL   H475 1999   5.364   3.727   2.706 -0.8182  2.6616 -0.5556
    3MOL   H476 2000   5.672   3.716   2.714  0.4608  1.0174  0.4274
    3MOL   H477 2001   5.570   3.748   2.853 -2.5137 -0.5368 -0.1211
    3MOL   H478 2002   5.577   3.474   2.707 -0.1328  0.0339  0.0504
    3MOL   H479 2003   5.475   3.521   2.844 -1.3214  1.9044 -1.1173
    3MOL   H480 2004   5.687   3.559   2.979  0.0014 -2.2953  1.6522
    3MOL   H481 2005   5.778   3.529   2.838  0.0788 -2.5484  0.0613
    3MOL   H482 2006   5.890   3.345   2.966 -0.1075 -0.5043 -2.6337
    3MOL   H483 2007   5.722   3.144   3.077 -0.4975 -1.9677 -0.9995
    3MOL   H484 2008   5.810   3.096   2.925  2.4995 -0.3789  0.1324
    3MOL   H485 2009   5.940   3.044   3.121 -1.9522  0.1581  1.6919
    3MOL   H486 2010   6.021   3.156   3.021 -2.1050  2.8097 -1.1055
    3MOL   H487 2011   5.954   3.344   3.193 -1.3856  0.2464  1.5981
    3MOL   H488 2012   6.038   3.204   3.262 -0.3619 -1.3559 -0.0362
    3MOL   H489 2013   5.756   3.231   3.273  1.1446  0.1683 -2.1638
    3MOL   H490 2014   5.851   3.102   3.355  0.1151 -1.0606 -1.3176
    3MOL   H491 2015   5.912   3.407   3.403 -0.6815  0.5963  0.1560
    3MOL   H492 2016   5.768   3.340   3.465 -0.5061 -0.0449 -0.7888
    3MOL   H493 2017   6.037   3.222   3.517  0.8301  0.2093  1.7727
    3MOL   H494 2018   5.892   3.149   3.570 -0.2837 -1.0933 -3.3169
    3MOL   H495 2019   6.047   3.358   3.694  0.6536  0.1362 -2.5185
    3MOL   C496 2020   5.855   3.363   3.751 -0.0373 -0.7674 -0.2087
    3MOL   O497 2021   5.747   3.316   3.737 -0.2060  0.4236  0.3031
    3MOL   C498 2022   5.882   3.476   3.852 -0.1976  0.5937 -0.7702
    3MOL   C499 2023   5.788   3.588   3.809 -0.4001  0.0867 -1.1576
    3MOL   C500 2024   5.802   3.714   3.897  0.6315 -0.2499 -0.0332
    3MOL   C501 2025   5.940   3.766   3.931  0.7643 -0.1644 -0.5211
    3MOL   C502 2026   6.014   3.837   3.821 -0.2493  0.1287  0.1264
    3MOL   O503 2027   5.958   3.924   3.757  0.0243 -0.2706 -0.2526
    3MOL   N504 2028   6.142   3.807   3.808  0.5798 -0.2416 -0.1338
    3MOL   C505 2029   6.232   3.859   3.703 -0.8414  0.5022 -0.0788
    3MOL   C506 2030   6.294   3.752   3.620 -0.0309 -0.4512 -0.5756
    3MOL   C507 2031   6.193   3.684   3.524 -0.0006 -0.3686  0.1555
    3MOL   C508 2032   6.277   3.598   3.429 -0.3487  0.9566  0.4829
    3MOL   C509 2033   6.195   3.516   3.328 -0.1756  0.1938  0.0656
    3MOL   C510 2034   6.268   3.421   3.228  0.9018 -0.0437  0.8159
    3MOL   N511 2035   6.337   3.311   3.296  0.3832 -0.3711  0.2657
    3MOL   H512 2036   5.862   3.441   3.953  3.0136 -1.9984 -0.9579
    3MOL   H513 2037   5.985   3.505   3.837  0.6390 -1.0785  1.4817
    3MOL   H514 2038   5.800   3.606   3.702  2.9722  2.2956 -0.4776
    3MOL   H515 2039   5.683   3.558   3.812 -0.6936  1.1581  0.0185
    3MOL   H516 2040   5.756   3.710   3.996  2.6600  0.7846  0.9909
    3MOL   H517 2041   5.759   3.801   3.846  1.8836  1.0882  1.1526
    3MOL   H518 2042   6.001   3.690   3.980 -3.3830 -4.1961 -1.2983
    3MOL   H519 2043   5.928   3.837   4.014 -2.0120 -1.5488  0.3118
    3MOL   H520 2044   6.183   3.745   3.877 -1.3128  0.6443  1.8514
    3MOL   H521 2045   6.184   3.939   3.646 -2.0034 -1.0440 -1.3131
    3MOL   H522 2046   6.313   3.914   3.751 -0.2987 -0.2601 -0.1273
    3MOL   H523 2047   6.364   3.803   3.553 -0.8759 -0.5241 -1.5294
    3MOL   H524 2048   6.351   3.682   3.682  0.1928  1.3674  1.3129
    3MOL   H525 2049   6.123   3.759   3.488  1.5838 -0.0988 -2.5167
    3MOL   H526 2050   6.134   3.616   3.586  0.4765 -0.7848  0.1599
    3MOL   H527 2051   6.348   3.660   3.373  0.5678  0.4087  1.0298
    3MOL   H528 2052   6.346   3.529   3.477  1.2143  0.7348 -1.9906
    3MOL   H529 2053   6.118   3.457   3.378 -0.1680  0.5218  0.4699
    3MOL   H530 2054   6.137   3.587   3.270  0.1583  0.7910  0.4599
    3MOL   H531 2055   6.341   3.479   3.172 -1.1213  1.7043 -0.0802
    3MOL   H532 2056   6.199   3.378   3.155  1.1516  0.7695  0.0965
    3MOL   H533 2057   6.370   3.328   3.390  0.3948 -1.4484  0.4587
    3MOL   C534 2058   6.377   3.200   3.228 -0.0869 -0.1470 -0.1625
    3MOL   O535 2059   6.334   3.168   3.117  0.3869  0.2878 -0.4121
    3MOL   C536 2060   6.464   3.096   3.290  0.1287  0.0016  0.6671
    3MOL   C537 2061   6.527   2.994   3.192  0.1222 -0.1706  0.3393
    3MOL   C538 2062   6.644   2.912   3.249 -0.4828 -0.3045  0.3077
    3MOL   C539 2063   6.595   2.787   3.331 -0.2589  0.8135 -0.3302
    3MOL   C540 2064   6.581   2.664   3.241  0.2759 -0.7844 -0.3584
    3MOL   O541 2065   6.675   2.600   3.196  0.1795 -0.6046  0.3040
    3MOL   N542 2066   6.455   2.636   3.196 -0.4155 -0.0850  0.5390
    3MOL   C543 2067   6.415   2.526   3.106  0.4925  0.2029  0.3310
    3MOL   C544 2068   6.433   2.549   2.958 -0.2262  0.0692  0.1874
    3MOL   C545 2069   6.544   2.641   2.920  0.3158  0.2322  0.2407
    3MOL   C546 2070   6.569   2.664   2.762 -0.6592  0.3914  0.4078
    3MOL   C547 2071   6.454   2.737   2.692  0.5356  0.4386  0.3054
    3MOL   C548 2072   6.492   2.804   2.559  0.5226  0.1472  0.1441
    3MOL   N549 2073   6.367   2.860   2.500  0.4944 -0.1203  0.3590
    3MOL   H550 2074   6.540   3.156   3.340  1.4086 -1.3159  0.3367
    3MOL   H551 2075   6.410   3.041   3.367 -0.2281 -0.2213  0.2579
    3MOL   H552 2076   6.448   2.933   3.148  0.7291 -0.3850 -0.4579
    3MOL   H553 2077   6.572   3.044   3.107 -0.0274 -1.6185 -0.6261
    3MOL   H554 2078   6.702   2.986   3.304  1.5722 -2.6543  1.3692
    3MOL   H555 2079   6.712   2.887   3.169 -1.2281  1.1918 -0.8162
    3MOL   H556 2080   6.501   2.818   3.375  0.1383  3.2397 -1.1043
    3MOL   H557 2081   6.652   2.751   3.416 -2.1902 -0.1101  0.6109
    3MOL   H558 2082   6.377   2.673   3.249 -1.6261 -0.1493 -1.1458
    3MOL   H559 2083   6.466   2.440   3.149 -3.0640 -1.9626  0.4179
    3MOL   H560 2084   6.313   2.497   3.129 -0.1592  0.1285 -2.4314
    3MOL   H561 2085   6.438   2.456   2.902  2.2273 -0.2227  0.8511
    3MOL   H562 2086   6.334   2.587   2.934  0.1320  0.8755 -0.0148
    3MOL   H563 2087   6.625   2.574   2.949  0.2233  0.2831  0.6225
    3MOL   H564 2088   6.542   2.732   2.979  0.6320  1.0716 -1.0274
    3MOL   H565 2089   6.664   2.717   2.751 -1.3253  1.5625  0.2419
    3MOL   H566 2090   6.584   2.567   2.715 -1.7362  0.9015 -0.9757
    3MOL   H567 2091   6.381   2.658   2.675  1.0911  0.1249 -0.6369
    3MOL   H568 2092   6.407   2.808   2.761  0.2438  1.6937 -1.1580
    3MOL   H569 2093   6.536   2.730   2.492 -1.4426 -0.1210 -0.8831
    3MOL   H570 2094   6.570   2.877   2.579 -0.0784  0.8231  0.0223
    3MOL   H571 2095   6.298   2.895   2.565  1.1320  2.4987 -0.2832
    3MOL   C572 2096   6.334   2.848   2.371 -0.0063 -0.1809 -0.1074
    3MOL   O573 2097   6.402   2.793   2.289 -0.3511  0.1252 -0.0744
    3MOL   C574 2098   6.195   2.900   2.334  0.1941 -0.0151  0.4868
    3MOL   C575 2099   6.153   2.876   2.186 -0.3620 -0.6253  0.2990
    3MOL   C576 2100   6.019   2.940   2.139  0.2580 -0.4033 -0.1842
    3MOL   C577 2101   6.015   3.089   2.168 -0.2398 -0.0375  0.2596
    3MOL   C578 2102   5.884   3.170   2.128 -0.1762 -0.0342  0.2616
    3MOL   O579 2103   5.819   3.122   2.039 -0.0629 -0.3394 -0.1179
    3MOL   N580 2104   5.861   3.289   2.188 -0.0718 -0.1671 -0.1270
    3MOL   C581 2105   5.751   3.372   2.166 -0.7632  0.5657 -0.0181
    3MOL   C582 2106   5.622   3.312   2.217  0.6524  0.9549 -0.0314
    3MOL   C583 2107   5.618   3.266   2.362  0.7494  0.2620  0.2590
    3MOL   C584 2108   5.520   3.154   2.385 -0.6908  0.4113 -0.4844
    3MOL   C585 2109   5.508   3.123   2.541  0.0390  0.0004  0.1395
    3MOL   C586 2110   5.460   2.990   2.570  0.1332  0.8378 -0.3196
    3MOL   N587 2111   5.330   2.970   2.516  0.0504 -0.1781  0.1595
    3MOL   H588 2112   6.118   2.852   2.394  0.1152  1.1097  1.3138
    3MOL   H589 2113   6.182   3.003   2.368 -0.9419  0.0854 -0.2452
    3MOL   H590 2114   6.230   2.914   2.119  0.7380 -1.0335  1.3023
    3MOL   H591 2115   6.152   2.771   2.156 -1.5088 -0.8246  0.9861
    3MOL   H592 2116   5.932   2.899   2.190  0.2079 -0.6887 -0.4981
    3MOL   H593 2117   5.987   2.916   2.038 -0.0892 -1.0371  0.0737
    3MOL   H594 2118   6.096   3.135   2.111  0.0828  2.0213  2.3143
    3MOL   H595 2119   6.040   3.110   2.272  0.0471 -2.9981  0.8288
    3MOL   H596 2120   5.924   3.323   2.259  0.4079  0.6802 -0.9447
    3MOL   H597 2121   5.775   3.476   2.189 -0.3940  0.3666  0.5080
    3MOL   H598 2122   5.743   3.370   2.057  0.6366 -1.3092 -0.1049
    3MOL   H599 2123   5.533   3.366   2.186  0.1660  0.0803 -0.1466
    3MOL   H600 2124   5.603   3.221   2.161 -1.0020  1.3023 -0.0349
    3MOL   H601 2125   5.601   3.350   2.429 -2.0624 -0.4931  0.5336
    3MOL   H602 2126   5.714   3.222   2.390  0.8943 -0.0984 -0.7787
    3MOL   H603 2127   5.426   3.171   2.333 -1.9884 -0.2883  1.5698
    3MOL   H604 2128   5.568   3.073   2.331  0.1599 -1.0605  2.3647
    3MOL   H605 2129   5.603   3.144   2.591 -0.3997 -0.7756  1.3339
    3MOL   H606 2130   5.437   3.195   2.583  1.1444  0.6326  0.9576
    3MOL   H607 2131   5.455   2.979   2.679 -0.9137 -0.9592 -0.5341
    3MOL   H608 2132   5.519   2.906   2.533 -0.9810 -1.0963  2.1331
    3MOL   H609 2133   5.310   3.022   2.432  1.7690 -0.4231 -0.4263
    3MOL   C610 2134   5.259   2.865   2.551  0.2521 -0.2953 -0.2622
    3MOL   O611 2135   5.302   2.781   2.634  0.2788  0.4375  0.4371
    3MOL   C612 2136   5.126   2.851   2.478  0.6768 -0.0801  0.4753
    3MOL   C613 2137   5.090   2.703   2.437 -0.0994  1.1991  0.1032
    3MOL   C614 2138   5.124   2.670   2.294 -0.2215  0.1326  0.0462
    3MOL   C615 2139   5.068   2.542   2.229  0.7005  0.3972 -0.0935
    3MOL   C616 2140   4.922   2.538   2.186  0.3204  0.0902 -0.4292
    3MOL   O617 2141   4.833   2.598   2.249 -0.1524 -0.4253 -0.5404
    3MOL   N618 2142   4.899   2.475   2.074 -0.4122  0.5476  0.6272
    3MOL   C619 2143   4.776   2.445   2.001  0.2204  0.1355  0.2238
    3MOL   C620 2144   4.787   2.315   1.919  0.1646 -0.2620  0.3464
    3MOL   C621 2145   4.661   2.291   1.840 -0.0419  0.3945 -0.4142
    3MOL   C622 2146   4.669   2.158   1.760 -0.0711  0.2427  0.3834
    3MOL   C623 2147   4.559   2.145   1.658 -0.0083 -0.2349  0.4345
    3MOL   C624 2148   4.569   2.235   1.536  0.4767  0.0479  0.2628
    3MOL   N625 2149   4.479   2.196   1.423  0.3575 -0.3912  0.5415
    3MOL   H626 2150   5.057   2.875   2.559 -0.5761  1.5784 -1.0273
    3MOL   H627 2151   5.099   2.915   2.393 -1.5608  0.6750  1.7202
    3MOL   H628 2152   5.135   2.627   2.500  0.0742  2.1244  1.0973
    3MOL   H629 2153   4.985   2.682   2.456 -0.1232 -1.8663 -2.9267
    3MOL   H630 2154   5.232   2.666   2.277 -0.1059 -0.7337  0.9186
    3MOL   H631 2155   5.099   2.755   2.231  2.3197  0.1036 -1.0607
    3MOL   H632 2156   5.069   2.466   2.307  1.5089  1.6841  1.1855
    3MOL   H633 2157   5.138   2.518   2.149  0.6645  1.9035 -0.5898
    3MOL   H634 2158   4.980   2.425   2.043 -2.0682  0.0400 -3.2582
    3MOL   H635 2159   4.704   2.428   2.081  1.5638 -2.0892  0.9843
    3MOL   H636 2160   4.755   2.536   1.944  0.3857  0.5699  0.8487
    3MOL   H637 2161   4.863   2.327   1.842  0.0271  1.8949  0.5105
    3MOL   H638 2162   4.814   2.243   1.997  1.7276  0.0567  0.1170
    3MOL   H639 2163   4.646   2.378   1.776  1.6064  1.2574  0.3322
    3MOL   H640 2164   4.574   2.288   1.906  0.0178  3.0524 -0.1577
    3MOL   H641 2165   4.764   2.149   1.708 -0.1182 -1.0678  0.5030
    3MOL   H642 2166   4.665   2.078   1.834 -0.0758 -1.1154 -1.0592
    3MOL   H643 2167   4.557   2.040   1.631 -2.0555  0.0567 -0.6782
    3MOL   H644 2168   4.464   2.153   1.712 -0.9543 -1.7229 -0.9715
    3MOL   H645 2169   4.669   2.223   1.495  1.2035 -0.6413  2.1901
    3MOL   H646 2170   4.549   2.337   1.570  2.0964  0.6106 -0.4370
    3MOL   H647 2171   4.416   2.122   1.450  0.5039 -0.7553 -0.1130
    3MOL   C648 2172   4.457   2.279   1.318 -0.3721  0.6361  0.5308
    3MOL   O649 2173   4.526   2.374   1.291 -0.3543 -0.0997  0.6392
    3MOL   C650 2174   4.337   2.252   1.231 -0.0481 -0.0488  0.4676
    3MOL   C651 2175   4.325   2.306   1.091  0.0798 -0.0866  0.1954
    3MOL   C652 2176   4.418   2.222   0.995  0.1106 -0.0436 -0.4773
    3MOL   C653 2177   4.403   2.248   0.847 -0.0731  0.3817 -0.7004
    3MOL   C654 2178   4.438   2.391   0.807 -1.0284  0.2415  0.4797
    3MOL   O655 2179   4.420   2.493   0.877 -0.4368  0.1558 -0.5151
    3MOL   N656 2180   4.495   2.401   0.687 -0.6885  0.0209 -0.4098
    3MOL   C657 2181   4.552   2.520   0.640 -0.8031  0.3885  0.4433
    3MOL   C658 2182   4.545   2.529   0.484 -0.0231  1.1365 -0.3889
    3MOL   C659 2183   4.604   2.405   0.409 -0.9449 -0.4878  0.4874
    3MOL   C660 2184   4.657   2.436   0.271 -0.7187  0.2542  0.2288
    3MOL   C661 2185   4.705   2.308   0.200 -0.7701 -0.4597 -0.5115
    3MOL   C662 2186   4.596   2.195   0.181 -0.0829  0.6475  0.2305
    3MOL   N663 2187   4.631   2.093   0.087  0.0525 -0.7400 -0.2211
    3MOL   H664 2188   4.308   2.147   1.228 -1.0053  0.2412 -1.4786
    3MOL   H665 2189   4.254   2.306   1.276 -0.0297  2.2993 -2.1755
    3MOL   H666 2190   4.224   2.285   1.055 -0.2664 -1.8144  2.0549
    3MOL   H667 2191   4.341   2.413   1.078 -1.6221  0.5396  2.7729
    3MOL   H668 2192   4.409   2.115   1.010 -1.5290 -0.5367 -4.3008
    3MOL   H669 2193   4.522   2.235   1.023 -0.1923  0.3134  0.4981
    3MOL   H670 2194   4.305   2.217   0.813 -0.1440 -1.5154  1.1486
    3MOL   H671 2195   4.478   2.185   0.800  0.9315  1.0287 -0.0181
    3MOL   H672 2196   4.505   2.316   0.633  2.1379  0.8250 -1.2258
    3MOL   H673 2197   4.504   2.608   0.683  1.2260  2.5066 -1.5058
    3MOL   H674 2198   4.650   2.521   0.687 -0.3133  0.0779 -0.5570
    3MOL   H675 2199   4.450   2.552   0.435  0.3504 -2.5599 -2.9735
    3MOL   H676 2200   4.615   2.610   0.459  0.5024  0.2879 -1.7312
    3MOL   H677 2201   4.519   2.337   0.406 -0.3279 -1.2224 -0.7584
    3MOL   H678 2202   4.678   2.350   0.468 -1.4937 -2.2605 -0.4269
    3MOL   H679 2203   4.579   2.491   0.216  1.1286  1.4586 -1.2550
    3MOL   H680 2204   4.741   2.504   0.287 -0.4851 -0.3656  1.6740
    3MOL   H681 2205   4.744   2.330   0.101  0.7625 -2.0491 -0.2779
    3MOL   H682 2206   4.784   2.259   0.257 -0.6838 -0.2522 -0.4501
    3MOL   H683 2207   4.507   2.251   0.151 -0.5743  0.6950  1.7365
    3MOL   H684 2208   4.576   2.151   0.278 -1.9813  0.9306  0.0000
    3MOL   H685 2209   4.685   2.123   0.008 -0.0182  1.2591  0.4527
    3MOL   C686 2210   4.578   1.973   0.085  0.5588  0.7256 -0.4434
    3MOL   O687 2211   4.478   1.942   0.147 -0.2866 -0.2341  0.3546
    3MOL   C688 2212   4.638   1.873   7.693  0.7945 -0.2199  0.0993
    3MOL   C689 2213   4.663   1.734   0.052  0.3381  0.5653 -0.5613
    3MOL   C690 2214   4.783   1.658   7.700 -0.4621  0.6627  0.1463
    3MOL   C691 2215   4.799   1.516   0.040 -0.1951  0.8012 -0.6779
    3MOL   C692 2216   4.932   1.458   7.697 -0.0656  0.5062 -0.3465
    3MOL   O693 2217   5.010   1.532   7.642 -0.4145 -0.1513 -0.4346
    3MOL   N694 2218   4.959   1.331   0.025  0.2657  0.2017 -0.4071
    3MOL   C695 2219   5.070   1.254   7.692  0.5699 -0.8733 -0.1739
    3MOL   C696 2220   5.176   1.263   0.095 -0.4452  0.2247 -0.7647
    3MOL   C697 2221   5.314   1.227   0.043  0.4681  0.1756  0.1197
    3MOL   C698 2222   5.409   1.193   0.166 -0.5456 -0.4307  0.1346
    3MOL   C699 2223   5.394   1.047   0.212 -0.3151 -0.4781 -0.1880
    3MOL   C700 2224   5.510   0.997   0.306  0.1791 -0.8621 -0.9365
    3MOL   N701 2225   5.560   1.086   0.411 -0.2570 -0.8654 -0.1969
    3MOL   H702 2226   4.577   1.866   7.603  0.8852 -1.5549  0.1338
    3MOL   H703 2227   4.732   1.919   7.660  0.7914 -1.3253 -1.5060
    3MOL   H704 2228   4.676   1.738   0.160  0.9194  0.5926 -0.6295
    3MOL   H705 2229   4.577   1.673   0.025  0.0796  1.3094 -1.4243
    3MOL   H706 2230   4.872   1.713   0.025 -0.1676  0.8692 -0.9882
    3MOL   H707 2231   4.790   1.664   7.592  1.5843  1.2233  0.2850
    3MOL   H708 2232   4.716   1.452   0.010  0.1688 -0.0204  0.0474
    3MOL   H709 2233   4.796   1.513   0.149 -0.0408  0.8907 -0.6710
    3MOL   H710 2234   4.883   1.283   0.071  1.1711  1.1385  2.1710
    3MOL   H711 2235   5.031   1.152   7.683 -1.5817 -0.1205  0.4690
    3MOL   H712 2236   5.113   1.295   7.601 -0.2867  2.2238  0.7715
    3MOL   H713 2237   5.178   1.366   0.132 -3.4185  0.0599 -0.0375
    3MOL   H714 2238   5.147   1.203   0.180  0.3027  2.5323  1.1874
    3MOL   H715 2239   5.359   1.305   7.690  0.5895 -1.5749 -2.1153
    3MOL   H716 2240   5.308   1.137   7.690  0.1467  1.0193 -1.0981
    3MOL   H717 2241   5.513   1.205   0.135 -0.3969 -2.0517 -0.0353
    3MOL   H718 2242   5.399   1.267   0.245  1.1387 -2.0308  1.8888
    3MOL   H719 2243   5.301   1.043   0.269  0.7567 -1.0296  1.5616
    3MOL   H720 2244   5.383   0.979   0.128 -0.2643  0.8911 -1.3226
    3MOL   H721 2245   5.599   0.981   0.245  0.9068 -1.7914  0.3531
    3MOL   H722 2246   5.475   0.909   0.361  0.1829  0.3118  1.0029
    3MOL   H723 2247   5.645   1.139   0.395 -1.9114  1.0731 -3.0699
    3MOL   C724 2248   5.498   1.102   0.531  0.1956  0.2697  0.4127
    3MOL   O725 2249   5.392   1.047   0.561  0.7551  0.1745 -0.8288
    3MOL   C726 2250   5.564   1.193   0.639  0.1059 -0.3308  0.3955
    3MOL   C727 2251   5.483   1.212   0.778 -0.9940  0.5237  0.5128
    3MOL   C728 2252   5.513   1.088   0.874  0.0382 -0.7699  0.1182
    3MOL   C729 2253   5.433   1.090   1.005 -0.2300  0.1229  0.1764
    3MOL   C730 2254   5.466   0.972   1.090  0.3450 -0.1781 -0.7560
    3MOL   O731 2255   5.493   0.858   1.041  0.2729  0.2278  0.0233
    3MOL   N732 2256   5.458   0.993   1.218 -0.2596  0.0970  0.5186
    3MOL   C733 2257   5.476   0.895   1.320 -0.4082 -0.2399 -0.2781
    3MOL   C734 2258   5.343   0.851   1.383 -0.0652  0.2337 -0.6491
    3MOL   C735 2259   5.356   0.815   1.529  0.6324  0.4358  0.8213
    3MOL   C736 2260   5.220   0.751   1.581  0.0787  0.2426  0.8692
    3MOL   C737 2261   5.220   0.709   1.718  0.8265 -0.0665  0.4806
    3MOL   C738 2262   5.113   0.605   1.764  0.0244 -1.2089  0.2322
    3MOL   N739 2263   5.150   0.559   1.900 -0.3248  0.2370  0.3571
    3MOL   H740 2264   5.664   1.151   0.649  0.1879 -0.5515 -1.2458
    3MOL   H741 2265   5.572   1.287   0.584  0.2384  0.7856  2.2634
    3MOL   H742 2266   5.525   1.300   0.826  1.6360 -0.5130  0.1886
    3MOL   H743 2267   5.379   1.236   0.756 -1.0368  0.6616  0.8579
    3MOL   H744 2268   5.621   1.081   0.885  0.0490 -1.3714 -0.3371
    3MOL   H745 2269   5.487   0.999   0.817 -1.5801  0.7091 -1.5135
    3MOL   H746 2270   5.326   1.077   0.986 -0.3449  1.5050 -0.2154
    3MOL   H747 2271   5.440   1.186   1.057 -1.1748 -0.1108  0.7680
    3MOL   H748 2272   5.414   1.081   1.243  1.2142  1.5981 -2.0268
    3MOL   H749 2273   5.541   0.812   1.292 -0.8751 -0.8987  0.5518
    3MOL   H750 2274   5.531   0.954   1.394 -0.7491  1.4209 -1.3244
    3MOL   H751 2275   5.268   0.930   1.382  1.1610  1.4602  0.7001
    3MOL   H752 2276   5.294   0.777   1.320  0.2170  0.4294 -1.1074
    3MOL   H753 2277   5.387   0.908   1.576 -2.4399  2.4105 -0.8289
    3MOL   H754 2278   5.442   0.750   1.542 -0.1973 -0.5681  1.3767
    3MOL   H755 2279   5.143   0.826   1.567 -0.3767 -0.1681  1.1297
    3MOL   H756 2280   5.184   0.666   1.523  1.0444  0.7868 -0.5667
    3MOL   H757 2281   5.320   0.671   1.737  1.5846  1.2431 -0.8823
    3MOL   H758 2282   5.206   0.803   1.771 -4.2577 -0.1285 -0.5160
    3MOL   H759 2283   5.124   0.511   1.710  1.8324 -0.8926  0.0360
    3MOL   H760 2284   5.011   0.637   1.744  0.2836 -0.8815 -0.5792
    3MOL   H761 2285   5.061   0.529   1.938  0.8461 -3.0568  0.5956
    3MOL   H762 2286   5.178   0.638   1.956  1.2055  0.0987 -0.2022
    4MOL     C1 2287   1.260   4.982   3.673 -0.1453  0.7884 -0.2721
    4MOL     O2 2288   1.328   5.064   3.735  0.6206  0.5126 -0.0193
    4MOL     C3 2289   1.222   5.006   3.525 -0.4826 -0.2823 -0.3129
    4MOL     C4 2290   1.226   5.155   3.479  0.3446 -0.4689  0.4554
    4MOL     C5 2291   1.157   5.175   3.341  0.0215 -0.1120 -0.5895
    4MOL     C6 2292   1.178   5.318   3.285  0.2465 -0.3709 -0.0575
    4MOL     C7 2293   1.108   5.324   3.150 -0.3865 -0.2426 -0.3763
    4MOL     O8 2294   1.134   5.249   3.055  0.0665 -0.3816 -0.1854
    4MOL     N9 2295   1.009   5.416   3.142 -0.2232 -0.1499 -0.2559
    4MOL    C10 2296   0.940   5.457   3.023 -0.5225  0.7355 -0.1540
    4MOL    C11 2297   0.791   5.397   3.018 -0.4023  0.3745 -0.6736
    4MOL    C12 2298   0.709   5.426   2.887  0.2034 -0.2765 -0.4480
    4MOL    C13 2299   0.703   5.572   2.843  0.3202  0.4745  0.3009
    4MOL    C14 2300   0.638   5.679   2.944  0.2156  0.3651  0.4929
    4MOL    C15 2301   0.633   5.825   2.892  0.1771  0.3377 -0.0784
    4MOL    N16 2302   0.767   5.878   2.854  0.0207  0.5202  0.1532
    4MOL    H17 2303   1.298   4.950   3.470 -0.0314  0.4047 -0.3850
    4MOL    H18 2304   1.122   4.962   3.518 -0.9415  0.6204  0.5913
    4MOL    H19 2305   1.171   5.211   3.555 -2.0384  0.7115 -2.0572
    4MOL    H20 2306   1.326   5.196   3.467 -1.7536  4.1309 -2.5751
    4MOL    H21 2307   1.052   5.148   3.351  0.3373 -0.6446  1.6996
    4MOL    H22 2308   1.196   5.099   3.274  2.1244  1.5358 -1.2818
    4MOL    H23 2309   1.284   5.331   3.266  0.0009  0.8597 -0.5714
    4MOL    H24 2310   1.139   5.402   3.343  0.7374  1.1289 -1.8699
    4MOL    H25 2311   0.994   5.474   3.224 -1.2999 -0.0225 -0.5427
    4MOL    H26 2312   0.931   5.565   3.034 -0.7034  0.7574 -0.5034
    4MOL    H27 2313   0.990   5.424   2.931 -2.8124  0.2317 -1.2654
    4MOL    H28 2314   0.784   5.291   3.042 -2.5260  0.6467 -0.0514
    4MOL    H29 2315   0.737   5.441   3.102 -1.2060  2.3168 -2.1842
    4MOL    H30 2316   0.609   5.390   2.911 -0.4948  3.0046  1.7328
    4MOL    H31 2317   0.735   5.369   2.797 -1.6623 -2.5605  0.4281
    4MOL    H32 2318   0.804   5.608   2.821  0.0166  1.2243  0.1146
    4MOL    H33 2319   0.639   5.566   2.756 -1.1387  1.0475  1.3127
    4MOL    H34 2320   0.533   5.662   2.970 -0.5074  0.7261 -2.0577
    4MOL    H35 2321   0.688   5.677   3.041 -0.6529 -1.4824  0.9275
    4MOL    H36 2322   0.595   5.880   2.978  1.1098  1.2739 -0.2550
    4MOL    H37 2323   0.562   5.840   2.811  0.3645 -1.2753 -0.5681
    4MOL    H38 2324   0.784   5.900   2.757 -1.4229 -1.8895 -0.6949
    4MOL    H39 2325   1.219   4.896   3.726 -0.8867  2.3437  1.7413
    4MOL    C40 2326   0.865   5.890   2.937 -0.6481  0.9021 -0.4381
    4MOL    O41 2327   0.863   5.863   3.056  0.4185  0.7629  0.0407
    4MOL    C42 2328   1.002   5.936   2.872  0.0140 -0.4017 -0.3287
    4MOL    C43 2329   1.101   6.018   2.955  0.1766  0.2130  0.5481
    4MOL    C44 2330   1.251   5.969   2.950  0.4838  0.0191 -0.2514
    4MOL    C45 2331   1.322   6.001   2.815 -0.2245  0.9499  0.2774
    4MOL    C46 2332   1.472   5.966   2.832 -0.7060 -0.6817 -0.2784
    4MOL    O47 2333   1.534   6.001   2.931 -0.2021 -0.2589 -0.2698
    4MOL    N48 2334   1.532   5.892   2.741  0.4590  0.2461 -0.1471
    4MOL    C49 2335   1.671   5.873   2.730 -0.2622 -0.4280 -0.2339
    4MOL    C50 2336   1.726   5.977   2.632  0.3243  0.1175 -0.2492
    4MOL    C51 2337   1.876   5.961   2.606  0.1172  0.2251 -0.2057
    4MOL    C52 2338   1.938   6.064   2.501  0.2129  0.6040  0.2250
    4MOL    C53 2339   2.093   6.066   2.508 -0.1799 -0.4818  0.9948
    4MOL    C54 2340   2.145   6.158   2.400 -0.2974  0.0431 -0.0952
    4MOL    N55 2341   2.290   6.156   2.405 -0.1935  0.0724  0.5733
    4MOL    H56 2342   1.067   5.853   2.846  0.7598 -0.6610  2.2380
    4MOL    H57 2343   0.974   5.985   2.779 -2.0863  0.0379  0.4835
    4MOL    H58 2344   1.094   6.124   2.933 -3.4155 -0.6064 -2.9733
    4MOL    H59 2345   1.075   6.014   3.061 -1.6584 -0.3417  0.1086
    4MOL    H60 2346   1.243   5.861   2.961 -1.4138  0.3250  1.5712
    4MOL    H61 2347   1.305   6.022   3.028  2.7519 -0.6948 -1.2947
    4MOL    H62 2348   1.302   6.106   2.791  4.1905  1.1964 -2.9073
    4MOL    H63 2349   1.275   5.932   2.744  2.4000 -0.7265  0.1216
    4MOL    H64 2350   1.469   5.840   2.681  3.2578 -2.5603 -0.7667
    4MOL    H65 2351   1.712   5.871   2.831 -0.2139 -1.9543 -0.2748
    4MOL    H66 2352   1.695   5.771   2.699 -2.4241 -0.8693 -0.5407
    4MOL    H67 2353   1.689   5.966   2.530  1.2496 -0.7284 -0.5014
    4MOL    H68 2354   1.700   6.080   2.657 -1.7854 -0.4223 -0.1042
    4MOL    H69 2355   1.911   5.859   2.589 -0.2670 -0.2958  1.9764
    4MOL    H70 2356   1.919   5.982   2.704  1.7868  0.3632 -0.9548
    4MOL    H71 2357   1.906   6.037   2.400 -0.9709  0.2297  0.6897
    4MOL    H72 2358   1.900   6.164   2.524  1.2703  0.8723  0.8091
    4MOL    H73 2359   2.129   6.110   2.601 -0.6312  0.3036  0.8052
    4MOL    H74 2360   2.131   5.966   2.491 -1.0848 -1.0691  2.3458
    4MOL    H75 2361   2.107   6.259   2.414 -1.9136 -0.7380  1.2906
    4MOL    H76 2362   2.127   6.141   2.294  0.9067  0.9939 -0.4626
    4MOL    H77 2363   2.335   6.073   2.439 -1.1865 -0.9352 -0.5282
    4MOL    C78 2364   2.364   6.261   2.378  0.0964  0.1314 -0.2985
    4MOL    O79 2365   2.313   6.371   2.358  0.2132  0.4731  0.0502
    4MOL    C80 2366   2.512   6.261   2.390 -0.2411 -0.2443 -0.0918
    4MOL    C81 2367   2.567   6.305   2.533  1.0871  0.2635  0.0696
    4MOL    C82 2368   2.712   6.263   2.580  0.1391 -0.3899  0.6862
    4MOL    C83 2369   2.749   6.271   2.731  0.4117 -0.7002 -0.0856
    4MOL    C84 2370   2.712   6.403   2.792  0.3924  0.0709  0.0106
    4MOL    O85 2371   2.761   6.508   2.755  0.3576  0.3776  0.2437
    4MOL    N86 2372   2.612   6.389   2.885  0.4031  0.4748 -0.2354
    4MOL    C87 2373   2.540   6.495   2.953  0.2840  0.5731  0.5520
    4MOL    C88 2374   2.403   6.511   2.887 -0.0765 -0.2403 -0.2036
    4MOL    C89 2375   2.312   6.398   2.894 -0.3132  0.0572 -0.0797
    4MOL    C90 2376   2.170   6.419   2.826 -0.2256  0.0989  0.1861
    4MOL    C91 2377   2.176   6.412   2.669 -0.1437 -0.2386 -0.4046
    4MOL    C92 2378   2.049   6.466   2.604  0.2865  0.6298 -0.6121
    4MOL    N93 2379   2.070   6.497   2.463  0.1088  0.1776  0.4098
    4MOL    H94 2380   2.546   6.162   2.361  1.0280 -0.0503  0.7120
    4MOL    H95 2381   2.544   6.326   2.309 -1.7698 -1.3943 -1.6530
    4MOL    H96 2382   2.543   6.411   2.545  0.0817 -0.1690  2.1748
    4MOL    H97 2383   2.493   6.269   2.605 -0.4238  0.5214 -1.3334
    4MOL    H98 2384   2.779   6.334   2.531 -0.1894 -0.1115  0.6422
    4MOL    H99 2385   2.735   6.167   2.535 -1.2712 -0.9026  1.0249
    4MOL   H100 2386   2.853   6.244   2.748  0.4677 -1.8094 -2.0937
    4MOL   H101 2387   2.704   6.188   2.785  0.7909 -0.4032  0.6984
    4MOL   H102 2388   2.577   6.299   2.914  2.1120  0.0819  0.6563
    4MOL   H103 2389   2.546   6.471   3.059  1.3703 -0.8982  0.1757
    4MOL   H104 2390   2.593   6.587   2.931  1.2493 -0.8344 -3.4361
    4MOL   H105 2391   2.368   6.607   2.924  3.1013  1.7390 -2.1087
    4MOL   H106 2392   2.419   6.538   2.783 -0.2586 -1.4049 -0.5461
    4MOL   H107 2393   2.298   6.384   3.001 -0.1618 -3.2197 -0.4456
    4MOL   H108 2394   2.359   6.311   2.849 -0.5984 -0.3922  0.4950
    4MOL   H109 2395   2.099   6.342   2.854 -0.9087  0.4952 -0.4401
    4MOL   H110 2396   2.122   6.512   2.859  0.6742  0.9591 -0.8985
    4MOL   H111 2397   2.262   6.462   2.624  0.0104  0.0014  0.1527
    4MOL   H112 2398   2.187   6.306   2.646 -2.7564  0.0566 -3.3329
    4MOL   H113 2399   2.017   6.555   2.660  5.1485  1.1593  1.5546
    4MOL   H114 2400   1.967   6.395   2.611 -0.0420  0.8256 -2.2697
    4MOL   H115 2401   2.152   6.460   2.418  1.1420  3.5995 -0.6828
    4MOL   C116 2402   1.974   6.549   2.389  0.0361 -0.1339  0.2687
    4MOL   O117 2403   1.857   6.566   2.435 -0.2065 -0.1113 -0.3816
    4MOL   C118 2404   2.004   6.581   2.239 -0.3127 -0.2905 -0.7741
    4MOL   C119 2405   1.959   6.725   2.207 -0.3995  0.1507 -0.5523
    4MOL   C120 2406   1.971   6.758   2.060  0.3519 -0.2176  0.0866
    4MOL   C121 2407   1.882   6.692   1.947  0.8746 -0.1336  0.6777
    4MOL   C122 2408   1.731   6.718   1.949 -0.6110 -0.4636 -0.4587
    4MOL   O123 2409   1.691   6.807   2.027 -0.6640  0.7559  0.4722
    4MOL   N124 2410   1.656   6.650   1.864  0.2760 -0.2231 -0.5869
    4MOL   C125 2411   1.510   6.666   1.862 -0.2141  0.3872 -0.0277
    4MOL   C126 2412   1.470   6.799   1.788  0.3080 -0.0317  0.0444
    4MOL   C127 2413   1.331   6.850   1.827 -0.3654 -0.1236 -0.2163
    4MOL   C128 2414   1.276   6.974   1.744  0.3072 -0.4658 -0.4496
    4MOL   C129 2415   1.276   6.952   1.588  0.1730  0.1406 -0.3448
    4MOL   C130 2416   1.195   6.821   1.551  0.1174  0.5078  0.2015
    4MOL   N131 2417   1.053   6.830   1.591  0.0868  0.3478  0.4147
    4MOL   H132 2418   2.110   6.571   2.214 -0.0455  1.8962 -0.6461
    4MOL   H133 2419   1.957   6.498   2.187  1.8795 -1.9439 -0.1938
    4MOL   H134 2420   1.858   6.749   2.241  0.4584  0.2219  2.0115
    4MOL   H135 2421   2.031   6.783   2.263 -0.4597 -1.8755  1.6956
    4MOL   H136 2422   2.077   6.765   2.032  1.1341 -0.2810  2.8761
    4MOL   H137 2423   1.947   6.864   2.055 -0.1002 -0.3949 -1.8705
    4MOL   H138 2424   1.905   6.586   1.956  0.1711 -0.1921  1.9729
    4MOL   H139 2425   1.924   6.724   1.852  3.2314 -0.5865  1.5280
    4MOL   H140 2426   1.697   6.572   1.815 -3.5482 -1.5169 -1.8890
    4MOL   H141 2427   1.463   6.579   1.816 -0.4719 -1.0259  2.8526
    4MOL   H142 2428   1.472   6.664   1.964 -3.1172 -0.1595 -1.0614
    4MOL   H143 2429   1.540   6.883   1.796  0.9439 -0.4386 -1.0791
    4MOL   H144 2430   1.461   6.766   1.684  0.3878  2.4647 -0.8106
    4MOL   H145 2431   1.333   6.874   1.933 -1.2608  1.6059 -0.5639
    4MOL   H146 2432   1.258   6.771   1.812 -1.2608  0.7673 -0.6614
    4MOL   H147 2433   1.172   6.987   1.772  0.3648 -0.6747 -0.1372
    4MOL   H148 2434   1.332   7.063   1.771  1.8624 -1.3167 -0.7596
    4MOL   H149 2435   1.227   7.027   1.525  0.5188  0.8162  0.1837
    4MOL   H150 2436   1.382   6.943   1.562  0.6380 -0.4234  1.6916
    4MOL   H151 2437   1.243   6.732   1.590  1.7386  1.3665  0.2083
    4MOL   H152 2438   1.209   6.808   1.444  1.5568  0.1134  0.4343
    4MOL   H153 2439   1.002   6.916   1.574 -0.5165  0.2560  1.6678
    4MOL   C154 2440   0.977   6.724   1.629  0.0184  0.1438 -0.0509
    4MOL   O155 2441   1.026   6.607   1.630  0.2778  0.4500 -0.7811
    4MOL   C156 2442   0.828   6.747   1.657 -0.5312  0.0564 -0.2029
    4MOL   C157 2443   0.738   6.622   1.670 -0.1399 -0.4171  0.5603
    4MOL   C158 2444   0.667   6.575   1.540 -1.0002 -0.1517  0.1838
    4MOL   C159 2445   0.595   6.443   1.566 -0.3543  0.5712 -0.4027
    4MOL   C160 2446   0.455   6.440   1.508 -0.4648 -0.3344 -0.1080
    4MOL   O161 2447   0.383   6.534   1.536  0.0749 -0.2295 -0.3878
    4MOL   N162 2448   0.403   6.341   1.440 -0.4961  0.0408 -0.8047
    4MOL   C163 2449   0.281   6.345   1.368 -0.4960  0.2897  0.7294
    4MOL   C164 2450   0.165   6.294   1.450  0.2455  0.2208  0.1616
    4MOL   C165 2451   0.131   6.373   1.572  0.3757 -0.5633 -0.5793
    4MOL   C166 2452   0.081   6.518   1.541 -0.2306  0.2980  0.6262
    4MOL   C167 2453   0.055   6.604   1.670  0.7439 -0.4630  0.2701
    4MOL   C168 2454   0.084   6.753   1.650 -0.7653 -0.1805 -0.0940
    4MOL   N169 2455   0.227   6.776   1.620 -0.4163  0.8020  1.0694
    4MOL   H170 2456   0.820   6.813   1.743  1.5953 -0.0977  0.1415
    4MOL   H171 2457   0.795   6.809   1.574  2.1601 -0.4819 -1.7447
    4MOL   H172 2458   0.787   6.539   1.722  1.9057 -0.1553 -0.8925
    4MOL   H173 2459   0.658   6.653   1.737  2.7679  0.0357  3.9779
    4MOL   H174 2460   0.737   6.552   1.459  0.2415  1.7192  0.6942
    4MOL   H175 2461   0.600   6.653   1.503 -2.5681 -1.5942 -0.0698
    4MOL   H176 2462   0.577   6.415   1.670  0.5190  0.9211 -0.1516
    4MOL   H177 2463   0.651   6.354   1.535 -1.6885 -0.7250  0.8243
    4MOL   H178 2464   0.469   6.267   1.418  1.7005  1.5996  0.2968
    4MOL   H179 2465   0.264   6.445   1.330  1.0188 -0.3202 -1.7531
    4MOL   H180 2466   0.294   6.295   1.271 -2.4131 -1.4737  1.3448
    4MOL   H181 2467   0.077   6.287   1.386 -0.4404  0.4285  1.0738
    4MOL   H182 2468   0.183   6.192   1.485  0.2310  0.8174  2.0039
    4MOL   H183 2469   0.210   6.381   1.647 -1.0495  1.7289  0.7540
    4MOL   H184 2470   0.057   6.322   1.633  1.4630 -0.7238  0.6317
    4MOL   H185 2471   0.145   6.566   1.467 -0.4368 -2.1642 -1.2004
    4MOL   H186 2472   7.699   6.518   1.479  0.4133  1.5382 -0.3156
    4MOL   H187 2473   7.661   6.597   1.708  0.2862 -1.0766 -1.0740
    4MOL   H188 2474   0.127   6.571   1.745  0.9971  4.2839  2.3225
    4MOL   H189 2475   0.066   6.792   1.750 -3.0552 -2.1736  0.3069
    4MOL   H190 2476   0.020   6.788   1.569 -0.3708 -1.3489 -0.9184
    4MOL   H191 2477   0.284   6.694   1.605 -1.2787  0.4904 -0.6810
    4MOL   C192 2478   0.280   6.897   1.604 -0.1555 -0.6893 -0.2832
    4MOL   O193 2479   0.210   7.000   1.616 -0.5681 -0.8392 -0.1585
    4MOL   C194 2480   0.430   6.906   1.574  0.7516  0.1223  0.3560
    4MOL   C195 2481   0.470   7.026   1.487  0.6056  0.1120 -0.1237
    4MOL   C196 2482   0.620   7.043   1.486 -0.2058  1.0343  0.1218
    4MOL   C197 2483   0.679   7.188   1.446  0.4183  0.3990 -0.2182
    4MOL   C198 2484   0.829   7.197   1.467 -0.0101  0.2647  0.0384
    4MOL   O199 2485   0.895   7.092   1.456  0.3541 -0.1672 -0.0778
    4MOL   N200 2486   0.880   7.314   1.498  1.0767 -0.4192  0.2989
    4MOL   C201 2487   1.018   7.344   1.524 -0.7123  0.0142  0.0261
    4MOL   C202 2488   1.091   7.417   1.408 -0.1537  0.2739 -0.5119
    4MOL   C203 2489   1.240   7.430   1.430 -0.3093  0.0321  0.2051
    4MOL   C204 2490   1.327   7.518   1.330  1.2391  0.3450 -0.0829
    4MOL   C205 2491   1.481   7.493   1.339 -0.6356  0.5519  0.1382
    4MOL   C206 2492   1.554   7.551   1.214 -0.0761  0.5855  0.1392
    4MOL   N207 2493   1.702   7.524   1.215  0.2616  0.3618 -0.1516
    4MOL   H208 2494   0.488   6.910   1.666  0.4332 -0.1076  0.5696
    4MOL   H209 2495   0.462   6.814   1.525  2.0907  0.0104  1.4187
    4MOL   H210 2496   0.440   7.012   1.384 -0.1840 -1.4175  0.3014
    4MOL   H211 2497   0.420   7.113   1.529  0.4966 -0.4170  0.8742
    4MOL   H212 2498   0.659   6.971   1.413 -2.8506  0.3968 -0.7094
    4MOL   H213 2499   0.671   7.007   1.575  0.4826  1.2337 -0.1813
    4MOL   H214 2500   0.628   7.266   1.503  0.6579 -0.2197  0.8478
    4MOL   H215 2501   0.658   7.203   1.340  3.3555  1.0547 -0.7225
    4MOL   H216 2502   0.812   7.388   1.490  1.8102  0.2123 -0.1727
    4MOL   H217 2503   1.012   7.402   1.616 -0.6679  4.4264 -2.5868
    4MOL   H218 2504   1.069   7.251   1.547 -1.3443 -0.5449 -0.8440
    4MOL   H219 2505   1.073   7.353   1.322 -1.7136 -1.2814  0.9469
    4MOL   H220 2506   1.045   7.515   1.393 -1.6606 -0.1173  1.4731
    4MOL   H221 2507   1.271   7.326   1.435 -0.9057 -0.1504  0.0943
    4MOL   H222 2508   1.256   7.473   1.529  1.0018  0.2945 -0.1047
    4MOL   H223 2509   1.299   7.486   1.230 -1.9794  0.8203  0.6307
    4MOL   H224 2510   1.302   7.624   1.336 -0.0090 -0.0003  0.9855
    4MOL   H225 2511   1.514   7.531   1.435 -2.8173 -1.1334  1.6312
    4MOL   H226 2512   1.511   7.388   1.333  0.4251  0.9274 -1.4744
    4MOL   H227 2513   1.541   7.658   1.202 -0.5668  0.2756 -2.2923
    4MOL   H228 2514   1.520   7.517   1.117  1.9062  1.0248 -0.7421
    4MOL   H229 2515   1.762   7.604   1.215  1.8660 -0.7895 -2.0150
    4MOL   C230 2516   1.754   7.407   1.182  0.6920 -0.7230  0.3356
    4MOL   O231 2517   1.688   7.313   1.138 -0.2600 -0.4418 -0.6596
    4MOL   C232 2518   1.909   7.393   1.193  0.1700 -0.6453  0.4597
    4MOL   C233 2519   1.973   7.297   1.292  0.2847 -0.0970 -0.2142
    4MOL   C234 2520   2.124   7.284   1.275  0.2296 -0.1973  0.0168
    4MOL   C235 2521   2.182   7.176   1.367 -0.3247 -0.9009 -0.1737
    4MOL   C236 2522   2.324   7.125   1.325 -0.7822  0.0879  0.7822
    4MOL   O237 2523   2.358   7.111   1.208  0.3320 -0.3973  0.3376
    4MOL   N238 2524   2.414   7.119   1.424  0.1805 -0.3145 -0.0433
    4MOL   C239 2525   2.554   7.071   1.419  0.0381  0.2050 -0.5592
    4MOL   C240 2526   2.572   6.919   1.448 -0.2405 -0.1764  0.4955
    4MOL   C241 2527   2.490   6.823   1.352  0.7113  0.5941 -0.6425
    4MOL   C242 2528   2.510   6.675   1.374 -0.1990  0.2613  0.2859
    4MOL   C243 2529   2.411   6.585   1.299 -0.1029 -0.3697  0.8440
    4MOL   C244 2530   2.469   6.449   1.295  0.4545  0.7216 -0.0008
    4MOL   N245 2531   2.492   6.391   1.427  0.0520  0.6367  1.0232
    4MOL   H246 2532   1.943   7.377   1.091 -1.0654  1.3737 -0.3002
    4MOL   H247 2533   1.951   7.490   1.216  1.9450 -0.8667 -1.7537
    4MOL   H248 2534   1.956   7.336   1.392  1.2848  1.8256 -0.7605
    4MOL   H249 2535   1.927   7.198   1.286 -0.4630  0.1916  0.6054
    4MOL   H250 2536   2.176   7.377   1.300 -3.0288  1.9638 -1.0046
    4MOL   H251 2537   2.158   7.255   1.175 -0.5292  1.2888 -0.6846
    4MOL   H252 2538   2.110   7.095   1.381 -3.6098  1.8991 -0.1973
    4MOL   H253 2539   2.189   7.215   1.469  3.0376  2.3246 -1.5022
    4MOL   H254 2540   2.374   7.142   1.513 -1.5281  0.3603 -0.9619
    4MOL   H255 2541   2.605   7.093   1.326 -0.8510 -0.1123 -1.1289
    4MOL   H256 2542   2.607   7.142   1.482  0.0596 -0.2785 -0.0240
    4MOL   H257 2543   2.679   6.898   1.448 -0.0298  0.6200 -3.0381
    4MOL   H258 2544   2.539   6.893   1.548 -0.7025  1.6286  0.8271
    4MOL   H259 2545   2.500   6.859   1.250 -1.2566  0.8827 -0.7623
    4MOL   H260 2546   2.385   6.842   1.374  0.3341 -0.8275 -1.1434
    4MOL   H261 2547   2.613   6.659   1.342  0.0603  1.8573  0.2998
    4MOL   H262 2548   2.507   6.641   1.477  0.5701 -1.1456 -0.1404
    4MOL   H263 2549   2.315   6.606   1.347 -0.1567  1.0355  0.1275
    4MOL   H264 2550   2.401   6.624   1.198 -1.9103 -0.7221  0.8839
    4MOL   H265 2551   2.562   6.444   1.238  0.7414 -0.6939  0.5605
    4MOL   H266 2552   2.401   6.388   1.236 -0.4600  0.6400  1.1177
    4MOL   H267 2553   2.590   6.390   1.452  1.2281 -0.1802 -3.1234
    4MOL   C268 2554   2.393   6.340   1.509  0.9791 -0.4146 -0.0354
    4MOL   O269 2555   2.273   6.330   1.483 -0.2771 -0.6064 -0.2318
    4MOL   C270 2556   2.443   6.303   1.648  0.2115 -0.0903  1.3164
    4MOL   C271 2557   2.382   6.400   1.758 -0.0154 -0.1959  0.4545
    4MOL   C272 2558   2.422   6.364   1.905 -0.9077 -0.2285 -0.4673
    4MOL   C273 2559   2.322   6.418   2.013 -0.7071 -0.5477 -0.0667
    4MOL   C274 2560   2.344   6.566   2.044  0.2767  0.3852  0.1865
    4MOL   O275 2561   2.369   6.649   1.951  0.0947 -0.2919 -0.0219
    4MOL   N276 2562   2.355   6.607   2.169  0.2504  0.4962 -0.3285
    4MOL   C277 2563   2.410   6.734   2.215  0.5541 -0.0090  0.4183
    4MOL   C278 2564   2.428   6.733   2.363 -0.2089 -0.7188  0.6231
    4MOL   C279 2565   2.305   6.781   2.437 -0.1033 -0.8070  0.1889
    4MOL   C280 2566   2.335   6.778   2.585 -0.8208  0.1216 -0.1558
    4MOL   C281 2567   2.218   6.843   2.663  0.3029 -0.7056 -0.4097
    4MOL   C282 2568   2.264   6.891   2.800 -0.2668  0.1485  0.2722
    4MOL   N283 2569   2.154   6.952   2.869 -0.2912  0.0016 -0.3009
    4MOL   H284 2570   2.411   6.200   1.658  1.1964 -0.6525 -1.0072
    4MOL   H285 2571   2.551   6.287   1.642  0.4029  1.7461 -0.4361
    4MOL   H286 2572   2.430   6.497   1.744 -0.8591  0.5379  2.4475
    4MOL   H287 2573   2.273   6.404   1.750  0.1196  1.7873 -0.7775
    4MOL   H288 2574   2.524   6.396   1.926 -0.4400 -2.4230  0.8103
    4MOL   H289 2575   2.429   6.256   1.915  4.7261  0.0729  0.9101
    4MOL   H290 2576   2.349   6.358   2.100  0.2938 -0.8318 -0.5773
    4MOL   H291 2577   2.221   6.396   1.977 -0.9644  0.6728 -0.1116
    4MOL   H292 2578   2.323   6.537   2.236 -1.9024  2.8567  1.1950
    4MOL   H293 2579   2.502   6.747   2.157 -0.7944 -0.8034 -1.9756
    4MOL   H294 2580   2.348   6.820   2.188 -1.1460 -0.8978  1.4228
    4MOL   H295 2581   2.454   6.638   2.409  0.4160 -2.1175 -2.4836
    4MOL   H296 2582   2.512   6.795   2.395  1.1485 -1.7227 -0.9887
    4MOL   H297 2583   2.225   6.710   2.416 -3.6484  2.3411  2.3756
    4MOL   H298 2584   2.275   6.880   2.402 -0.1456 -0.7025  0.5217
    4MOL   H299 2585   2.349   6.673   2.610  2.3566  0.1138 -1.6564
    4MOL   H300 2586   2.432   6.819   2.613 -0.5295  0.5922 -1.7476
    4MOL   H301 2587   2.165   6.923   2.611  0.8883 -1.1845 -1.7781
    4MOL   H302 2588   2.135   6.774   2.677  0.4808 -0.2719  3.2029
    4MOL   H303 2589   2.335   6.971   2.778 -0.0870 -0.2784 -0.7249
    4MOL   H304 2590   2.309   6.806   2.851 -2.6346 -0.8874  0.6708
    4MOL   H305 2591   2.136   7.048   2.841  0.7801  0.0116 -0.9822
    4MOL   C306 2592   2.108   6.908   2.984 -0.6646 -0.8588 -0.5411
    4MOL   O307 2593   2.140   6.801   3.035 -0.0396 -0.1357  0.7069
    4MOL   C308 2594   2.004   6.990   3.071 -0.1116 -0.6817  0.4894
    4MOL   C309 2595   2.068   7.017   3.205 -0.3329 -0.4553 -0.9276
    4MOL   C310 2596   1.990   7.122   3.287  0.0597  0.3411  0.3715
    4MOL   C311 2597   2.080   7.200   3.383 -0.2134  0.2688 -0.1729
    4MOL   C312 2598   1.998   7.305   3.460 -0.2088 -0.6797 -0.4134
    4MOL   O313 2599   1.879   7.292   3.478  0.0263 -0.7498  0.0590
    4MOL   N314 2600   2.071   7.408   3.502 -0.4105  0.7431 -0.1057
    4MOL   C315 2601   2.018   7.504   3.594 -0.3210 -0.0981  0.5163
    4MOL   C316 2602   2.067   7.476   3.737 -0.1901  0.2419  0.3284
    4MOL   C317 2603   2.045   7.332   3.786  0.3448  0.6416 -0.0813
    4MOL   C318 2604   2.089   7.316   3.927 -0.0962  0.0877  0.3726
    4MOL   C319 2605   2.107   7.164   3.950 -0.5021 -0.5074 -0.0499
    4MOL   C320 2606   2.174   7.137   4.088  0.6557 -0.1506  0.3850
    4MOL   N321 2607   2.312   7.180   4.092  0.8217 -0.0135 -0.0395
    4MOL   H322 2608   1.990   7.084   3.017 -1.0502  0.1874  2.2026
    4MOL   H323 2609   1.911   6.934   3.074  0.0088 -0.8359  1.4863
    4MOL   H324 2610   2.078   6.929   3.268  1.7075  0.4886  0.1090
    4MOL   H325 2611   2.172   7.047   3.191 -1.2107  2.6703 -0.9776
    4MOL   H326 2612   1.922   7.062   3.348  0.1810  0.5081  0.6715
    4MOL   H327 2613   1.935   7.176   3.210 -1.4672 -1.1645  0.3640
    4MOL   H328 2614   2.163   7.247   3.330 -0.4453  0.5767 -0.2677
    4MOL   H329 2615   2.124   7.131   3.455 -0.9503  0.0143  0.0341
    4MOL   H330 2616   2.169   7.412   3.478 -0.3504  0.6318  0.1261
    4MOL   H331 2617   2.038   7.606   3.561  0.7225 -0.1508  0.9938
    4MOL   H332 2618   1.909   7.500   3.597 -0.2836 -1.5274  0.3558
    4MOL   H333 2619   2.174   7.497   3.740  0.4653 -2.9109  1.1522
    4MOL   H334 2620   2.029   7.549   3.808 -0.6006  0.0383  0.3238
    4MOL   H335 2621   2.102   7.269   3.718  0.1932  0.0870  0.3054
    4MOL   H336 2622   1.943   7.299   3.767 -0.0570  0.8981  1.5242
    4MOL   H337 2623   2.186   7.365   3.940 -0.4768  0.3916  2.3339
    4MOL   H338 2624   2.018   7.364   3.994  2.0097  1.9533  1.3388
    4MOL   H339 2625   2.017   7.103   3.960  0.2287 -1.4435  1.0084
    4MOL   H340 2626   2.169   7.107   3.881  0.2411 -0.9785  0.9928
    4MOL   H341 2627   2.178   7.032   4.119 -0.6079  0.4380  2.6405
    4MOL   H342 2628   2.121   7.189   4.168  0.2302 -2.0463  1.3742
    4MOL   H343 2629   2.380   7.108   4.068  1.7987  0.2956  1.7391
    4MOL   C344 2630   2.369   7.297   4.135  0.3378  0.6895  0.1796
    4MOL   O345 2631   2.303   7.391   4.174  0.9109  0.0915  0.2055
    4MOL   C346 2632   2.522   7.313   4.129 -0.7178  0.6355  0.0489
    4MOL   C347 2633   2.564   7.462   4.112  0.0234 -0.5225 -0.1808
    4MOL   C348 2634   2.589   7.523   4.247 -0.5231  0.1794  0.6683
    4MOL   C349 2635   2.605   7.675   4.246  0.0943  0.3453  0.0291
    4MOL   C350 2636   2.744   0.015   4.218 -0.0299  1.1380  0.1046
    4MOL   O351 2637   2.810   7.686   4.120 -0.0956 -0.1606 -0.1263
    4MOL   N352 2638   2.786   0.116   4.296 -0.2752  0.8259  0.4047
    4MOL   C353 2639   2.913   0.183   4.287 -0.7309 -0.1592  0.4610
    4MOL   C354 2640   2.876   0.331   4.304 -0.1254 -0.8756  0.1654
    4MOL   C355 2641   3.007   0.412   4.312 -0.4961  0.4577 -0.3108
    4MOL   C356 2642   2.983   0.555   4.360 -0.5040 -0.3950 -0.1500
    4MOL   C357 2643   3.112   0.631   4.403 -0.1100  0.2197 -0.2457
    4MOL   C358 2644   3.077   0.769   4.451 -0.3003  0.1702 -0.5861
    4MOL   N359 2645   2.995   0.766   4.571 -0.0073  0.1367 -0.0714
    4MOL   H360 2646   2.582   7.261   4.204 -1.2934  0.1783  0.1993
    4MOL   H361 2647   2.541   7.269   4.031  0.1080  1.0929  0.0055
    4MOL   H362 2648   2.656   7.461   4.054 -0.2450 -0.4090 -0.6038
    4MOL   H363 2649   2.497   7.512   4.043  0.2406 -2.6355 -1.9796
    4MOL   H364 2650   2.670   7.468   4.294 -1.8838 -0.8222  1.9027
    4MOL   H365 2651   2.511   7.497   4.319  0.6878  1.4856  2.5174
    4MOL   H366 2652   2.568   7.705   4.344 -3.6208  0.2723 -1.2564
    4MOL   H367 2653   2.535   0.014   4.176  0.1310  0.4816  0.0851
    4MOL   H368 2654   2.732   0.137   4.379  0.0487 -1.8302  1.3474
    4MOL   H369 2655   2.975   0.151   4.371 -1.2541 -2.3133  0.0590
    4MOL   H370 2656   2.963   0.180   4.191  0.4563 -3.5080  1.1157
    4MOL   H371 2657   2.809   0.368   4.225  1.1010 -1.5673 -1.2273
    4MOL   H372 2658   2.826   0.330   4.400 -0.8178  0.3870 -0.1640
    4MOL   H373 2659   3.065   0.409   4.220  0.9017 -0.5340  0.5874
    4MOL   H374 2660   3.080   0.373   4.383  0.7156 -0.3784 -1.9876
    4MOL   H375 2661   2.951   0.604   4.268  1.7259  2.2301  0.3758
    4MOL   H376 2662   2.892   0.566   4.420 -0.3082 -0.9423  0.2498
    4MOL   H377 2663   3.149   0.578   4.491 -1.7331  0.2013  0.4311
    4MOL   H378 2664   3.182   0.636   4.318 -1.2052 -1.2721 -1.2662
    4MOL   H379 2665   3.019   0.816   4.372 -2.1739 -1.2423 -0.1186
    4MOL   H380 2666   3.163   0.835   4.460 -0.6985  0.6500 -0.2011
    4MOL   H381 2667   2.969   0.672   4.598 -2.7080  0.8674  0.0381
    4MOL   C382 2668   2.956   0.871   4.637  0.9856  0.7270 -0.7888
    4MOL   O383 2669   2.990   0.987   4.603  0.1586 -0.1889  0.0379
    4MOL   C384 2670   2.852   0.846   4.750 -0.4801 -0.7935 -0.0859
    4MOL   C385 2671   2.762   0.970   4.780 -0.0331  0.4968 -0.6328
    4MOL   C386 2672   2.662   0.936   4.903  0.5809 -0.0356  0.1010
    4MOL   C387 2673   2.731   0.940   5.040  1.1456 -0.0102  0.3944
    4MOL   C388 2674   2.632   0.907   5.157  0.2513  0.5714 -0.1693
    4MOL   O389 2675   2.520   0.951   5.165  0.1225 -0.5878 -0.0600
    4MOL   N390 2676   2.677   0.836   5.258 -1.0742  0.4063  0.6357
    4MOL   C391 2677   2.608   0.801   5.380 -0.5031  0.0803  0.1286
    4MOL   C392 2678   2.516   0.679   5.348 -0.1068 -0.1720  0.4135
    4MOL   C393 2679   2.414   0.663   5.464 -0.1343 -0.2875  0.3321
    4MOL   C394 2680   2.467   0.624   5.602  0.1302  0.3325  0.3886
    4MOL   C395 2681   2.355   0.639   5.703 -0.5695 -0.2455  0.2848
    4MOL   C396 2682   2.403   0.591   5.839 -0.1452  0.8498  0.1709
    4MOL   N397 2683   2.301   0.603   5.941  0.2269  0.1507 -1.1636
    4MOL   H398 2684   2.784   0.771   4.709  1.3870 -1.6676 -1.6821
    4MOL   H399 2685   2.900   0.814   4.843  1.3373 -0.4696 -0.8902
    4MOL   H400 2686   2.820   1.060   4.798  1.3309 -0.1722 -1.5840
    4MOL   H401 2687   2.704   0.999   4.692 -3.4274 -0.0450  1.3141
    4MOL   H402 2688   2.617   0.838   4.887  0.7359 -0.4362  2.0172
    4MOL   H403 2689   2.584   1.013   4.904 -0.2891 -0.9172  0.2230
    4MOL   H404 2690   2.760   1.044   5.055 -0.7978  0.4295  1.3668
    4MOL   H405 2691   2.817   0.874   5.050  1.5798  0.7066  1.4810
    4MOL   H406 2692   2.772   0.802   5.253 -1.6249 -0.9311 -1.2704
    4MOL   H407 2693   2.665   0.781   5.470 -0.6284 -1.8393 -0.1974
    4MOL   H408 2694   2.530   0.876   5.394 -0.6341 -0.2423  1.2165
    4MOL   H409 2695   2.471   0.694   5.250 -0.6431 -1.5402  0.4486
    4MOL   H410 2696   2.581   0.592   5.336  0.9551  0.9507 -2.3891
    4MOL   H411 2697   2.340   0.596   5.420 -0.5370  0.0995  0.4179
    4MOL   H412 2698   2.349   0.748   5.482  0.1872  0.5966 -2.4577
    4MOL   H413 2699   2.508   0.525   5.617 -0.5242 -0.5548 -3.1133
    4MOL   H414 2700   2.522   0.712   5.635 -0.2515  0.8764 -0.3892
    4MOL   H415 2701   2.308   0.737   5.706 -1.5842 -0.7051 -0.3535
    4MOL   H416 2702   2.268   0.581   5.672  0.9679 -2.0858 -0.7511
    4MOL   H417 2703   2.488   0.655   5.864  1.0394 -0.9106  0.7686
    4MOL   H418 2704   2.442   0.489   5.834 -0.1212  0.9496 -1.9838
    4MOL   H419 2705   2.236   0.679   5.952  1.3620  0.7672  1.9982
    4MOL   C420 2706   2.297   0.516   6.044 -0.3986 -0.5699 -0.3865
    4MOL   O421 2707   2.371   0.417   6.050 -0.1369  0.1635  0.4812
    4MOL   C422 2708   2.178   0.530   6.146 -0.1094  0.3585  0.0670
    4MOL   C423 2709   2.209   0.470   6.296  0.3917 -0.0355 -0.4356
    4MOL   C424 2710   2.089   0.452   6.391  0.1993  0.0373  0.6468
    4MOL   C425 2711   2.128   0.379   6.524  0.1325  0.2440  0.0203
    4MOL   C426 2712   2.168   0.479   6.627  0.1205  0.5191 -0.0895
    4MOL   O427 2713   2.079   0.523   6.697 -0.4757  0.6886 -0.3812
    4MOL   N428 2714   2.295   0.511   6.647  0.1471 -0.0560  0.3424
    4MOL   C429 2715   2.333   0.610   6.746  0.7700 -0.3283 -1.2302
    4MOL   C430 2716   2.354   0.548   6.881  0.7199 -0.5805 -0.0740
    4MOL   C431 2717   2.409   0.655   6.979 -0.2689  0.6304 -1.0097
    4MOL   C432 2718   2.420   0.603   7.124 -0.3323  0.6155  0.4900
    4MOL   C433 2719   2.305   0.655   7.223  0.2712 -0.7501  0.5622
    4MOL   C434 2720   2.308   0.583   7.359  0.1578  0.6549 -0.0415
    4MOL   N435 2721   2.191   0.606   7.449  0.2630 -0.2465 -0.0388
    4MOL   H436 2722   2.155   0.634   6.170 -3.0556 -0.5818  1.5334
    4MOL   H437 2723   2.090   0.482   6.104  0.5688 -1.8119  1.0811
    4MOL   H438 2724   2.254   0.373   6.275  1.2037  0.0207  0.9755
    4MOL   H439 2725   2.285   0.515   6.359 -1.3816  0.9683  1.0713
    4MOL   H440 2726   2.013   0.393   6.341 -0.2659 -0.2394  1.6662
    4MOL   H441 2727   2.041   0.545   6.421 -2.0323 -0.4830 -1.1845
    4MOL   H442 2728   2.196   0.294   6.511 -0.1185  0.1467 -0.7264
    4MOL   H443 2729   2.039   0.332   6.566  0.0022  1.8887  1.6180
    4MOL   H444 2730   2.370   0.474   6.590  0.4843 -2.1241  2.0207
    4MOL   H445 2731   2.425   0.655   6.709  1.5982  0.1748  1.2912
    4MOL   H446 2732   2.259   0.689   6.755  0.8981 -0.6276  4.0160
    4MOL   H447 2733   2.257   0.516   6.918  0.8282  1.7083  2.3525
    4MOL   H448 2734   2.421   0.463   6.873 -0.1400 -1.3252  0.6566
    4MOL   H449 2735   2.356   0.749   6.994 -1.7149 -0.2442 -0.5170
    4MOL   H450 2736   2.501   0.691   6.932 -0.3687  1.5499 -0.5082
    4MOL   H451 2737   2.409   0.495   7.119 -0.0191  0.4638  2.6194
    4MOL   H452 2738   2.516   0.629   7.168 -0.9924  1.5644  1.4059
    4MOL   H453 2739   2.297   0.762   7.241  0.1658 -0.3718 -1.5870
    4MOL   H454 2740   2.206   0.625   7.188  0.4411 -0.2137 -0.3880
    4MOL   H455 2741   2.400   0.612   7.412 -0.4302  1.4185  0.5676
    4MOL   H456 2742   2.319   0.475   7.349  0.7159  0.4912  1.9563
    4MOL   H457 2743   2.196   0.687   7.509 -0.3069  1.1154 -1.7742
    4MOL   C458 2744   2.113   0.506   7.487 -0.0827 -0.2898  1.0621
    4MOL   O459 2745   2.097   0.406   7.419  0.0181 -0.0389  0.4954
    4MOL   C460 2746   2.037   0.522   7.617 -0.3326 -0.5246  0.9238
    4MOL   C461 2747   1.882   0.492   7.615  0.4865 -0.3076 -0.2387
    4MOL   C462 2748   1.841   0.345   7.605  0.3239 -0.1950  0.0699
    4MOL   C463 2749   1.704   0.308   7.628  0.4896  0.5582  0.0690
    4MOL   C464 2750   1.625   0.331   7.501 -0.5141  0.1738  0.1026
    4MOL   O465 2751   1.656   0.271   7.393 -0.1108  0.4262  0.4158
    4MOL   N466 2752   1.527   0.422   7.499 -0.2850 -0.2569 -0.4313
    4MOL   C467 2753   1.433   0.440   7.393  0.4616 -0.3339 -0.0134
    4MOL   C468 2754   1.408   0.584   7.369  0.3290  0.5297 -0.2269
    4MOL   C469 2755   1.290   0.601   7.272 -0.0172  0.8072  0.1878
    4MOL   C470 2756   1.269   0.751   7.250 -0.2614 -0.3424 -0.9007
    4MOL   C471 2757   1.376   0.818   7.154 -0.2742 -0.7547  0.3117
    4MOL   C472 2758   1.467   0.918   7.233  0.2435 -0.1305  0.1559
    4MOL   N473 2759   1.576   0.979   7.159 -0.4326  0.3758 -0.8586
    4MOL   H474 2760   2.082   0.467   7.700  2.0814  0.0521  0.0285
    4MOL   H475 2761   2.057   0.623   7.654 -1.1261  0.2307 -0.6643
    4MOL   H476 2762   1.839   0.538   7.703 -0.3917 -2.0728  0.2719
    4MOL   H477 2763   1.828   0.549   7.539  0.7957 -0.8991 -0.9070
    4MOL   H478 2764   1.894   0.296   7.688  1.5415  1.0967  0.0684
    4MOL   H479 2765   1.881   0.295   7.517 -1.6459 -0.6085 -0.6165
    4MOL   H480 2766   1.663   0.376   7.703 -0.2567 -1.0324  1.1397
    4MOL   H481 2767   1.695   0.203   7.655 -0.3941  1.0719  1.8255
    4MOL   H482 2768   1.510   0.468   7.587  1.7947 -0.4782  0.0945
    4MOL   H483 2769   1.476   0.390   7.305  0.8582 -1.8246  1.0000
    4MOL   H484 2770   1.339   0.389   7.413  0.3172 -0.2813 -0.5405
    4MOL   H485 2771   1.388   0.640   7.460  0.1261  1.9181 -1.1126
    4MOL   H486 2772   1.502   0.624   7.328  0.3919  1.1962  0.5501
    4MOL   H487 2773   1.196   0.561   7.309 -0.0987  0.3829 -0.4643
    4MOL   H488 2774   1.322   0.553   7.180  4.2120  1.6625  1.1278
    4MOL   H489 2775   1.170   0.755   7.205 -0.5608 -0.0071 -0.2180
    4MOL   H490 2776   1.269   0.799   7.348  2.1739  0.1536 -1.1005
    4MOL   H491 2777   1.435   0.751   7.092  1.2386  0.3040  0.5841
    4MOL   H492 2778   1.321   0.881   7.084  2.0065  2.6147  1.4442
    4MOL   H493 2779   1.503   0.862   7.319  0.5970 -1.0647 -0.5934
    4MOL   H494 2780   1.407   1.001   7.271 -0.4980 -0.7696  0.3756
    4MOL   H495 2781   1.657   0.922   7.144 -1.6297 -1.6376  0.1378
    4MOL   C496 2782   1.581   1.110   7.120  0.2890  0.1418 -0.5210
    4MOL   O497 2783   1.485   1.185   7.141  0.1695  0.4116  0.2396
    4MOL   C498 2784   1.711   1.168   7.072  0.6470  0.3647 -0.7454
    4MOL   C499 2785   1.692   1.314   7.014  0.8188 -0.1844  0.0990
    4MOL   C500 2786   1.835   1.360   6.969  0.0133  0.0359  0.2851
    4MOL   C501 2787   1.836   1.478   6.872 -0.1543 -0.1824 -0.1829
    4MOL   C502 2788   1.742   1.595   6.890  0.6194  0.0198 -0.2189
    4MOL   O503 2789   1.777   1.694   6.946  0.1343 -0.1854  0.0529
    4MOL   N504 2790   1.620   1.578   6.842  0.5208  0.9242  0.1826
    4MOL   C505 2791   1.512   1.675   6.809 -0.3730 -0.0885  0.7223
    4MOL   C506 2792   1.368   1.640   6.853  0.2404  0.1858  0.3372
    4MOL   C507 2793   1.368   1.572   6.988  0.4634  0.3367 -0.4577
    4MOL   C508 2794   1.228   1.548   7.043  0.4252 -0.2861 -1.0374
    4MOL   C509 2795   1.151   1.675   7.094 -0.8132 -0.1637 -0.1753
    4MOL   C510 2796   1.030   1.632   7.183 -0.1370  0.6836  0.5580
    4MOL   N511 2797   1.070   1.592   7.319  0.2263 -0.3224 -0.7835
    4MOL   H512 2798   1.775   1.184   7.159  0.1567  1.0993 -0.5182
    4MOL   H513 2799   1.764   1.096   7.009 -0.8771 -0.2637 -1.3232
    4MOL   H514 2800   1.623   1.300   6.931  0.5618 -1.1117  0.4629
    4MOL   H515 2801   1.639   1.384   7.079  0.0333 -1.6832  1.0909
    4MOL   H516 2802   1.877   1.282   6.906 -0.1479  1.1894 -1.2608
    4MOL   H517 2803   1.906   1.364   7.052  0.7497  2.3776 -0.4292
    4MOL   H518 2804   1.812   1.431   6.777 -0.7006 -2.9129  1.2388
    4MOL   H519 2805   1.940   1.512   6.871  0.0770 -0.8769 -0.2270
    4MOL   H520 2806   1.614   1.496   6.783 -2.4886  0.8108  0.5730
    4MOL   H521 2807   1.541   1.773   6.845 -0.2246 -0.2326  0.9980
    4MOL   H522 2808   1.519   1.681   6.700 -0.9984  2.0474  0.7705
    4MOL   H523 2809   1.307   1.728   6.833  1.3484  1.4866  2.4998
    4MOL   H524 2810   1.328   1.579   6.773  1.4507  1.6257 -1.4121
    4MOL   H525 2811   1.417   1.635   7.062  1.5474 -0.3324 -0.6035
    4MOL   H526 2812   1.409   1.471   6.981 -1.0449 -0.1859 -2.1729
    4MOL   H527 2813   1.174   1.483   6.973 -0.5545 -0.1420 -0.4297
    4MOL   H528 2814   1.251   1.496   7.136  0.2502  1.8772  0.2435
    4MOL   H529 2815   1.216   1.734   7.158 -1.9682  0.9919 -0.0479
    4MOL   H530 2816   1.124   1.744   7.015  0.5285 -0.4157 -0.8605
    4MOL   H531 2817   0.975   1.545   7.148  3.4426 -1.8044  0.8980
    4MOL   H532 2818   0.963   1.719   7.188  0.7953  1.4321  0.2702
    4MOL   H533 2819   1.165   1.564   7.337 -0.2257 -0.8560  0.8583
    4MOL   C534 2820   0.994   1.590   7.428  0.2909 -0.4625  0.0862
    4MOL   O535 2821   0.878   1.628   7.429 -0.5127 -0.0532 -0.6113
    4MOL   C536 2822   1.057   1.524   7.551 -0.2409 -0.2414  0.7954
    4MOL   C537 2823   1.057   1.610   7.677  0.5609 -0.3074  0.3572
    4MOL   C538 2824   1.128   1.545   0.093 -0.2057  0.4895  0.4008
    4MOL   C539 2825   1.282   1.554   0.083 -0.9197 -0.9733 -0.4434
    4MOL   C540 2826   1.342   1.701   0.098 -0.1410  0.0493  0.0846
    4MOL   O541 2827   1.321   1.775   0.190 -0.7854 -0.5407 -0.0071
    4MOL   N542 2828   1.417   1.738   7.704  0.4802 -0.3328  0.6412
    4MOL   C543 2829   1.465   1.878   7.694  0.1058  0.4173 -0.0473
    4MOL   C544 2830   1.451   1.933   7.558 -0.1713  0.0406  0.0023
    4MOL   C545 2831   1.302   1.954   7.511 -0.4358 -0.3533 -0.3338
    4MOL   C546 2832   1.274   2.060   7.401 -0.2159 -0.2920  0.5266
    4MOL   C547 2833   1.119   2.085   7.386 -0.2349 -0.7178  0.6525
    4MOL   C548 2834   1.027   1.976   7.329  0.1413  0.0433 -0.1582
    4MOL   N549 2835   0.903   2.031   7.272  0.0200  0.1549  0.2531
    4MOL   H550 2836   1.009   1.428   7.569 -1.9976  0.6247  0.8648
    4MOL   H551 2837   1.163   1.502   7.535 -0.0622 -0.9898  2.8477
    4MOL   H552 2838   1.083   1.713   7.655 -0.0413  0.4512  3.0007
    4MOL   H553 2839   0.953   1.622   0.001  0.4943  0.5251 -0.1682
    4MOL   H554 2840   1.097   1.442   0.109  1.1826  0.2371  1.5604
    4MOL   H555 2841   1.093   1.598   0.181 -1.0024 -0.2477  0.5381
    4MOL   H556 2842   1.316   1.511   7.697  0.1639  1.5235 -1.2613
    4MOL   H557 2843   1.321   1.484   0.156  0.8613 -0.0106 -0.4497
    4MOL   H558 2844   1.418   1.682   7.620 -0.0473 -0.2282  0.5617
    4MOL   H559 2845   1.420   1.947   0.056 -1.1525 -0.8886  0.4486
    4MOL   H560 2846   1.573   1.871   0.004  0.3255  0.2631 -1.3754
    4MOL   H561 2847   1.502   2.029   7.545 -0.1923 -0.0640 -0.8697
    4MOL   H562 2848   1.511   1.877   7.486 -1.7894 -1.3691 -0.2837
    4MOL   H563 2849   1.245   1.980   7.600  2.0721  0.9173  0.9712
    4MOL   H564 2850   1.259   1.860   7.477 -1.3351  0.4493 -1.4856
    4MOL   H565 2851   1.325   2.151   7.434 -0.5427 -0.1188  0.5557
    4MOL   H566 2852   1.299   2.021   7.303 -2.6422  0.2541 -0.3554
    4MOL   H567 2853   1.086   2.113   7.486 -0.1237 -2.8607  1.3065
    4MOL   H568 2854   1.107   2.178   7.331  1.0335 -0.7947  0.2293
    4MOL   H569 2855   0.998   1.910   7.411  0.4249  0.9937  0.7180
    4MOL   H570 2856   1.075   1.901   7.267 -0.8660 -2.9294  2.4883
    4MOL   H571 2857   0.844   2.075   7.341 -0.8773  2.6554 -2.0535
    4MOL   C572 2858   0.859   2.012   7.143 -0.1683 -0.4747 -1.1124
    4MOL   O573 2859   0.919   1.958   7.053 -0.2380  0.3516  0.3627
    4MOL   C574 2860   0.713   2.047   7.114 -0.0771 -0.0570  0.2887
    4MOL   C575 2861   0.632   1.945   7.025  0.0941  0.1876  0.7270
    4MOL   C576 2862   0.571   1.827   7.105  0.4103  0.1291 -0.8689
    4MOL   C577 2863   0.672   1.716   7.152  0.4360 -0.2975  0.2693
    4MOL   C578 2864   0.609   1.576   7.181 -0.7843  0.4818  0.1029
    4MOL   O579 2865   0.537   1.513   7.105 -0.4013 -0.4831 -0.3991
    4MOL   N580 2866   0.637   1.522   7.301 -0.2910  0.0289  0.3856
    4MOL   C581 2867   0.570   1.400   7.358  0.1052 -0.0716 -0.5588
    4MOL   C582 2868   0.644   1.374   7.496 -0.1043 -1.1019 -0.2326
    4MOL   C583 2869   0.598   1.469   7.608 -0.1213 -0.0051 -0.3182
    4MOL   C584 2870   0.608   1.411   0.046 -0.0663  0.2491 -0.6619
    4MOL   C585 2871   0.747   1.386   0.090  0.0049  0.2410 -0.3233
    4MOL   C586 2872   0.750   1.361   0.248 -0.7062 -0.1731  0.4425
    4MOL   N587 2873   0.888   1.318   0.287  1.0232  0.4013 -0.1730
    4MOL   H588 2874   0.660   2.058   7.209 -1.1467 -1.4114 -0.1414
    4MOL   H589 2875   0.715   2.141   7.059 -2.0391  0.0321  0.3380
    4MOL   H590 2876   0.551   1.995   6.971  0.6250 -0.0248 -0.2772
    4MOL   H591 2877   0.687   1.900   6.943  4.2992  1.8730  2.4596
    4MOL   H592 2878   0.490   1.785   7.045  0.0072 -0.4209  0.0525
    4MOL   H593 2879   0.514   1.881   7.180  2.0027  3.2964 -1.8384
    4MOL   H594 2880   0.725   1.760   7.236  1.3666 -1.0661  0.0886
    4MOL   H595 2881   0.747   1.702   7.074  0.4783  0.9659  0.0802
    4MOL   H596 2882   0.715   1.563   7.349  0.6308  0.5944 -1.5457
    4MOL   H597 2883   0.461   1.408   7.355  0.2109  2.2431  1.0056
    4MOL   H598 2884   0.602   1.324   7.287  1.4012 -0.6851  0.6590
    4MOL   H599 2885   0.616   1.274   7.532 -0.7763 -0.6453  0.5335
    4MOL   H600 2886   0.752   1.380   7.489 -0.1992  3.0062  0.5090
    4MOL   H601 2887   0.497   1.508   7.595 -0.4669 -0.6752  0.3493
    4MOL   H602 2888   0.655   1.562   7.598 -2.2414  1.2155 -1.4883
    4MOL   H603 2889   0.567   1.477   0.122  1.1609  0.8502 -0.5060
    4MOL   H604 2890   0.551   1.319   0.052  3.2706 -1.7902  0.7612
    4MOL   H605 2891   0.788   1.304   0.031 -0.1789  0.5494 -0.8825
    4MOL   H606 2892   0.814   1.470   0.071 -1.6420  1.7850  0.5307
    4MOL   H607 2893   0.684   1.280   0.276 -1.0333 -0.0188  0.1206
    4MOL   H608 2894   0.708   1.441   0.308 -4.1064 -1.0228 -0.7209
    4MOL   H609 2895   0.914   1.224   0.263  1.0062 -0.0958  1.7310
    4MOL   C610 2896   0.960   1.381   0.373 -0.4915  0.0253 -0.5344
    4MOL   O611 2897   0.918   1.476   0.445 -0.1964  0.6409  0.3484
    4MOL   C612 2898   1.102   1.316   0.398  0.1509 -0.3336  0.2973
    4MOL   C613 2899   1.180   1.409   0.493  0.2044 -0.0338 -0.0389
    4MOL   C614 2900   1.323   1.353   0.507 -0.8295  0.1166 -0.0602
    4MOL   C615 2901   1.333   1.246   0.616  0.0568 -0.2863  0.0577
    4MOL   C616 2902   1.469   1.196   0.634 -0.1763 -0.5041  0.6007
    4MOL   O617 2903   1.532   1.153   0.546 -0.6138  0.2877 -0.1420
    4MOL   N618 2904   1.510   1.195   0.762 -0.8055 -0.8103 -0.1534
    4MOL   C619 2905   1.652   1.181   0.811  0.1720 -0.7754 -0.3248
    4MOL   C620 2906   1.733   1.307   0.791  0.1598 -0.0457  0.6774
    4MOL   C621 2907   1.873   1.295   0.851 -0.2909 -0.7426 -0.4018
    4MOL   C622 2908   1.947   1.429   0.828  0.1228  0.8896 -0.0523
    4MOL   C623 2909   2.096   1.443   0.881 -1.0786  0.2306  0.0175
    4MOL   C624 2910   2.178   1.336   0.819 -1.0115 -0.0871 -0.4037
    4MOL   N625 2911   2.321   1.367   0.806  0.2243  0.1712  0.0799
    4MOL   H626 2912   1.102   1.216   0.440 -1.4009 -1.5843 -2.5086
    4MOL   H627 2913   1.141   1.312   0.296 -1.2359 -1.7600 -0.2028
    4MOL   H628 2914   1.181   1.514   0.464 -1.1560  0.5634  1.9276
    4MOL   H629 2915   1.121   1.419   0.584  0.1314 -0.0456 -0.0845
    4MOL   H630 2916   1.398   1.429   0.527  1.4914 -2.2065  0.3312
    4MOL   H631 2917   1.351   1.320   0.407 -0.4006 -1.3380  0.5253
    4MOL   H632 2918   1.265   1.163   0.600  0.9202 -0.7899 -1.0556
    4MOL   H633 2919   1.301   1.299   0.706 -2.2058  0.0294 -0.9057
    4MOL   H634 2920   1.437   1.215   0.829 -0.0043  1.7232  0.0112
    4MOL   H635 2921   1.646   1.166   0.918  1.1594  0.1535 -0.1299
    4MOL   H636 2922   1.702   1.095   0.769 -3.3091 -2.7511 -0.6293
    4MOL   H637 2923   1.744   1.338   0.687  1.4206 -0.0245  0.8019
    4MOL   H638 2924   1.686   1.392   0.840  0.6433 -1.0159  2.9239
    4MOL   H639 2925   1.932   1.220   0.798  0.7477 -0.0983 -0.1754
    4MOL   H640 2926   1.856   1.268   0.955 -1.1412  0.1349 -0.2998
    4MOL   H641 2927   1.935   1.458   0.724  0.6338  1.9081  0.1650
    4MOL   H642 2928   1.884   1.509   0.866 -0.3325  1.2221 -1.4962
    4MOL   H643 2929   2.132   1.539   0.844  2.4180 -1.0052  0.0653
    4MOL   H644 2930   2.106   1.446   0.989 -0.2817  0.2532 -0.0553
    4MOL   H645 2931   2.145   1.315   0.717  2.3483 -2.1081 -1.1555
    4MOL   H646 2932   2.175   1.240   0.871  0.3180  0.9148  1.5970
    4MOL   H647 2933   2.352   1.450   0.854 -2.1588  0.9930  0.2566
    4MOL   C648 2934   2.408   1.287   0.746  0.0829  0.1401 -0.0682
    4MOL   O649 2935   2.380   1.165   0.727  0.2434 -0.1783 -0.2689
    4MOL   C650 2936   2.554   1.332   0.722 -0.0949 -0.4449  0.3710
    4MOL   C651 2937   2.564   1.385   0.579 -0.5010 -0.3234 -0.3610
    4MOL   C652 2938   2.534   1.535   0.564  0.4550 -0.3405 -0.0694
    4MOL   C653 2939   2.514   1.577   0.420  0.2273  0.9024 -0.2792
    4MOL   C654 2940   2.359   1.583   0.385  0.6850  0.0407 -0.0116
    4MOL   O655 2941   2.278   1.653   0.446 -0.1965 -0.1852 -0.7983
    4MOL   N656 2942   2.331   1.485   0.293  0.1285  0.1116 -0.3395
    4MOL   C657 2943   2.198   1.422   0.286  0.3850 -0.7794 -0.1829
    4MOL   C658 2944   2.191   1.304   0.394 -1.0432 -0.1948  1.3310
    4MOL   C659 2945   2.048   1.260   0.389 -0.3691  0.1498  0.2093
    4MOL   C660 2946   2.033   1.136   0.478 -0.0843  0.6488  0.1856
    4MOL   C661 2947   1.888   1.102   0.492  0.1087 -0.0001  0.2664
    4MOL   C662 2948   1.864   0.977   0.575 -0.4738  0.4267  0.1914
    4MOL   N663 2949   1.721   0.929   0.560 -0.0795  0.5582  0.2427
    4MOL   H664 2950   2.575   1.411   0.793  1.0566 -1.9495  1.7217
    4MOL   H665 2951   2.627   1.253   0.738  1.9749  1.4058  0.3026
    4MOL   H666 2952   2.663   1.369   0.536 -1.4547  0.2982 -2.8974
    4MOL   H667 2953   2.497   1.320   0.524  1.2036 -2.0959 -0.4032
    4MOL   H668 2954   2.618   1.594   0.601  1.1090  0.0175 -2.0156
    4MOL   H669 2955   2.452   1.578   0.621  1.4943  0.4972  0.8259
    4MOL   H670 2956   2.569   1.523   0.343  3.5440  0.6725  2.1245
    4MOL   H671 2957   2.552   1.678   0.410  1.6209  0.2572 -1.6789
    4MOL   H672 2958   2.409   1.444   0.244  0.3662 -2.0102  1.7171
    4MOL   H673 2959   2.129   1.505   0.302 -0.1211 -0.6131 -2.9529
    4MOL   H674 2960   2.190   1.385   0.183  2.4531 -1.4132 -0.1361
    4MOL   H675 2961   2.250   1.218   0.361 -0.7161  0.1695  0.9688
    4MOL   H676 2962   2.210   1.338   0.496  0.4194  1.5277  0.4997
    4MOL   H677 2963   2.026   1.238   0.284  0.3742  0.9425 -0.1101
    4MOL   H678 2964   1.979   1.341   0.412  0.9710  1.2785  0.3042
    4MOL   H679 2965   2.084   1.050   0.434  0.6445  1.1433  0.0443
    4MOL   H680 2966   2.079   1.153   0.575  0.5486  1.6261 -0.2717
    4MOL   H681 2967   1.836   1.182   0.545 -0.2220  1.2011 -1.8095
    4MOL   H682 2968   1.846   1.092   0.393 -0.9927  1.1823  0.6012
    4MOL   H683 2969   1.890   0.998   0.679 -2.7075 -1.0396  1.0733
    4MOL   H684 2970   1.943   0.905   0.552 -2.0467 -1.5666  0.9189
    4MOL   H685 2971   1.657   0.999   0.526 -0.4271  0.3691  0.5004
    4MOL   C686 2972   1.681   0.801   0.562  0.6722 -0.9080 -0.1374
    4MOL   O687 2973   1.751   0.703   0.591  0.4268  0.7539  0.1613
    4MOL   C688 2974   1.536   0.786   0.524  0.2918  0.0469  0.0872
    4MOL   C689 2975   1.511   0.702   0.403  0.0469 -0.1944 -0.4884
    4MOL   C690 2976   1.579   0.760   0.280  0.5543 -0.1302 -0.0399
    4MOL   C691 2977   1.581   0.665   0.163 -0.8844  0.2753  0.2521
    4MOL   C692 2978   1.457   0.676   0.082 -0.1941 -0.2956 -0.1816
    4MOL   O693 2979   1.468   0.727   7.678  0.0047 -0.0897 -0.1377
    4MOL   N694 2980   1.351   0.615   0.132 -0.1293  0.3554  0.0852
    4MOL   C695 2981   1.216   0.612   0.078 -0.4323  0.1166  0.8020
    4MOL   C696 2982   1.177   0.475   0.012  1.0302 -0.4214 -0.4947
    4MOL   C697 2983   1.194   0.352   0.101  1.1144  0.1633 -0.0010
    4MOL   C698 2984   1.105   0.342   0.227  0.1647 -0.0578  0.7917
    4MOL   C699 2985   1.103   0.204   0.292  0.5274 -0.4014 -0.0882
    4MOL   C700 2986   1.232   0.159   0.370  0.7451  0.8825  0.3774
    4MOL   N701 2987   1.271   0.252   0.475  0.0327 -0.0058 -0.1622
    4MOL   H702 2988   1.494   0.747   0.617 -0.8012 -1.1371 -0.8959
    4MOL   H703 2989   1.491   0.885   0.528  1.8027  0.7778 -0.5597
    4MOL   H704 2990   1.558   0.606   0.423 -1.2662 -1.1992 -2.1660
    4MOL   H705 2991   1.405   0.681   0.395  0.3581 -2.5752  1.0778
    4MOL   H706 2992   1.683   0.785   0.302  0.5600 -1.8918  2.0689
    4MOL   H707 2993   1.531   0.856   0.260  2.6795  1.1470  0.7456
    4MOL   H708 2994   1.618   0.565   0.185 -0.4760  0.6415  1.2698
    4MOL   H709 2995   1.655   0.702   0.091 -1.0197 -0.4664 -0.2723
    4MOL   H710 2996   1.366   0.568   0.220  1.7972 -0.6471 -0.7430
    4MOL   H711 2997   1.148   0.639   0.159 -0.9434  2.0968 -0.2527
    4MOL   H712 2998   1.218   0.693   0.004 -0.5839 -1.3794 -0.8744
    4MOL   H713 2999   1.074   0.484   7.685  0.6003 -0.5973  0.7078
    4MOL   H714 3000   1.236   0.470   7.628  1.1328  1.4978 -0.5547
    4MOL   H715 3001   1.298   0.349   0.135  0.6447 -3.1155  1.3513
    4MOL   H716 3002   1.182   0.264   0.037  1.6753  0.3518 -0.3703
    4MOL   H717 3003   1.134   0.410   0.307  3.2768  0.0110 -0.3054
    4MOL   H718 3004   1.000   0.361   0.206  0.7967  1.7206 -0.8142
    4MOL   H719 3005   1.013   0.201   0.354 -0.7589  2.6014 -1.7009
    4MOL   H720 3006   1.094   0.123   0.219 -0.8449 -1.3697  1.1296
    4MOL   H721 3007   1.324   0.140   0.314  0.1394  2.6060 -1.2357
    4MOL   H722 3008   1.201   0.067   0.420  0.7947  0.6878  0.0485
    4MOL   H723 3009   1.226   0.244   0.566 -1.3383 -0.3781 -0.8471
    4MOL   C724 3010   1.372   0.338   0.468  0.6824  0.4538  0.0064
    4MOL   O725 3011   1.432   0.362   0.365  0.0367 -0.5246 -0.2319
    4MOL   C726 3012   1.415   0.402   0.600 -0.2894  0.6590 -0.1820
    4MOL   C727 3013   1.568   0.391   0.616 -1.0510 -0.6071 -0.5210
    4MOL   C728 3014   1.604   0.437   0.757 -0.1661  0.4613  0.0654
    4MOL   C729 3015   1.749   0.442   0.788 -0.0690  0.3586 -0.5647
    4MOL   C730 3016   1.791   0.535   0.899 -0.0459 -0.1063 -0.5070
    4MOL   O731 3017   1.833   0.501   1.008 -0.3526 -0.0666 -0.9762
    4MOL   N732 3018   1.772   0.668   0.871  0.6923  0.1397 -0.1152
    4MOL   C733 3019   1.792   0.786   0.956  0.3405  0.3728  0.3698
    4MOL   C734 3020   1.656   0.823   1.013 -0.4601 -0.3057 -0.2348
    4MOL   C735 3021   1.550   0.835   0.909 -0.4167 -0.0080 -1.0716
    4MOL   C736 3022   1.417   0.887   0.960  0.0784 -0.0586  0.2444
    4MOL   C737 3023   1.309   0.877   0.852 -0.4105  0.0982  0.4157
    4MOL   C738 3024   1.172   0.891   0.915  0.0996  1.0892  0.0881
    4MOL   N739 3025   1.074   0.897   0.807  0.0682 -0.1987 -0.1703
    4MOL   H740 3026   1.381   0.505   0.587  0.9022  0.9794 -0.8813
    4MOL   H741 3027   1.363   0.355   0.684  0.7008 -0.1413 -0.0102
    4MOL   H742 3028   1.602   0.287   0.609 -2.9036 -1.2997  0.5783
    4MOL   H743 3029   1.627   0.452   0.547 -1.3840  0.2962 -0.0139
    4MOL   H744 3030   1.557   0.371   0.829 -1.0848  0.4329 -0.5492
    4MOL   H745 3031   1.567   0.537   0.775  2.1387  1.0156  1.9485
    4MOL   H746 3032   1.796   0.477   0.696 -1.8461  1.2623 -1.1620
    4MOL   H747 3033   1.786   0.341   0.806 -0.2093  0.6541  1.5325
    4MOL   H748 3034   1.734   0.684   0.779 -3.1145 -3.2360  0.7186
    4MOL   H749 3035   1.844   0.770   1.050  0.2783  3.4864  1.0101
    4MOL   H750 3036   1.826   0.869   0.893 -2.3473 -0.3596 -2.1356
    4MOL   H751 3037   1.623   0.753   1.090  1.4230  0.2994  1.1638
    4MOL   H752 3038   1.676   0.922   1.053 -1.6608  0.3857 -1.2944
    4MOL   H753 3039   1.518   0.735   0.882 -0.9047  0.0271 -0.6472
    4MOL   H754 3040   1.576   0.894   0.821  0.6662  0.1177 -0.6719
    4MOL   H755 3041   1.389   0.831   1.049 -2.4752  0.8155  0.0282
    4MOL   H756 3042   1.434   0.990   0.990 -0.6249 -0.0221  0.5277
    4MOL   H757 3043   1.330   0.967   0.794  1.5189 -0.6282 -0.0462
    4MOL   H758 3044   1.324   0.788   0.791 -0.3351  0.7396 -0.5207
    4MOL   H759 3045   1.165   0.984   0.973  0.8382  0.6231  0.9428
    4MOL   H760 3046   1.157   0.807   0.982 -1.8669  1.3621  0.0167
    4MOL   H761 3047   1.113   0.842   0.731  0.3254 -1.1202  0.6321
    4MOL   H762 3048   0.994   0.847   0.842  1.0562 -1.8549 -0.2187
    5MOL     C1 3049   2.467   1.220   4.610 -0.1719  0.1243  0.0010
    5MOL     O2 3050   2.528   1.219   4.720  0.1467 -0.2846  0.4090
    5MOL     C3 3051   2.317   1.219   4.600  0.5061 -0.4451 -0.6854
    5MOL     C4 3052   2.243   1.228   4.743 -0.0820  0.0459 -0.2827
    5MOL     C5 3053   2.094   1.248   4.720 -0.0543 -0.5846 -0.0591
    5MOL     C6 3054   2.050   1.388   4.664  0.6343  0.4436 -0.0463
    5MOL     C7 3055   2.076   1.513   4.749  0.2506 -0.3544  0.0318
    5MOL     O8 3056   2.021   1.519   4.859 -0.1259  1.0157  0.0391
    5MOL     N9 3057   2.160   1.609   4.704  0.0315 -1.0541  0.4396
    5MOL    C10 3058   2.214   1.719   4.772 -0.2451 -0.3052 -0.1484
    5MOL    C11 3059   2.367   1.722   4.785  0.4793  0.2423  0.1535
    5MOL    C12 3060   2.450   1.681   4.661 -0.2671 -0.1386  0.2342
    5MOL    C13 3061   2.599   1.707   4.678 -0.0654  0.1718  0.0179
    5MOL    C14 3062   2.704   1.649   4.583 -0.6083 -0.2279  0.1929
    5MOL    C15 3063   2.820   1.740   4.599  0.8672  0.0165  0.0418
    5MOL    N16 3064   2.930   1.699   4.515 -0.0713  0.2838  0.3238
    5MOL    H17 3065   2.298   1.309   4.542  1.1981  0.2080  0.1001
    5MOL    H18 3066   2.279   1.136   4.539 -3.0745  1.3115 -1.0061
    5MOL    H19 3067   2.260   1.134   4.795 -2.8277 -0.2805  0.0924
    5MOL    H20 3068   2.279   1.307   4.810  0.2269 -0.7140  0.4577
    5MOL    H21 3069   2.046   1.240   4.818  0.1004 -0.0887  0.0574
    5MOL    H22 3070   2.047   1.170   4.660  1.1411  0.3427 -2.2632
    5MOL    H23 3071   1.942   1.400   4.664  0.5346 -0.4090 -0.3233
    5MOL    H24 3072   2.089   1.406   4.564  3.4529 -0.3361  0.8434
    5MOL    H25 3073   2.190   1.595   4.608 -0.5306 -1.3137  0.2961
    5MOL    H26 3074   2.181   1.808   4.718  0.0090 -1.3259 -2.0510
    5MOL    H27 3075   2.173   1.727   4.872  0.6775  1.4626  0.1038
    5MOL    H28 3076   2.391   1.825   4.810  1.1940  0.4888 -1.4663
    5MOL    H29 3077   2.393   1.660   4.871  0.9252 -1.5848 -1.2683
    5MOL    H30 3078   2.416   1.721   4.566 -0.4503  1.3596  0.9129
    5MOL    H31 3079   2.427   1.576   4.643 -1.7865 -0.0629  1.5248
    5MOL    H32 3080   2.611   1.815   4.692  1.5966  0.0968 -0.6515
    5MOL    H33 3081   2.630   1.676   4.778  0.3747 -1.8691 -0.7249
    5MOL    H34 3082   2.721   1.546   4.616 -1.9195  0.0089  1.6613
    5MOL    H35 3083   2.668   1.651   4.480 -0.9277 -0.0969  0.3063
    5MOL    H36 3084   2.853   1.735   4.703 -1.0400 -0.9401  0.6350
    5MOL    H37 3085   2.798   1.843   4.571  1.3102 -0.3782 -1.8485
    5MOL    H38 3086   2.957   1.606   4.545 -0.6987  0.6820  2.1457
    5MOL    H39 3087   2.512   1.222   4.511  2.1334  0.0298  1.0232
    5MOL    C40 3088   2.998   1.763   4.417  0.3111 -0.5255 -0.1921
    5MOL    O41 3089   2.961   1.872   4.375  0.0946 -0.2910 -0.1820
    5MOL    C42 3090   3.102   1.674   4.344 -0.6065  0.4118 -0.2263
    5MOL    C43 3091   3.114   1.691   4.186 -0.6258  0.0086 -0.5986
    5MOL    C44 3092   2.991   1.648   4.115 -0.6224 -0.6774  0.2846
    5MOL    C45 3093   3.001   1.685   3.961  0.3141 -0.3002 -0.6057
    5MOL    C46 3094   2.904   1.602   3.879  0.4656 -0.6899  0.6808
    5MOL    O47 3095   2.784   1.616   3.894 -0.0058 -0.4867  0.3112
    5MOL    N48 3096   2.953   1.518   3.784  0.1226 -0.8177  0.0084
    5MOL    C49 3097   2.871   1.427   3.702 -0.3063 -0.5524  0.0287
    5MOL    C50 3098   2.863   1.290   3.780  0.4365 -0.4569  1.2525
    5MOL    C51 3099   2.777   1.183   3.717 -0.1691 -0.0628  0.4192
    5MOL    C52 3100   2.753   1.065   3.809  0.2086  0.2276 -0.9045
    5MOL    C53 3101   2.672   0.955   3.738 -0.2741  0.3937  0.7670
    5MOL    C54 3102   2.620   0.853   3.829  0.1336 -0.0723 -0.4722
    5MOL    N55 3103   2.530   0.767   3.754 -0.0862  0.5513 -0.1150
    5MOL    H56 3104   3.198   1.696   4.391 -1.2471  0.9001  0.8668
    5MOL    H57 3105   3.086   1.567   4.358  0.6473  0.2697  0.1592
    5MOL    H58 3106   3.141   1.796   4.172  0.5328 -0.2300 -0.2175
    5MOL    H59 3107   3.204   1.637   4.161 -0.1854  1.4917 -2.2953
    5MOL    H60 3108   2.903   1.694   4.159 -0.0739  1.6405 -0.9731
    5MOL    H61 3109   2.982   1.539   4.121 -0.0731 -0.7757 -0.5967
    5MOL    H62 3110   3.099   1.670   3.917  0.5852  0.1612 -0.1652
    5MOL    H63 3111   2.985   1.792   3.951  2.1881  0.2041  1.4526
    5MOL    H64 3112   3.053   1.526   3.774  0.0582 -0.6886 -0.5294
    5MOL    H65 3113   2.778   1.478   3.679  0.6778  1.4868  0.3941
    5MOL    H66 3114   2.933   1.402   3.615  0.4765 -0.3196  0.5118
    5MOL    H67 3115   2.967   1.257   3.785  0.1725 -1.6955 -0.6316
    5MOL    H68 3116   2.824   1.312   3.879 -2.1163  5.1752 -0.8042
    5MOL    H69 3117   2.819   1.150   3.622 -2.3345  0.9650 -0.9355
    5MOL    H70 3118   2.685   1.231   3.685 -0.9090 -1.3568  0.5817
    5MOL    H71 3119   2.848   1.023   3.840 -1.5283 -2.3682  1.1462
    5MOL    H72 3120   2.705   1.090   3.904  0.1097 -1.0034 -0.6203
    5MOL    H73 3121   2.583   0.998   3.691 -1.4259 -1.8696  0.8479
    5MOL    H74 3122   2.739   0.907   3.666 -1.3950  0.5220 -0.3862
    5MOL    H75 3123   2.564   0.897   3.912  1.5488 -1.9637  1.5708
    5MOL    H76 3124   2.707   0.795   3.860  1.4471  0.2909 -3.3803
    5MOL    H77 3125   2.570   0.708   3.682 -1.8718 -3.0402  1.7363
    5MOL    C78 3126   2.406   0.736   3.788 -0.8198  0.3913  0.3169
    5MOL    O79 3127   2.341   0.787   3.876 -0.3010 -0.2308 -0.2668
    5MOL    C80 3128   2.345   0.624   3.707 -0.1328  0.0380  0.3277
    5MOL    C81 3129   2.195   0.619   3.713 -0.2433  0.3770  0.2251
    5MOL    C82 3130   2.127   0.739   3.640  0.3275  0.9113 -0.0183
    5MOL    C83 3131   1.972   0.721   3.633 -0.0795 -0.5907 -0.8504
    5MOL    C84 3132   1.925   0.648   3.511  0.6334 -0.6681 -0.3087
    5MOL    O85 3133   2.002   0.633   3.415 -0.0018 -0.3953  0.0654
    5MOL    N86 3134   1.799   0.596   3.504  0.1578  0.3820 -0.1328
    5MOL    C87 3135   1.728   0.566   3.378 -0.4979 -0.3032  0.6607
    5MOL    C88 3136   1.653   0.699   3.350  0.2670  0.5176  0.0568
    5MOL    C89 3137   1.524   0.687   3.264 -0.6055  0.2015  0.3475
    5MOL    C90 3138   1.549   0.622   3.122  0.1865 -0.9785 -0.3678
    5MOL    C91 3139   1.411   0.591   3.056  0.0168 -0.7062 -0.4237
    5MOL    C92 3140   1.419   0.519   2.921  0.7100 -0.7286 -0.1800
    5MOL    N93 3141   1.472   0.605   2.816 -0.5506  0.1261  0.6303
    5MOL    H94 3142   2.378   0.614   3.604  2.3762  0.1056  1.0873
    5MOL    H95 3143   2.371   0.532   3.759  0.1186  0.4244  0.8950
    5MOL    H96 3144   2.165   0.519   3.680  1.1362  0.4060 -1.1803
    5MOL    H97 3145   2.159   0.623   3.816 -0.4799  0.9116  0.1205
    5MOL    H98 3146   2.169   0.743   3.540 -1.6397 -1.5330 -1.0080
    5MOL    H99 3147   2.150   0.832   3.692  0.8027 -1.0633  3.4852
    5MOL   H100 3148   1.924   0.819   3.628  2.5529  0.7174 -0.9439
    5MOL   H101 3149   1.942   0.651   3.711  3.2890 -1.2616 -0.0788
    5MOL   H102 3150   1.751   0.582   3.591 -0.6693  2.1564 -0.2742
    5MOL   H103 3151   1.803   0.544   3.302 -0.5282  1.4726  0.1088
    5MOL   H104 3152   1.662   0.479   3.377 -0.8416 -0.0410 -0.8948
    5MOL   H105 3153   1.618   0.745   3.443 -1.6788  0.4270 -0.6051
    5MOL   H106 3154   1.725   0.776   3.325  1.3220 -0.4819 -0.0076
    5MOL   H107 3155   1.482   0.787   3.257 -1.4993 -0.0084  2.3274
    5MOL   H108 3156   1.463   0.622   3.326 -1.8151 -0.1071 -1.1400
    5MOL   H109 3157   1.605   0.687   3.055 -2.1821  0.6583 -0.8458
    5MOL   H110 3158   1.605   0.530   3.134  1.3499 -0.1739  0.4339
    5MOL   H111 3159   1.360   0.520   3.121 -0.1240  0.8429  1.1795
    5MOL   H112 3160   1.349   0.681   3.051 -0.0450 -0.7829 -1.0939
    5MOL   H113 3161   1.320   0.479   2.897 -0.0594 -0.9700  3.0840
    5MOL   H114 3162   1.474   0.427   2.938  1.8988  0.3406  1.9854
    5MOL   H115 3163   1.538   0.677   2.843  2.2235 -1.7235 -1.0004
    5MOL   C116 3164   1.444   0.585   2.685  0.1472  0.1429  0.2719
    5MOL   O117 3165   1.360   0.503   2.649 -0.2427 -0.2119 -0.2646
    5MOL   C118 3166   1.514   0.678   2.587  0.4842  0.1094 -0.6197
    5MOL   C119 3167   1.498   0.647   2.439 -0.0712 -0.1629  0.4002
    5MOL   C120 3168   1.582   0.750   2.364 -0.1778 -0.2619 -0.0250
    5MOL   C121 3169   1.581   0.718   2.215 -0.0651  0.3963 -0.2188
    5MOL   C122 3170   1.477   0.797   2.147 -0.3553 -0.1332 -0.2778
    5MOL   O123 3171   1.366   0.814   2.200  0.3753  0.3476 -0.6078
    5MOL   N124 3172   1.516   0.857   2.029  0.0091  0.0894 -0.2309
    5MOL   C125 3173   1.423   0.929   1.953 -0.0518  0.7325  0.3233
    5MOL   C126 3174   1.501   1.039   1.869  0.0772  0.5206  0.5155
    5MOL   C127 3175   1.433   1.079   1.738 -0.2680  0.0805  0.2055
    5MOL   C128 3176   1.298   1.154   1.760  0.4357  0.8486  0.4293
    5MOL   C129 3177   1.256   1.220   1.635  0.6782 -0.1185  0.5570
    5MOL   C130 3178   1.173   1.348   1.673  0.6851  0.0897 -0.4775
    5MOL   N131 3179   1.134   1.434   1.562  0.3740  0.0037  0.1872
    5MOL   H132 3180   1.488   0.780   2.614  1.0309  0.2475 -0.6178
    5MOL   H133 3181   1.617   0.659   2.616  0.1291  0.6083  1.0232
    5MOL   H134 3182   1.534   0.545   2.421 -0.9768 -0.0238 -2.3588
    5MOL   H135 3183   1.397   0.655   2.401 -1.2068 -1.3058  3.0212
    5MOL   H136 3184   1.684   0.759   2.401 -0.4762  0.2032  0.6860
    5MOL   H137 3185   1.541   0.847   2.395  0.6932 -0.1499  0.8068
    5MOL   H138 3186   1.566   0.610   2.211  0.4275  0.2223  1.9983
    5MOL   H139 3187   1.678   0.747   2.174  0.3558  3.5439  2.8037
    5MOL   H140 3188   1.612   0.849   1.998  0.1507 -1.2341  0.5023
    5MOL   H141 3189   1.380   0.852   1.890  0.3611  1.3708 -0.7413
    5MOL   H142 3190   1.349   0.982   2.014  1.6609  2.7352  0.7372
    5MOL   H143 3191   1.526   1.129   1.924 -0.5996 -0.0325  1.7573
    5MOL   H144 3192   1.592   0.984   1.841 -1.9152 -3.2221  1.0174
    5MOL   H145 3193   1.401   0.996   1.676  0.2684 -0.1250  0.2074
    5MOL   H146 3194   1.497   1.149   1.684 -0.6338 -1.4436 -2.2436
    5MOL   H147 3195   1.219   1.090   1.799  0.6005  0.2203 -0.2539
    5MOL   H148 3196   1.313   1.226   1.840  0.0830  2.7347 -1.1758
    5MOL   H149 3197   1.339   1.236   1.566 -1.7768  0.2957 -2.4145
    5MOL   H150 3198   1.179   1.168   1.578  3.0054 -1.1883 -1.7433
    5MOL   H151 3199   1.246   1.405   1.731 -0.1820 -1.1139  1.8498
    5MOL   H152 3200   1.087   1.325   1.736 -0.3696  2.3412 -1.0480
    5MOL   H153 3201   1.039   1.470   1.561  0.2568 -0.3059  0.2964
    5MOL   C154 3202   1.195   1.494   1.468 -0.8500  0.0606 -0.1272
    5MOL   O155 3203   1.314   1.499   1.461 -0.7934  0.3517 -0.2879
    5MOL   C156 3204   1.109   1.579   1.372 -0.0612 -0.0222  0.4340
    5MOL   C157 3205   1.105   1.725   1.417  0.9133 -0.6724 -0.3873
    5MOL   C158 3206   1.012   1.812   1.341 -0.3530  0.8162 -0.0881
    5MOL   C159 3207   1.027   1.827   1.189  0.0305 -0.6832 -0.2642
    5MOL   C160 3208   0.969   1.961   1.146 -0.1959 -0.0751 -0.8619
    5MOL   O161 3209   1.037   2.065   1.159  0.0957  0.1400  0.2803
    5MOL   N162 3210   0.842   1.964   1.107  0.1358 -0.2420 -0.0639
    5MOL   C163 3211   0.782   2.090   1.062  1.3638  0.3184 -0.4514
    5MOL   C164 3212   0.794   2.098   0.908 -0.2330 -0.2386  0.4775
    5MOL   C165 3213   0.707   2.202   0.840  0.0018  0.1210  0.3937
    5MOL   C166 3214   0.719   2.213   0.688 -0.4313 -1.3498  0.2439
    5MOL   C167 3215   0.696   2.082   0.612  0.5548  0.8178 -0.2822
    5MOL   C168 3216   0.662   2.093   0.464  0.5605 -0.0531  0.3332
    5MOL   N169 3217   0.776   2.152   0.396 -0.0121 -0.3723 -0.2367
    5MOL   H170 3218   1.144   1.575   1.268 -0.0143  1.6699  0.3700
    5MOL   H171 3219   1.009   1.537   1.375 -0.6970  1.5468  1.9998
    5MOL   H172 3220   1.055   1.725   1.514 -0.3512 -1.2581 -1.0264
    5MOL   H173 3221   1.206   1.763   1.431  0.5149 -0.2842  1.5267
    5MOL   H174 3222   1.019   1.908   1.393 -1.3009  1.8738 -1.8789
    5MOL   H175 3223   0.911   1.780   1.365  0.4653 -0.8535  1.2571
    5MOL   H176 3224   0.986   1.740   1.136 -1.0743 -1.0990  1.2253
    5MOL   H177 3225   1.131   1.844   1.163  0.5397  0.3610  2.3085
    5MOL   H178 3226   0.791   1.879   1.089 -1.3846  0.8002 -0.8236
    5MOL   H179 3227   0.677   2.081   1.087  1.1110 -0.8681 -1.8160
    5MOL   H180 3228   0.823   2.180   1.107  0.1664  1.7192 -2.0902
    5MOL   H181 3229   0.901   2.109   0.887 -0.1057  0.2412  1.3698
    5MOL   H182 3230   0.770   2.003   0.860  2.5891 -0.2141 -1.1201
    5MOL   H183 3231   0.729   2.295   0.892 -1.5007  0.0792  1.1077
    5MOL   H184 3232   0.605   2.170   0.861  0.1019 -0.5649 -0.1578
    5MOL   H185 3233   0.652   2.292   0.655  0.1549 -0.5428  0.9842
    5MOL   H186 3234   0.821   2.246   0.669 -1.4555  1.6003 -0.3779
    5MOL   H187 3235   0.773   2.005   0.622 -2.0531 -1.5093  3.0772
    5MOL   H188 3236   0.619   2.024   0.664  0.9297 -1.2821 -1.9565
    5MOL   H189 3237   0.576   2.161   0.462  0.6607  0.0934  0.9192
    5MOL   H190 3238   0.626   2.003   0.414  0.2371  0.5494 -0.5536
    5MOL   H191 3239   0.868   2.131   0.432 -0.3381  1.2362  1.5734
    5MOL   C192 3240   0.762   2.233   0.291 -0.5496 -0.9512  0.1692
    5MOL   O193 3241   0.647   2.260   0.251  0.5948 -0.2489  0.3086
    5MOL   C194 3242   0.891   2.269   0.229 -0.2488  0.1947 -0.0495
    5MOL   C195 3243   0.880   2.299   0.081 -0.3124 -0.4164 -0.5749
    5MOL   C196 3244   0.992   2.397   0.025  0.2576 -0.8125 -0.9208
    5MOL   C197 3245   0.968   2.444   7.588 -0.2802  0.4721  0.2717
    5MOL   C198 3246   1.092   2.507   7.529  0.0194 -0.1069 -0.3648
    5MOL   O199 3247   1.162   2.585   7.593 -0.1724 -0.1349  0.4359
    5MOL   N200 3248   1.104   2.486   7.393  0.6649 -0.7688 -0.3898
    5MOL   C201 3249   1.214   2.534   7.300 -0.3167  0.8617 -1.2760
    5MOL   C202 3250   1.248   2.414   7.203 -0.5758  0.6351 -0.1613
    5MOL   C203 3251   1.352   2.436   7.090 -0.0538 -0.4197 -0.1643
    5MOL   C204 3252   1.490   2.453   7.150 -0.1789 -0.1479 -0.5437
    5MOL   C205 3253   1.599   2.450   7.047  0.4627 -0.0024 -0.1378
    5MOL   C206 3254   1.735   2.512   7.098  0.0996 -0.1619 -0.0963
    5MOL   N207 3255   1.783   2.458   7.221  0.1074 -0.0084 -0.5077
    5MOL   H208 3256   0.914   2.366   0.273 -0.2513  0.2019 -0.0648
    5MOL   H209 3257   0.977   2.205   0.250 -1.0922 -0.5261  1.3319
    5MOL   H210 3258   0.874   2.211   0.018 -2.3817  1.7756 -3.5987
    5MOL   H211 3259   0.798   2.368   0.062  1.1470  1.4720 -0.1791
    5MOL   H212 3260   1.091   2.351   0.029  1.1094  1.1607  1.0293
    5MOL   H213 3261   0.981   2.471   0.104  0.1803 -2.3419  0.5255
    5MOL   H214 3262   0.884   2.512   7.574  0.3739  0.8014 -2.1439
    5MOL   H215 3263   0.964   2.357   7.523 -0.8091  1.9815 -1.7357
    5MOL   H216 3264   1.026   2.438   7.351  0.7051 -0.7070 -0.5340
    5MOL   H217 3265   1.169   2.613   7.239 -0.5790  0.7474 -1.2292
    5MOL   H218 3266   1.298   2.578   7.352  0.1937 -1.8885  0.3278
    5MOL   H219 3267   1.263   2.326   7.265 -0.5907  1.7580  1.4650
    5MOL   H220 3268   1.153   2.398   7.151 -0.3228  2.5623 -1.2435
    5MOL   H221 3269   1.327   2.531   7.042  0.6917 -0.2970 -0.3142
    5MOL   H222 3270   1.346   2.353   7.020  1.3571  0.9177 -1.9261
    5MOL   H223 3271   1.487   2.549   7.202  1.0759 -1.1198  1.3624
    5MOL   H224 3272   1.513   2.377   7.225  0.3007 -0.3155 -0.8541
    5MOL   H225 3273   1.607   2.348   7.012  0.1351 -0.2841  0.6079
    5MOL   H226 3274   1.559   2.513   6.967 -1.4999 -0.5783  0.3778
    5MOL   H227 3275   1.723   2.620   7.102 -1.1012 -0.2364 -1.1363
    5MOL   H228 3276   1.809   2.508   7.018  1.1484 -1.2279  0.9235
    5MOL   H229 3277   1.724   2.396   7.275  0.1405  1.1829  0.9075
    5MOL   C230 3278   1.902   2.489   7.275 -0.2760 -0.0119 -0.3297
    5MOL   O231 3279   1.974   2.568   7.216 -0.1463 -0.2263  0.1342
    5MOL   C232 3280   1.950   2.429   7.411 -0.5043  0.5101 -0.3990
    5MOL   C233 3281   2.068   2.495   7.475  0.0766 -0.0671  0.0626
    5MOL   C234 3282   2.116   2.453   7.616 -0.6243  0.7537  0.2442
    5MOL   C235 3283   2.186   2.312   7.621 -0.5178 -0.4916  0.2476
    5MOL   C236 3284   2.214   2.261   0.059  0.3498  0.0005 -0.3870
    5MOL   O237 3285   2.130   2.284   0.148  0.1661  0.1232 -0.5206
    5MOL   N238 3286   2.324   2.190   0.076 -0.3045 -0.0371 -0.2336
    5MOL   C239 3287   2.375   2.151   0.209 -0.0796 -0.3506 -1.3455
    5MOL   C240 3288   2.479   2.255   0.270  0.5447 -0.5174 -0.5662
    5MOL   C241 3289   2.597   2.275   0.173  0.4944  0.0732  0.1283
    5MOL   C242 3290   2.676   2.145   0.143 -0.5292 -0.7633 -0.3436
    5MOL   C243 3291   2.795   2.169   0.048  0.3439 -0.4177 -1.0642
    5MOL   C244 3292   2.792   2.073   7.634 -0.0650 -0.1520  0.0348
    5MOL   N245 3293   2.688   2.117   7.540 -0.4814  0.8987  0.5995
    5MOL   H246 3294   1.865   2.412   7.476 -1.5827  3.6274 -0.9413
    5MOL   H247 3295   1.977   2.325   7.389  1.2699  0.9970 -0.5821
    5MOL   H248 3296   2.147   2.507   7.401  0.9369  0.0114  0.9791
    5MOL   H249 3297   2.042   2.601   7.483 -1.5699 -0.3907 -0.8519
    5MOL   H250 3298   2.033   2.454   7.687  0.0333  1.4723  1.0044
    5MOL   H251 3299   2.185   2.534   7.641 -0.5523  0.8110 -0.1399
    5MOL   H252 3300   2.276   2.312   7.560 -0.3406  1.2744  0.4755
    5MOL   H253 3301   2.119   2.241   7.573 -1.5865  0.5584  0.1499
    5MOL   H254 3302   2.396   2.178   0.007  3.3626 -0.6818  3.4946
    5MOL   H255 3303   2.290   2.148   0.277 -1.4179 -1.3913 -3.0174
    5MOL   H256 3304   2.425   2.054   0.203  0.6465  0.0559 -1.8963
    5MOL   H257 3305   2.424   2.349   0.275 -2.5057 -2.2058 -1.1110
    5MOL   H258 3306   2.498   2.219   0.371  1.3534  0.6671 -0.2851
    5MOL   H259 3307   2.666   2.349   0.212  3.0805 -1.7344 -0.9039
    5MOL   H260 3308   2.543   2.313   0.087  0.9957 -0.0803 -0.2554
    5MOL   H261 3309   2.714   2.106   0.237 -0.3730 -0.3769 -0.2468
    5MOL   H262 3310   2.619   2.060   0.105  0.3948 -1.4300 -0.2511
    5MOL   H263 3311   2.798   2.274   0.020 -3.2496  0.0142 -0.1295
    5MOL   H264 3312   2.882   2.150   0.110 -0.5496 -3.0981 -0.5512
    5MOL   H265 3313   2.764   1.968   7.648  2.1616 -0.7741  0.0190
    5MOL   H266 3314   2.887   2.080   7.581 -1.9741  1.6209 -3.3651
    5MOL   H267 3315   2.590   2.094   7.552 -0.6093  0.6103 -0.8722
    5MOL   C268 3316   2.710   2.204   7.441  0.2155 -0.4279  0.4749
    5MOL   O269 3317   2.827   2.242   7.411  0.1847  0.2483 -0.0596
    5MOL   C270 3318   2.586   2.254   7.362  0.1773 -0.6979 -0.0934
    5MOL   C271 3319   2.602   2.402   7.319  0.3271 -0.7091  0.2824
    5MOL   C272 3320   2.553   2.498   7.431  0.5677  0.0639 -0.7924
    5MOL   C273 3321   2.519   2.634   7.373 -0.0776 -0.0123 -0.5849
    5MOL   C274 3322   2.475   2.736   7.469  0.4018  0.3302  0.3456
    5MOL   O275 3323   2.412   2.716   7.564  0.5592  0.4086 -0.1167
    5MOL   N276 3324   2.509   2.862   7.443 -0.4865 -0.7900 -0.0301
    5MOL   C277 3325   2.496   2.972   7.535  0.0480  1.1937 -0.4727
    5MOL   C278 3326   2.557   3.101   7.474  0.8502  0.3936  0.9065
    5MOL   C279 3327   2.507   3.135   7.330  0.0154  0.0564 -0.2015
    5MOL   C280 3328   2.559   3.276   7.289  0.2768 -0.5174  0.0320
    5MOL   C281 3329   2.672   3.281   7.189 -0.0877 -0.0606  1.0114
    5MOL   C282 3330   2.803   3.228   7.248  0.2088  0.3524 -0.4539
    5MOL   N283 3331   2.914   3.246   7.154  0.0766  0.4881 -0.4819
    5MOL   H284 3332   2.560   2.197   7.272  0.5817  1.0387 -1.3309
    5MOL   H285 3333   2.496   2.265   7.422  1.0332 -0.4372  1.1522
    5MOL   H286 3334   2.704   2.421   7.286 -0.0209 -2.1345 -1.7534
    5MOL   H287 3335   2.540   2.429   7.233  0.8157  0.7621  0.3912
    5MOL   H288 3336   2.630   2.506   7.507  1.9333  0.1591 -2.1618
    5MOL   H289 3337   2.456   2.473   7.473 -0.4888  1.7542 -2.1594
    5MOL   H290 3338   2.434   2.623   7.306 -0.2055 -0.8867 -0.2818
    5MOL   H291 3339   2.601   2.676   7.314  1.1991 -0.1584  1.0365
    5MOL   H292 3340   2.557   2.871   7.354 -0.4438 -0.5788  0.0145
    5MOL   H293 3341   2.392   2.983   7.565  0.0258 -0.9960  0.3835
    5MOL   H294 3342   2.562   2.954   7.621 -1.5452 -0.8639  0.3733
    5MOL   H295 3343   2.547   3.190   7.537  0.0237  2.1157 -1.6078
    5MOL   H296 3344   2.664   3.081   7.468  0.3669 -2.4576  1.1206
    5MOL   H297 3345   2.399   3.135   7.321 -0.0341  0.0406  0.3507
    5MOL   H298 3346   2.526   3.054   7.259 -0.5957  1.2463 -1.7503
    5MOL   H299 3347   2.476   3.333   7.248  1.6121  2.3855  1.2982
    5MOL   H300 3348   2.591   3.337   7.373 -1.3850  0.5105 -0.0578
    5MOL   H301 3349   2.650   3.228   7.096 -0.6978  2.9091 -0.5787
    5MOL   H302 3350   2.702   3.381   7.159  2.6449 -0.8752  0.9461
    5MOL   H303 3351   2.792   3.121   7.265 -0.4520  0.4947  0.0618
    5MOL   H304 3352   2.821   3.269   7.348 -1.8462 -0.8152  0.4303
    5MOL   H305 3353   2.888   3.284   7.063  0.6834  0.8675 -0.4994
    5MOL   C306 3354   3.035   3.200   7.178 -0.7658 -0.0516  0.7723
    5MOL   O307 3355   3.065   3.143   7.282  0.4987 -0.1387  0.0238
    5MOL   C308 3356   3.145   3.233   7.073  0.6299 -0.2747  0.6491
    5MOL   C309 3357   3.283   3.169   7.105  0.0227 -0.3395  0.2640
    5MOL   C310 3358   3.316   3.044   7.030 -0.0671  0.6044  0.3801
    5MOL   C311 3359   3.269   2.915   7.097  1.0324 -0.4807  0.4738
    5MOL   C312 3360   3.359   2.800   7.066  0.3900  0.1233 -0.3735
    5MOL   O313 3361   3.429   2.751   7.155 -0.4846  0.3085  0.8002
    5MOL   N314 3362   3.346   2.740   6.944 -0.3826 -0.8228 -0.0740
    5MOL   C315 3363   3.421   2.618   6.907  0.2489 -0.7758  0.3424
    5MOL   C316 3364   3.328   2.496   6.915 -0.1542 -0.2963  0.0548
    5MOL   C317 3365   3.286   2.470   7.061  0.3707 -0.0805  0.2606
    5MOL   C318 3366   3.266   2.322   7.098  0.2143  0.3187 -0.0032
    5MOL   C319 3367   3.195   2.302   7.230 -1.0393  0.3296 -0.0548
    5MOL   C320 3368   3.132   2.170   7.260 -0.4857  0.9700  0.6078
    5MOL   N321 3369   3.213   2.045   7.249 -0.0215 -0.0235 -0.3469
    5MOL   H322 3370   3.115   3.223   6.969  0.1639  3.4821  0.3434
    5MOL   H323 3371   3.162   3.341   7.075  0.0343 -0.0922 -2.0792
    5MOL   H324 3372   3.339   3.250   7.057 -1.0445  1.0477  1.3284
    5MOL   H325 3373   3.321   3.178   7.206  1.8749  2.3985 -0.6175
    5MOL   H326 3374   3.424   3.043   7.016 -0.2176  0.9252 -0.8126
    5MOL   H327 3375   3.284   3.045   6.926 -0.4557  0.1066  0.4926
    5MOL   H328 3376   3.165   2.896   7.071  0.6425  1.0864  0.8230
    5MOL   H329 3377   3.276   2.936   7.204  0.4715 -0.1926  0.4514
    5MOL   H330 3378   3.276   2.759   6.874  2.2228  0.0287 -2.4875
    5MOL   H331 3379   3.458   2.638   6.806 -0.5500  2.6891  0.6454
    5MOL   H332 3380   3.510   2.589   6.962  0.1954 -0.5926  0.5272
    5MOL   H333 3381   3.239   2.499   6.853 -0.6485 -1.6086  0.6747
    5MOL   H334 3382   3.395   2.414   6.886 -0.9586 -2.3079  3.5404
    5MOL   H335 3383   3.200   2.534   7.085  0.5659 -0.0674  0.9440
    5MOL   H336 3384   3.361   2.496   7.136  0.0653  0.7890  0.2733
    5MOL   H337 3385   3.212   2.277   7.015 -2.8928  1.3730  1.3958
    5MOL   H338 3386   3.364   2.274   7.104 -0.6679 -1.5938 -0.7273
    5MOL   H339 3387   3.247   2.319   7.325 -2.2889 -0.4014  0.7868
    5MOL   H340 3388   3.116   2.377   7.231 -0.0475  1.4185  2.4691
    5MOL   H341 3389   3.039   2.160   7.204 -0.3918  0.5698  0.5166
    5MOL   H342 3390   3.101   2.168   7.365 -0.8018  1.1187  0.5165
    5MOL   H343 3391   3.269   2.018   7.329 -1.1144 -2.6199 -0.4318
    5MOL   C344 3392   3.200   1.945   7.164 -0.1208  0.2451  1.0954
    5MOL   O345 3393   3.114   1.945   7.071 -0.2900  0.1655 -0.5384
    5MOL   C346 3394   3.285   1.823   7.176  0.0100  0.0814 -0.3104
    5MOL   C347 3395   3.217   1.697   7.120 -0.0628  0.1176 -0.0285
    5MOL   C348 3396   3.306   1.570   7.146 -0.3236  0.4738  0.4233
    5MOL   C349 3397   3.301   1.510   7.284  0.2956 -0.1596 -0.7569
    5MOL   C350 3398   3.392   1.393   7.313 -0.1919  0.1421 -0.2741
    5MOL   O351 3399   3.472   1.365   7.222 -0.1619  0.4832  0.1997
    5MOL   N352 3400   3.376   1.331   7.428 -0.4432 -0.7165 -0.2729
    5MOL   C353 3401   3.443   1.209   7.459 -0.7076  0.7186 -0.5941
    5MOL   C354 3402   3.346   1.111   7.525  0.4200 -0.6314 -0.1661
    5MOL   C355 3403   3.398   0.969   7.546 -0.0692 -0.3608  0.0850
    5MOL   C356 3404   3.297   0.863   7.593  0.1989 -0.6712 -0.3466
    5MOL   C357 3405   3.219   0.890   0.014 -0.3590  0.7247 -0.6206
    5MOL   C358 3406   3.150   0.772   0.077  0.7352 -0.1561  0.2073
    5MOL   N359 3407   3.055   0.826   0.179 -0.0199 -0.6947 -0.3698
    5MOL   H360 3408   3.370   1.849   7.114  0.4697  0.0769  0.3092
    5MOL   H361 3409   3.327   1.807   7.276  1.7909 -0.1860 -1.0768
    5MOL   H362 3410   3.111   1.687   7.146 -0.1408  0.1792 -0.3214
    5MOL   H363 3411   3.214   1.706   7.011 -0.1009 -0.9587 -0.1256
    5MOL   H364 3412   3.408   1.600   7.125 -1.3535  3.6735 -0.3844
    5MOL   H365 3413   3.290   1.489   7.075 -1.2746  1.2935 -0.3109
    5MOL   H366 3414   3.199   1.472   7.288  0.3996 -0.2099  2.7053
    5MOL   H367 3415   3.314   1.583   7.364 -0.0144 -1.8884  0.8906
    5MOL   H368 3416   3.312   1.362   7.500  2.1577 -1.7898  2.6156
    5MOL   H369 3417   3.491   1.161   7.373 -0.3306 -0.4397  0.2439
    5MOL   H370 3418   3.519   1.233   7.534  0.5809  1.5063 -2.1263
    5MOL   H371 3419   3.331   1.141   7.629 -0.8854 -0.2025 -0.4822
    5MOL   H372 3420   3.253   1.112   7.469 -0.8728 -0.3101  1.9088
    5MOL   H373 3421   3.484   0.986   7.610 -0.5641  1.9277  0.1747
    5MOL   H374 3422   3.441   0.925   7.456  0.3339 -1.3287  0.7476
    5MOL   H375 3423   3.232   0.847   7.507  1.3261 -0.7801 -1.1899
    5MOL   H376 3424   3.349   0.767   7.596 -2.2545 -2.0092  0.7495
    5MOL   H377 3425   3.286   0.941   0.083 -2.2173  0.9662  1.0626
    5MOL   H378 3426   3.143   0.966   7.706  1.9208  3.1535 -0.2118
    5MOL   H379 3427   3.219   0.705   0.128 -1.7628 -2.9727  0.0546
    5MOL   H380 3428   3.104   0.717   7.703 -1.3544  1.0459  0.5352
    5MOL   H381 3429   3.092   0.885   0.252  2.0830 -2.9151  0.4219
    5MOL   C382 3430   2.923   0.827   0.153  0.2228 -0.2915 -0.5549
    5MOL   O383 3431   2.873   0.773   0.055 -0.0673 -0.1119  0.6216
    5MOL   C384 3432   2.831   0.902   0.248  0.0131  0.1997 -0.0878
    5MOL   C385 3433   2.804   1.046   0.195 -0.0368 -0.6523 -0.8191
    5MOL   C386 3434   2.696   1.115   0.285  0.0750 -0.8220 -0.5774
    5MOL   C387 3435   2.632   1.246   0.239  0.3701  0.4999  0.0305
    5MOL   C388 3436   2.550   1.232   0.115  0.0973 -0.2146  0.3575
    5MOL   O389 3437   2.490   1.127   0.076  0.2037 -0.4067  0.2331
    5MOL   N390 3438   2.543   1.347   0.048 -0.7859 -0.6916  0.3070
    5MOL   C391 3439   2.472   1.366   7.630 -0.6993  0.4868 -0.7478
    5MOL   C392 3440   2.322   1.347   7.646  0.4635  0.0987  0.2068
    5MOL   C393 3441   2.244   1.368   7.514  0.0247 -0.1573 -0.1263
    5MOL   C394 3442   2.264   1.270   7.395  0.3590 -0.5765 -1.2011
    5MOL   C395 3443   2.171   1.288   7.277  0.5922 -1.0110  0.4314
    5MOL   C396 3444   2.195   1.197   7.152 -0.0746 -0.3732  0.1259
    5MOL   N397 3445   2.331   1.198   7.109 -0.2198  0.4325  0.0655
    5MOL   H398 3446   2.737   0.847   0.251  0.9695 -1.3676  2.1974
    5MOL   H399 3447   2.868   0.911   0.350 -1.2817  2.2178  0.2343
    5MOL   H400 3448   2.892   1.109   0.186 -0.3335  0.0370  0.8938
    5MOL   H401 3449   2.755   1.042   0.098  0.6359  0.2843 -1.1912
    5MOL   H402 3450   2.740   1.133   0.384 -2.1686 -0.6572  0.4179
    5MOL   H403 3451   2.618   1.051   0.324  0.0958  0.6026  1.9276
    5MOL   H404 3452   2.711   1.319   0.221  2.0947 -1.7569 -2.0348
    5MOL   H405 3453   2.569   1.286   0.318  0.2338  1.5991 -0.6195
    5MOL   H406 3454   2.602   1.425   0.075 -1.7911  0.9369 -2.0711
    5MOL   H407 3455   2.493   1.471   7.608 -3.4620  1.1117 -0.6842
    5MOL   H408 3456   2.510   1.315   7.541 -0.1934  0.4845 -0.5299
    5MOL   H409 3457   2.294   1.249   7.685  1.4381 -0.2695 -0.0014
    5MOL   H410 3458   2.295   1.424   0.010  2.5253  0.7103  0.3583
    5MOL   H411 3459   2.248   1.471   7.479  1.2544 -0.6854 -1.5908
    5MOL   H412 3460   2.140   1.353   7.544  0.1463 -1.3829 -0.3078
    5MOL   H413 3461   2.363   1.300   7.359  0.5907  1.4578  1.0353
    5MOL   H414 3462   2.255   1.167   7.431  2.0216 -0.5319 -0.5740
    5MOL   H415 3463   2.067   1.268   7.304  0.9748 -1.5903  1.5318
    5MOL   H416 3464   2.171   1.392   7.244 -1.2031 -1.3315 -0.6591
    5MOL   H417 3465   2.140   1.239   7.067  1.6646 -1.3041 -1.5053
    5MOL   H418 3466   2.157   1.095   7.165 -0.9461 -0.5584 -3.2642
    5MOL   H419 3467   2.357   1.276   7.051 -0.1161 -0.2335 -0.7951
    5MOL   C420 3468   2.417   1.103   7.136 -0.6097 -0.1707  0.2936
    5MOL   O421 3469   2.392   1.004   7.207 -0.1624  0.4256 -0.2888
    5MOL   C422 3470   2.556   1.117   7.077 -0.1739 -0.2968 -0.5766
    5MOL   C423 3471   2.587   1.015   6.971 -0.0543 -0.4375 -0.4041
    5MOL   C424 3472   2.517   1.029   6.832  0.0872 -0.3351  0.3561
    5MOL   C425 3473   2.583   0.941   6.720  0.8679  0.2168 -0.2302
    5MOL   C426 3474   2.690   1.013   6.639 -0.3358 -0.3180  0.2241
    5MOL   O427 3475   2.811   0.995   6.658 -0.0896  0.4859  0.1688
    5MOL   N428 3476   2.649   1.101   6.543 -0.4332  0.0741 -0.2854
    5MOL   C429 3477   2.733   1.161   6.441 -0.3365  0.5246  0.1411
    5MOL   C430 3478   2.669   1.265   6.361 -0.3093  0.8069  0.4775
    5MOL   C431 3479   2.768   1.318   6.250  0.1853 -0.1624 -1.0555
    5MOL   C432 3480   2.697   1.424   6.165  0.8434 -0.4145 -0.2583
    5MOL   C433 3481   2.590   1.365   6.068  0.2615 -0.0527  0.4260
    5MOL   C434 3482   2.528   1.461   5.963 -0.6017 -0.2034  0.3323
    5MOL   N435 3483   2.467   1.576   6.027  0.6596 -0.1455 -0.5873
    5MOL   H436 3484   2.568   1.213   7.027  2.1934  0.4437  1.3161
    5MOL   H437 3485   2.634   1.103   7.151 -0.4833 -0.1304 -0.2193
    5MOL   H438 3486   2.694   1.029   6.953 -0.3574  1.1970 -1.0765
    5MOL   H439 3487   2.565   0.918   7.016  0.5708 -0.7629 -0.7855
    5MOL   H440 3488   2.533   1.134   6.810 -1.3267 -0.3735 -0.9148
    5MOL   H441 3489   2.410   1.005   6.834  0.4823 -2.3759 -1.0206
    5MOL   H442 3490   2.508   0.907   6.648  1.0453  1.2661 -0.9211
    5MOL   H443 3491   2.638   0.853   6.753  1.3396  0.5353 -0.1660
    5MOL   H444 3492   2.550   1.118   6.528 -0.8044 -0.8119  1.1595
    5MOL   H445 3493   2.823   1.207   6.481 -0.5443  1.1283 -0.0895
    5MOL   H446 3494   2.770   1.082   6.377 -2.5087  0.1732 -0.7370
    5MOL   H447 3495   2.580   1.220   6.317  2.4301 -2.0915 -2.3780
    5MOL   H448 3496   2.658   1.352   6.425  2.8774  0.3863  1.6699
    5MOL   H449 3497   2.828   1.251   6.189  3.5421  0.8177  0.9778
    5MOL   H450 3498   2.844   1.365   6.313 -1.0553 -1.3071  1.3458
    5MOL   H451 3499   2.638   1.487   6.232  0.7082 -0.8507  0.0366
    5MOL   H452 3500   2.772   1.480   6.111  1.9518  0.2568  1.9025
    5MOL   H453 3501   2.650   1.292   6.013 -0.3032  0.5891 -1.0663
    5MOL   H454 3502   2.514   1.314   6.128 -0.4792 -0.0814 -0.5252
    5MOL   H455 3503   2.457   1.409   5.899  0.6647  1.3911 -2.4445
    5MOL   H456 3504   2.611   1.493   5.900  0.5355  0.0575  1.9329
    5MOL   H457 3505   2.490   1.587   6.125  1.3871  1.0363 -0.8835
    5MOL   C458 3506   2.405   1.684   5.968 -0.0240 -0.0785  1.2841
    5MOL   O459 3507   2.373   1.680   5.852 -0.4817 -0.1527 -0.0257
    5MOL   C460 3508   2.364   1.803   6.055 -0.7180 -0.6332 -0.6353
    5MOL   C461 3509   2.219   1.849   6.033  0.3920 -0.5340 -0.0383
    5MOL   C462 3510   2.179   1.959   6.128  0.5927  0.3449  0.0008
    5MOL   C463 3511   2.183   1.933   6.279  0.0691 -0.1575 -0.4182
    5MOL   C464 3512   2.069   1.849   6.329  0.0119 -0.4152  0.4622
    5MOL   O465 3513   1.991   1.793   6.247 -0.7324  0.2652 -0.2783
    5MOL   N466 3514   2.049   1.841   6.465 -0.4921  0.1077  0.5256
    5MOL   C467 3515   1.938   1.783   6.541  0.2228 -0.0139  0.2019
    5MOL   C468 3516   1.832   1.889   6.590 -0.1597  0.2247 -0.1188
    5MOL   C469 3517   1.892   2.001   6.674  0.2694  0.8601  0.8350
    5MOL   C470 3518   1.791   2.107   6.728 -0.2552 -0.2595 -0.6545
    5MOL   C471 3519   1.693   2.184   6.630  0.0679  0.0104 -0.6540
    5MOL   C472 3520   1.574   2.266   6.691 -0.5995  0.0316 -0.2156
    5MOL   N473 3521   1.487   2.319   6.594  0.2240 -0.1572 -0.0839
    5MOL   H474 3522   2.387   1.769   6.156 -1.8508 -1.4210 -0.6440
    5MOL   H475 3523   2.427   1.891   6.044  0.7809 -1.1048  3.3309
    5MOL   H476 3524   2.207   1.879   5.929 -0.6175 -0.9399 -0.0506
    5MOL   H477 3525   2.146   1.768   6.040 -0.3997  0.1177 -0.7107
    5MOL   H478 3526   2.075   1.987   6.112 -1.1945 -4.4933  1.8859
    5MOL   H479 3527   2.233   2.048   6.097  0.5140  0.7576  1.0375
    5MOL   H480 3528   2.169   2.027   6.332  0.0183  0.7652 -2.0118
    5MOL   H481 3529   2.280   1.893   6.309 -0.4362 -1.3188 -0.3299
    5MOL   H482 3530   2.128   1.871   6.519 -0.0151  0.0268 -0.1143
    5MOL   H483 3531   1.887   1.709   6.479  2.2130 -0.2899 -1.1409
    5MOL   H484 3532   1.968   1.728   6.630  0.1491 -1.7424 -0.8291
    5MOL   H485 3533   1.796   1.934   6.497 -0.4970  1.2558  0.5043
    5MOL   H486 3534   1.754   1.831   6.638 -1.1325  0.1322 -1.7472
    5MOL   H487 3535   1.949   2.070   6.612  1.2212 -1.5269 -1.0057
    5MOL   H488 3536   1.949   1.960   6.758  0.5987 -0.8494 -0.2022
    5MOL   H489 3537   1.726   2.067   6.806  1.7847  1.2931  1.9271
    5MOL   H490 3538   1.851   2.176   6.788  0.0891 -1.1284  0.0115
    5MOL   H491 3539   1.737   2.259   6.565  0.4046  0.4759  0.1156
    5MOL   H492 3540   1.642   2.114   6.564 -0.6795  0.8354 -0.9650
    5MOL   H493 3541   1.616   2.351   6.746 -2.1335 -1.2107  2.9707
    5MOL   H494 3542   1.515   2.209   6.762  0.9777 -0.4949  0.7005
    5MOL   H495 3543   1.507   2.293   6.498 -0.3252 -2.3065  0.3618
    5MOL   C496 3544   1.367   2.377   6.623  0.2965 -0.0198 -0.1931
    5MOL   O497 3545   1.328   2.397   6.735  0.7083  0.2252  0.1504
    5MOL   C498 3546   1.279   2.412   6.498  0.3073  0.3716  0.0175
    5MOL   C499 3547   1.152   2.327   6.482 -0.5261  0.7099  0.1529
    5MOL   C500 3548   1.055   2.337   6.594 -0.1392 -0.1988  0.2249
    5MOL   C501 3549   0.950   2.227   6.603 -0.0276  0.7299 -1.1584
    5MOL   C502 3550   0.855   2.208   6.488  0.0282  0.6774  0.3829
    5MOL   O503 3551   0.746   2.271   6.482 -0.3721  0.1559 -0.0414
    5MOL   N504 3552   0.892   2.126   6.390  0.4244 -0.6389  0.2875
    5MOL   C505 3553   0.836   2.104   6.259 -0.3146  0.3584  0.2597
    5MOL   C506 3554   0.870   2.221   6.169  0.6295  0.1523  0.0977
    5MOL   C507 3555   0.819   2.204   6.016 -0.0031 -0.3306 -0.1420
    5MOL   C508 3556   0.836   2.335   5.938 -0.0165  0.1193  0.1595
    5MOL   C509 3557   0.720   2.426   5.958  1.0250  0.5685 -0.4382
    5MOL   C510 3558   0.718   2.562   5.869  0.3563  0.0958 -0.2142
    5MOL   N511 3559   0.636   2.665   5.925  0.0809 -0.0291  0.0384
    5MOL   H512 3560   1.262   2.517   6.476 -0.1539  0.4396  0.6671
    5MOL   H513 3561   1.336   2.394   6.407  1.3503 -0.8728  0.8987
    5MOL   H514 3562   1.108   2.354   6.386  1.2679 -2.5891 -1.6988
    5MOL   H515 3563   1.177   2.221   6.468  3.1294  1.4195  0.7106
    5MOL   H516 3564   0.995   2.428   6.594 -1.0029 -0.7548  1.2764
    5MOL   H517 3565   1.091   2.325   6.696 -0.4556 -1.8010  0.1564
    5MOL   H518 3566   0.889   2.235   6.693  1.6299  0.8425 -0.0263
    5MOL   H519 3567   0.998   2.131   6.624  0.4244  1.1090 -0.4557
    5MOL   H520 3568   0.963   2.058   6.416  2.3347  1.0549 -0.3133
    5MOL   H521 3569   0.871   2.009   6.221 -0.0662  0.6130 -0.1566
    5MOL   H522 3570   0.727   2.096   6.269 -0.1457 -2.0242  0.4740
    5MOL   H523 3571   0.833   2.319   6.200  2.9602  0.7766  1.0734
    5MOL   H524 3572   0.976   2.247   6.179  0.8747 -1.1478  1.0995
    5MOL   H525 3573   0.716   2.168   6.022 -0.6553  1.6919  1.4223
    5MOL   H526 3574   0.881   2.132   5.963  1.9990  0.8995  0.4692
    5MOL   H527 3575   0.927   2.379   5.977  0.4923 -1.1108  0.3831
    5MOL   H528 3576   0.867   2.312   5.836 -0.8295  0.9486 -0.2844
    5MOL   H529 3577   0.627   2.368   5.959  0.0456  2.1290  1.1808
    5MOL   H530 3578   0.726   2.463   6.060  2.6340 -0.0254 -0.3000
    5MOL   H531 3579   0.678   2.532   5.772 -1.5072  1.1212  0.2304
    5MOL   H532 3580   0.820   2.598   5.851  1.9554 -4.4351 -0.7912
    5MOL   H533 3581   0.622   2.660   6.025  1.4505 -0.6335  0.2221
    5MOL   C534 3582   0.598   2.770   5.847  0.0910  0.1742 -0.4512
    5MOL   O535 3583   0.636   2.787   5.727 -0.2466 -0.7536  0.1666
    5MOL   C536 3584   0.493   2.864   5.905  0.4318  0.0648  0.0516
    5MOL   C537 3585   0.551   3.007   5.917  0.2060  0.8213 -0.1816
    5MOL   C538 3586   0.641   3.029   6.039 -0.1272  0.0812  0.7731
    5MOL   C539 3587   0.790   2.997   6.028  0.0867 -0.0404  0.8530
    5MOL   C540 3588   0.875   3.083   5.935  0.7634 -0.3832 -0.1054
    5MOL   O541 3589   0.828   3.153   5.840  0.7908  0.3342  0.1866
    5MOL   N542 3590   1.008   3.076   5.953  0.1503  0.0608  0.9253
    5MOL   C543 3591   1.110   3.109   5.851 -0.1185 -0.7158 -0.0740
    5MOL   C544 3592   1.142   3.257   5.860 -0.2572 -0.6525  0.1678
    5MOL   C545 3593   1.233   3.302   5.754 -1.1433 -0.1969  0.8463
    5MOL   C546 3594   1.258   3.453   5.769 -0.2516  0.3510 -0.3315
    5MOL   C547 3595   1.151   3.532   5.699  0.2596  0.1009  0.0330
    5MOL   C548 3596   1.185   3.557   5.552 -1.2866 -0.0972 -0.0210
    5MOL   N549 3597   1.066   3.599   5.475 -0.8903 -0.6095  0.2730
    5MOL   H550 3598   0.403   2.865   5.844  0.7538  1.1474 -0.4172
    5MOL   H551 3599   0.467   2.834   6.007 -2.2243 -0.5973 -0.7853
    5MOL   H552 3600   0.592   3.045   5.823  0.2994  2.6047  0.5580
    5MOL   H553 3601   0.460   3.066   5.920 -0.5747 -0.2385 -1.9634
    5MOL   H554 3602   0.606   2.963   6.119  1.3257 -2.2486 -0.4683
    5MOL   H555 3603   0.626   3.126   6.086 -0.9210  0.9669 -1.2434
    5MOL   H556 3604   0.804   2.895   5.993  0.6798  0.6902 -1.0998
    5MOL   H557 3605   0.841   2.999   6.124 -2.3997  1.1802  2.2090
    5MOL   H558 3606   1.035   3.044   6.045  0.3280  2.5572  1.8058
    5MOL   H559 3607   1.201   3.053   5.873  0.9312  0.9925 -0.0031
    5MOL   H560 3608   1.069   3.097   5.751 -0.3718  0.4556 -0.1160
    5MOL   H561 3609   1.051   3.315   5.867 -1.1370 -1.5503 -3.1143
    5MOL   H562 3610   1.192   3.275   5.955  1.4058 -1.8952 -0.4464
    5MOL   H563 3611   1.207   3.280   5.650  1.5195 -0.5791  0.2164
    5MOL   H564 3612   1.329   3.250   5.757 -0.7323  0.5698  0.9402
    5MOL   H565 3613   1.259   3.472   5.876  0.1078  0.9818 -0.4476
    5MOL   H566 3614   1.349   3.479   5.715 -0.7798  2.0883 -0.4191
    5MOL   H567 3615   1.063   3.468   5.695  0.7248 -0.4415 -1.8156
    5MOL   H568 3616   1.123   3.623   5.752  1.7257  0.1169  0.7972
    5MOL   H569 3617   1.229   3.468   5.508  0.2020  0.7103 -0.1978
    5MOL   H570 3618   1.266   3.630   5.545  0.3823 -2.0214 -1.4063
    5MOL   H571 3619   0.971   3.582   5.504 -1.7359  3.3434  0.0848
    5MOL   C572 3620   1.067   3.651   5.357 -0.1933  0.1421 -0.3340
    5MOL   O573 3621   1.173   3.690   5.303  0.2602 -0.3479 -0.8533
    5MOL   C574 3622   0.932   3.657   5.275  0.1063  0.5336 -0.0734
    5MOL   C575 3623   0.944   3.631   5.130  0.1266 -0.2820 -0.1100
    5MOL   C576 3624   0.982   3.485   5.088  0.1321 -0.6073  0.7051
    5MOL   C577 3625   0.985   3.488   4.933  0.5142 -0.0558 -0.2783
    5MOL   C578 3626   0.970   3.349   4.871 -0.2670  0.1202  0.4182
    5MOL   O579 3627   0.908   3.255   4.933  0.0302 -0.3285 -0.0642
    5MOL   N580 3628   1.003   3.335   4.739  0.0376 -0.1270 -0.3219
    5MOL   C581 3629   0.977   3.210   4.666  0.7715  0.0340  0.3217
    5MOL   C582 3630   1.099   3.168   4.583  0.0346 -0.0543  0.5085
    5MOL   C583 3631   1.078   3.033   4.530 -0.2543 -0.3601  0.2928
    5MOL   C584 3632   1.197   2.979   4.449  0.4842 -0.7266 -0.9064
    5MOL   C585 3633   1.145   2.865   4.361  0.2871  0.1165  0.1531
    5MOL   C586 3634   1.248   2.813   4.262 -0.3776 -0.1134 -0.0121
    5MOL   N587 3635   1.193   2.721   4.161  0.2753  0.2951  0.0697
    5MOL   H588 3636   0.866   3.578   5.310  2.2955 -1.1229  0.4116
    5MOL   H589 3637   0.887   3.754   5.295 -2.3572 -0.4716 -0.6376
    5MOL   H590 3638   0.845   3.651   5.088 -0.7547 -0.3880  1.8408
    5MOL   H591 3639   1.014   3.700   5.084 -0.4041  0.1845 -0.2305
    5MOL   H592 3640   0.904   3.418   5.124 -3.2888  1.9435 -1.5903
    5MOL   H593 3641   1.078   3.453   5.127  0.1130 -0.6036  0.7550
    5MOL   H594 3642   1.082   3.531   4.906 -0.0649  2.5018  1.5196
    5MOL   H595 3643   0.908   3.550   4.889  0.3742  1.0590  1.4913
    5MOL   H596 3644   1.043   3.418   4.696 -0.9823  1.8313  2.4079
    5MOL   H597 3645   0.931   3.126   4.718  2.1744 -2.8516 -2.9549
    5MOL   H598 3646   0.897   3.235   4.596  0.7633 -1.0897 -0.0755
    5MOL   H599 3647   1.112   3.228   4.493 -0.7299 -0.9228 -0.1874
    5MOL   H600 3648   1.193   3.162   4.638  0.2282 -2.0942 -0.0288
    5MOL   H601 3649   0.987   3.019   4.472  0.3358 -1.9079 -0.2688
    5MOL   H602 3650   1.062   2.971   4.618 -1.0957 -0.6103 -0.0239
    5MOL   H603 3651   1.251   3.051   4.388 -2.1390  1.6639 -0.4842
    5MOL   H604 3652   1.271   2.934   4.517  1.6824 -0.7107 -2.1721
    5MOL   H605 3653   1.114   2.789   4.433 -0.8634  1.5082  1.1590
    5MOL   H606 3654   1.058   2.897   4.303  0.7771 -1.5205 -1.5485
    5MOL   H607 3655   1.333   2.767   4.313  1.1255  0.7088 -1.7359
    5MOL   H608 3656   1.300   2.897   4.216  0.7985 -1.3723 -1.0099
    5MOL   H609 3657   1.129   2.652   4.198  1.0697 -0.1606  0.6050
    5MOL   C610 3658   1.220   2.711   4.029 -0.4158 -0.2410 -0.2087
    5MOL   O611 3659   1.293   2.805   3.985  0.0259  0.1157 -0.1226
    5MOL   C612 3660   1.166   2.595   3.948 -0.5091  0.5776  0.0978
    5MOL   C613 3661   1.200   2.602   3.799 -0.1587  0.6762 -0.2956
    5MOL   C614 3662   1.337   2.547   3.743 -0.6784 -0.6746 -0.3225
    5MOL   C615 3663   1.357   2.574   3.588 -0.1433  0.0431 -0.3343
    5MOL   C616 3664   1.268   2.484   3.504 -0.4195 -0.3530 -0.5438
    5MOL   O617 3665   1.272   2.360   3.518 -0.3079  0.5070 -0.4101
    5MOL   N618 3666   1.195   2.541   3.411  0.3230 -0.0032  0.1729
    5MOL   C619 3667   1.127   2.462   3.303  0.1179  0.4694  0.5333
    5MOL   C620 3668   1.012   2.549   3.250  0.6872 -0.4075  0.1037
    5MOL   C621 3669   0.925   2.494   3.127 -0.2727 -0.4521  0.2047
    5MOL   C622 3670   0.807   2.592   3.108  0.2913  0.0423  0.2166
    5MOL   C623 3671   0.851   2.729   3.044 -0.4661  1.0374 -0.0634
    5MOL   C624 3672   0.734   2.809   2.981  0.6295  0.5653  0.5643
    5MOL   N625 3673   0.788   2.936   2.935  0.1636  0.0135  0.1669
    5MOL   H626 3674   1.212   2.506   3.992 -2.1256  0.3970  1.5051
    5MOL   H627 3675   1.059   2.582   3.967 -0.0487 -1.7454  1.2515
    5MOL   H628 3676   1.129   2.527   3.766 -1.2543  1.2194  0.7962
    5MOL   H629 3677   1.181   2.702   3.760  0.8100  1.0852  0.2782
    5MOL   H630 3678   1.356   2.441   3.759 -1.1694 -0.7940 -0.5123
    5MOL   H631 3679   1.419   2.598   3.793 -1.5464  0.8350 -0.3906
    5MOL   H632 3680   1.463   2.570   3.563  0.4919 -1.1481  2.4051
    5MOL   H633 3681   1.337   2.681   3.581 -0.7831  0.0729  1.7442
    5MOL   H634 3682   1.220   2.634   3.384  0.1775  0.0934  0.3664
    5MOL   H635 3683   1.206   2.448   3.229  0.0269  1.3288  0.2666
    5MOL   H636 3684   1.087   2.367   3.337  0.6757  0.8965  2.4098
    5MOL   H637 3685   0.946   2.569   3.334  0.6228  0.2322 -0.0985
    5MOL   H638 3686   1.050   2.650   3.235  0.9637 -0.5722 -0.3275
    5MOL   H639 3687   0.886   2.396   3.156 -0.1565 -0.1415  1.4593
    5MOL   H640 3688   0.989   2.476   3.041 -1.6695  0.2031 -0.9929
    5MOL   H641 3689   0.734   2.545   3.042 -0.5182  1.1775  0.2900
    5MOL   H642 3690   0.745   2.607   3.196 -1.5433  1.4978 -1.2779
    5MOL   H643 3691   0.906   2.778   3.123 -1.8594  0.9223  1.0056
    5MOL   H644 3692   0.919   2.695   2.966 -1.5475  3.1081 -1.9901
    5MOL   H645 3693   0.647   2.829   3.044  0.1585 -1.0126  0.4331
    5MOL   H646 3694   0.699   2.749   2.897  1.5364  0.4137  0.2817
    5MOL   H647 3695   0.836   2.939   2.846 -0.6818  2.6749 -0.2338
    5MOL   C648 3696   0.781   3.049   3.010 -0.3779 -0.6507  0.0031
    5MOL   O649 3697   0.723   3.065   3.113 -0.2954  0.6531 -0.8347
    5MOL   C650 3698   0.866   3.173   2.963  1.1114  0.1758 -1.0077
    5MOL   C651 3699   0.952   3.241   3.076 -0.0129 -0.6050  0.0003
    5MOL   C652 3700   1.044   3.357   3.036  0.1089 -0.2132  0.5867
    5MOL   C653 3701   1.167   3.299   2.964  0.2998 -0.4032  0.3773
    5MOL   C654 3702   1.285   3.254   3.057 -0.0182  0.2090  0.2755
    5MOL   O655 3703   1.266   3.191   3.160 -0.3163  0.6399 -0.8546
    5MOL   N656 3704   1.412   3.278   3.015 -0.3999  0.2170 -0.0891
    5MOL   C657 3705   1.528   3.243   3.093  0.3120 -0.2869  0.0601
    5MOL   C658 3706   1.604   3.371   3.133 -0.5799  0.0184  0.2914
    5MOL   C659 3707   1.730   3.347   3.218 -0.5707 -0.3163  0.4188
    5MOL   C660 3708   1.802   3.482   3.245 -0.3312  0.2364 -0.5440
    5MOL   C661 3709   1.732   3.560   3.360 -0.9892 -0.3797 -0.9159
    5MOL   C662 3710   1.785   3.701   3.399 -0.0631 -0.3131 -0.1309
    5MOL   N663 3711   1.833   3.787   3.292  0.3922  0.3961 -0.1267
    5MOL   H664 3712   0.934   3.137   2.885 -2.3188 -3.4111 -2.5383
    5MOL   H665 3713   0.798   3.244   2.916 -1.2059 -0.8163  0.7705
    5MOL   H666 3714   0.881   3.285   3.147  2.6326  1.1508  1.6892
    5MOL   H667 3715   1.004   3.158   3.122  0.3837 -0.1567  0.3683
    5MOL   H668 3716   1.084   3.404   3.127 -0.6342 -0.8655  1.2574
    5MOL   H669 3717   1.000   3.446   2.990  2.0873 -0.4050 -1.7769
    5MOL   H670 3718   1.206   3.388   2.916  0.1330  0.3937  1.6754
    5MOL   H671 3719   1.146   3.228   2.884  0.4422 -0.4545  0.3856
    5MOL   H672 3720   1.424   3.312   2.921  1.0729 -0.2381 -0.0833
    5MOL   H673 3721   1.497   3.190   3.183  1.6664  0.7632  1.1761
    5MOL   H674 3722   1.585   3.175   3.029  1.6539  1.0052 -0.1485
    5MOL   H675 3723   1.629   3.418   3.039 -3.6448  1.2924  0.0369
    5MOL   H676 3724   1.535   3.435   3.188  0.5385  1.6788 -0.2065
    5MOL   H677 3725   1.799   3.276   3.171 -0.0546 -0.3423  1.2160
    5MOL   H678 3726   1.693   3.303   3.311 -2.0761 -1.1439 -0.5441
    5MOL   H679 3727   1.908   3.469   3.266 -0.3879  0.1643 -0.3050
    5MOL   H680 3728   1.810   3.532   3.148  0.2864  0.1715 -0.5269
    5MOL   H681 3729   1.624   3.556   3.349 -0.9239 -3.0104 -0.8921
    5MOL   H682 3730   1.745   3.509   3.455 -0.5039  1.0942 -0.1646
    5MOL   H683 3731   1.873   3.677   3.458 -0.6623 -1.7697  0.1964
    5MOL   H684 3732   1.716   3.748   3.469 -0.1343  1.5663 -1.4271
    5MOL   H685 3733   1.931   3.806   3.306  0.4411 -0.0563  0.1567
    5MOL   C686 3734   1.777   3.842   3.185  0.8096  0.3356 -0.2177
    5MOL   O687 3735   1.847   3.896   3.102 -0.0230 -0.5238  0.0122
    5MOL   C688 3736   1.623   3.824   3.169  0.1607 -0.2396  0.2530
    5MOL   C689 3737   1.575   3.835   3.020 -0.4173 -0.0566  0.2542
    5MOL   C690 3738   1.541   3.699   2.956  0.5799 -0.0931 -0.7347
    5MOL   C691 3739   1.490   3.696   2.808  0.2137  0.5924  0.9151
    5MOL   C692 3740   1.465   3.556   2.753 -0.0369 -0.3492  0.9002
    5MOL   O693 3741   1.488   3.461   2.825 -0.0708  0.0698  0.7009
    5MOL   N694 3742   1.408   3.550   2.629 -0.0257  0.0970  0.7329
    5MOL   C695 3743   1.372   3.429   2.561  0.4386  0.1842 -0.3511
    5MOL   C696 3744   1.231   3.373   2.583  0.6320 -0.2858  0.1031
    5MOL   C697 3745   1.129   3.483   2.612  0.0835 -0.0021  0.0847
    5MOL   C698 3746   0.978   3.437   2.611  0.7660  0.0536 -0.2480
    5MOL   C699 3747   0.872   3.547   2.600  0.0099  0.2062  0.2281
    5MOL   C700 3748   0.852   3.638   2.719 -0.1451  0.1526 -0.1422
    5MOL   N701 3749   0.770   3.756   2.680  0.1473 -0.3341  0.1451
    5MOL   H702 3750   1.588   3.731   3.214  2.1444 -0.5118  1.2886
    5MOL   H703 3751   1.574   3.908   3.219  0.9877 -0.0451  0.7406
    5MOL   H704 3752   1.487   3.899   3.015 -0.7059 -0.4087  0.7804
    5MOL   H705 3753   1.646   3.893   2.961 -1.1715  1.4623  0.8125
    5MOL   H706 3754   1.464   3.658   3.021  1.4583  1.3956  1.3244
    5MOL   H707 3755   1.622   3.631   2.985 -1.2441 -1.6871  0.7514
    5MOL   H708 3756   1.574   3.737   2.752 -1.8920  1.7173 -1.5676
    5MOL   H709 3757   1.404   3.760   2.786 -0.6268 -0.9972 -0.6081
    5MOL   H710 3758   1.387   3.636   2.580  3.0341  0.3677 -0.2696
    5MOL   H711 3759   1.392   3.431   2.453  0.6042  0.4052 -0.3157
    5MOL   H712 3760   1.433   3.345   2.594  3.3784  1.7773 -1.5008
    5MOL   H713 3761   1.197   3.332   2.488 -1.2086  1.7926 -0.1659
    5MOL   H714 3762   1.232   3.288   2.652  2.0589 -0.3952 -0.0431
    5MOL   H715 3763   1.143   3.552   2.529 -0.5141  2.0048  1.6221
    5MOL   H716 3764   1.149   3.533   2.707  2.8132 -1.4410  0.3377
    5MOL   H717 3765   0.957   3.372   2.526 -0.6237 -1.0958  0.9329
    5MOL   H718 3766   0.963   3.374   2.699  1.1620  0.9554  0.4742
    5MOL   H719 3767   0.897   3.605   2.511 -2.8405  0.7797 -0.2451
    5MOL   H720 3768   0.780   3.500   2.565  0.8780  0.1466 -2.0624
    5MOL   H721 3769   0.948   3.677   2.754 -0.1475 -1.2969  1.5402
    5MOL   H722 3770   0.802   3.582   2.798  0.5458 -0.5724 -0.2112
    5MOL   H723 3771   0.817   3.839   2.647  0.0649  0.0726  1.0286
    5MOL   C724 3772   0.641   3.768   2.671 -0.1357 -0.1834 -0.5216
    5MOL   O725 3773   0.562   3.682   2.703 -0.7302 -0.6672 -0.2204
    5MOL   C726 3774   0.592   3.891   2.600  0.5097 -0.0230  0.7947
    5MOL   C727 3775   0.541   3.850   2.454  0.6755  0.6233 -0.6386
    5MOL   C728 3776   0.653   3.850   2.351  0.6324  0.8002  0.7320
    5MOL   C729 3777   0.621   3.773   2.216  1.1293  0.1145  0.2123
    5MOL   C730 3778   0.734   3.794   2.121  0.0914 -0.3224  0.2062
    5MOL   O731 3779   0.825   3.713   2.117  0.1290  0.7488  0.7150
    5MOL   N732 3780   0.713   3.904   2.043  0.3015 -0.6415 -0.2060
    5MOL   C733 3781   0.782   3.937   1.918  0.1365 -0.0291  0.2892
    5MOL   C734 3782   0.680   3.979   1.803 -0.5660 -0.1576 -0.6105
    5MOL   C735 3783   0.546   3.898   1.813  0.0814 -0.0590  0.0675
    5MOL   C736 3784   0.451   3.921   1.692 -0.2424  0.3711 -0.2186
    5MOL   C737 3785   0.372   4.052   1.709 -0.7938 -0.2917 -0.0593
    5MOL   C738 3786   0.256   4.039   1.815 -0.3295  1.3231 -0.6852
    5MOL   N739 3787   0.167   4.151   1.822  0.3074  0.1254  0.2685
    5MOL   H740 3788   0.515   3.945   2.655 -0.1672  0.8556 -0.9842
    5MOL   H741 3789   0.674   3.961   2.585 -0.5966  1.1335  0.0371
    5MOL   H742 3790   0.497   3.750   2.456 -0.5754  1.1618 -1.0044
    5MOL   H743 3791   0.453   3.907   2.424  0.3723 -0.9703 -2.9497
    5MOL   H744 3792   0.746   3.809   2.388  1.4425 -0.4809 -2.5387
    5MOL   H745 3793   0.676   3.955   2.335 -0.2416  0.9128  0.1449
    5MOL   H746 3794   0.524   3.803   2.176  0.8963 -2.4209 -1.2729
    5MOL   H747 3795   0.603   3.667   2.237  2.7696 -0.3958 -0.8491
    5MOL   H748 3796   0.636   3.965   2.065  0.7844 -0.9123  2.3880
    5MOL   H749 3797   0.844   4.022   1.944 -1.3040  1.3860 -0.7733
    5MOL   H750 3798   0.841   3.851   1.886 -3.2016 -1.3751 -2.5473
    5MOL   H751 3799   0.654   4.085   1.806 -1.3157 -0.3484 -0.2868
    5MOL   H752 3800   0.726   3.970   1.704  0.6684  0.1215 -0.0748
    5MOL   H753 3801   0.491   3.919   1.905  0.7404  0.8604  0.2528
    5MOL   H754 3802   0.550   3.789   1.820 -0.9419 -0.3996 -3.6034
    5MOL   H755 3803   0.498   3.919   1.594  0.1872  0.7382 -0.0223
    5MOL   H756 3804   0.384   3.835   1.700 -0.1462  0.3539  0.4258
    5MOL   H757 3805   0.438   4.134   1.738 -1.0825  0.8279 -2.4362
    5MOL   H758 3806   0.334   4.084   1.612  2.1379  1.1187 -0.7961
    5MOL   H759 3807   0.305   4.009   1.908 -0.7771 -0.8700 -1.1383
    5MOL   H760 3808   0.193   3.953   1.793  2.2201 -1.0595  1.0081
    5MOL   H761 3809   0.107   4.161   1.741  0.4731  0.9641  0.2383
    5MOL   H762 3810   0.097   4.136   1.893  0.8702 -3.0664  0.2103
    6MOL     C1 3811   7.665   0.394   5.162 -0.2788 -0.6794  0.8809
    6MOL     O2 3812   0.009   0.296   5.218 -0.2983  0.0398  0.3336
    6MOL     C3 3813   7.698   0.537   5.198 -0.0470 -0.1729 -0.1697
    6MOL     C4 3814   7.618   0.574   5.320 -0.2411  0.1560  0.6473
    6MOL     C5 3815   7.468   0.597   5.297 -0.8719 -0.0121  0.1613
    6MOL     C6 3816   7.383   0.641   5.421 -1.0044 -0.3879  1.5676
    6MOL     C7 3817   7.351   0.550   5.532 -0.1238 -0.3804 -0.0368
    6MOL     O8 3818   7.305   0.441   5.509  0.0441  0.1605  0.7402
    6MOL     N9 3819   7.358   0.600   5.655 -0.7621 -0.5928 -0.4126
    6MOL    C10 3820   7.342   0.519   5.772 -0.4468 -0.5453  0.0595
    6MOL    C11 3821   7.347   0.611   5.899 -0.5483  0.1507  0.1629
    6MOL    C12 3822   7.346   0.532   6.030  0.5972  0.2475  0.3634
    6MOL    C13 3823   7.376   0.610   6.151  0.0275  0.1985 -0.7801
    6MOL    C14 3824   7.438   0.529   6.269  0.6670 -0.1300 -0.3467
    6MOL    C15 3825   7.455   0.621   6.390 -0.8742  0.2172  0.7035
    6MOL    N16 3826   7.566   0.573   6.468 -0.0100 -0.5335 -0.5944
    6MOL    H17 3827   0.092   0.535   5.235 -0.3259  2.2032  0.8173
    6MOL    H18 3828   7.699   0.609   5.115 -0.9646 -0.2796 -0.2852
    6MOL    H19 3829   7.630   0.493   5.392  2.0936  2.3932  2.8650
    6MOL    H20 3830   7.658   0.666   5.362  2.3755  0.0089 -1.3806
    6MOL    H21 3831   7.425   0.504   5.259 -0.2123 -0.2933  0.0960
    6MOL    H22 3832   7.445   0.670   5.220 -1.6048  0.3967  0.7660
    6MOL    H23 3833   7.288   0.666   5.373  0.7451  2.5038 -0.5176
    6MOL    H24 3834   7.421   0.736   5.457 -1.5041  0.1167  0.7660
    6MOL    H25 3835   7.421   0.677   5.672 -0.0267 -0.6149 -2.7707
    6MOL    H26 3836   7.246   0.467   5.768 -0.7432  0.0463 -0.7213
    6MOL    H27 3837   7.416   0.439   5.776 -0.1682 -0.2703  0.3336
    6MOL    H28 3838   7.433   0.678   5.895  0.0891 -0.7135 -0.7452
    6MOL    H29 3839   7.263   0.680   5.907 -0.0558  1.0156 -1.7441
    6MOL    H30 3840   7.416   0.450   6.014  2.4766  1.8648  0.0898
    6MOL    H31 3841   7.245   0.494   6.046  1.3881 -1.9829  0.2339
    6MOL    H32 3842   7.445   0.694   6.141 -1.0969  1.3619  0.9108
    6MOL    H33 3843   7.285   0.655   6.191 -1.2361 -2.2828 -0.7463
    6MOL    H34 3844   7.379   0.446   6.306  2.7769 -1.5261 -0.0375
    6MOL    H35 3845   7.525   0.482   6.224  1.1689 -0.0789  0.5612
    6MOL    H36 3846   7.367   0.629   6.454 -1.3350 -2.1442  0.4016
    6MOL    H37 3847   7.488   0.722   6.365  0.1830 -0.3042 -0.0402
    6MOL    H38 3848   7.632   0.513   6.420  0.9552  0.1658 -0.1755
    6MOL    H39 3849   7.601   0.377   5.075 -0.8038  0.8223  0.9573
    6MOL    C40 3850   7.599   0.598   6.596  0.1819  0.1165 -0.3213
    6MOL    O41 3851   7.521   0.658   6.674  0.2809 -0.3339 -0.2118
    6MOL    C42 3852   0.029   0.555   6.647 -0.1473  0.2515 -0.0830
    6MOL    C43 3853   0.058   0.592   6.790  0.1243  0.1954  0.3773
    6MOL    C44 3854   0.205   0.559   6.838 -0.0964  0.5358 -0.2826
    6MOL    C45 3855   0.211   0.538   6.993 -0.4251  0.2933  0.1032
    6MOL    C46 3856   0.209   0.664   7.072 -0.5039 -0.3135 -0.0879
    6MOL    O47 3857   0.118   0.746   7.060  0.7030  0.0986  0.5053
    6MOL    N48 3858   0.301   0.676   7.173 -0.0685  0.0672  0.1375
    6MOL    C49 3859   0.302   0.786   7.263 -0.6638 -0.4907 -0.2140
    6MOL    C50 3860   0.417   0.799   7.362 -0.4211 -0.3597 -0.1208
    6MOL    C51 3861   0.382   0.878   7.492 -0.3628 -0.7668 -0.0263
    6MOL    C52 3862   0.497   0.874   7.595 -0.3731  0.8668  1.2904
    6MOL    C53 3863   0.465   0.971   0.006 -0.3311 -0.3927  0.1565
    6MOL    C54 3864   0.589   1.001   0.095  0.2233 -0.2314 -0.4501
    6MOL    N55 3865   0.617   0.877   0.165 -0.5882  0.2305  0.2631
    6MOL    H56 3866   0.034   0.446   6.646  0.0815  0.2608  0.0638
    6MOL    H57 3867   0.108   0.585   6.579  0.3782 -0.6681  0.1121
    6MOL    H58 3868   0.038   0.698   6.809 -1.4056 -0.2343  1.2960
    6MOL    H59 3869   7.695   0.544   6.857 -0.6926 -1.4462 -1.6223
    6MOL    H60 3870   0.268   0.639   6.800 -2.5150  2.2493 -0.7751
    6MOL    H61 3871   0.246   0.473   6.785 -0.5738  1.2698 -1.8752
    6MOL    H62 3872   0.309   0.495   7.015  0.1207  0.5657 -1.6779
    6MOL    H63 3873   0.135   0.473   7.037 -0.1103  0.1667  0.4585
    6MOL    H64 3874   0.366   0.600   7.189  0.1173  0.1110 -0.4006
    6MOL    H65 3875   0.297   0.877   7.204  0.4727 -0.6000 -0.4809
    6MOL    H66 3876   0.209   0.770   7.318 -0.9528 -1.4499 -0.9695
    6MOL    H67 3877   0.452   0.699   7.390 -0.1960 -0.0546  0.7128
    6MOL    H68 3878   0.501   0.848   7.314 -0.5703 -0.1873 -0.2025
    6MOL    H69 3879   0.299   0.821   7.535 -0.1086 -1.2619 -0.1918
    6MOL    H70 3880   0.337   0.974   7.468 -4.3136 -2.7405 -0.8437
    6MOL    H71 3881   0.517   0.772   7.626 -0.4203  0.5310  0.2234
    6MOL    H72 3882   0.589   0.911   7.549  1.8062 -1.3036  3.7337
    6MOL    H73 3883   0.435   1.068   7.675 -0.4586 -0.7762 -0.7182
    6MOL    H74 3884   0.387   0.927   0.068 -0.4495  0.9064  0.9463
    6MOL    H75 3885   0.565   1.081   0.166 -0.8089 -0.3345 -0.6895
    6MOL    H76 3886   0.681   1.028   0.042 -1.5363  2.3125 -2.3087
    6MOL    H77 3887   0.549   0.803   0.152 -0.6294  0.2005  0.6473
    6MOL    C78 3888   0.730   0.841   0.229  0.5178 -0.3197 -0.4237
    6MOL    O79 3889   0.828   0.919   0.249  0.0571 -0.4401  0.2412
    6MOL    C80 3890   0.744   0.696   0.284  0.6436 -0.1201  0.3702
    6MOL    C81 3891   0.888   0.650   0.302 -0.6499  0.2358 -0.6969
    6MOL    C82 3892   0.950   0.639   0.449 -0.3735  0.4799 -0.2142
    6MOL    C83 3893   0.983   0.770   0.523  0.7293  0.8495 -0.0576
    6MOL    C84 3894   1.110   0.834   0.478 -0.0917 -0.3124 -0.2030
    6MOL    O85 3895   1.210   0.814   0.544  0.2830  0.0544 -0.4388
    6MOL    N86 3896   1.110   0.919   0.368 -0.3971  0.8821 -0.0033
    6MOL    C87 3897   1.233   0.969   0.303 -0.2884 -0.0472 -0.4145
    6MOL    C88 3898   1.198   1.016   0.158  0.8848  0.0632  0.1924
    6MOL    C89 3899   1.309   1.077   0.081 -0.3909 -0.4427  0.0772
    6MOL    C90 3900   1.268   1.136   7.657  0.1777 -0.5576 -0.2358
    6MOL    C91 3901   1.381   1.216   7.578 -0.0345  0.8593 -0.2640
    6MOL    C92 3902   1.333   1.269   7.436 -0.4075  0.0981 -0.1268
    6MOL    N93 3903   1.431   1.352   7.373  0.1067  0.2628  0.4146
    6MOL    H94 3904   0.690   0.696   0.378  2.0895  0.8677  1.2174
    6MOL    H95 3905   0.694   0.626   0.216 -1.4928 -0.7328  2.5171
    6MOL    H96 3906   0.884   0.550   0.258  1.5532  0.2160 -0.9465
    6MOL    H97 3907   0.958   0.699   0.234 -2.3610  1.0925 -1.8841
    6MOL    H98 3908   1.039   0.577   0.452  0.2888  1.4208 -0.2493
    6MOL    H99 3909   0.878   0.598   0.521  1.3100  1.1136  1.8765
    6MOL   H100 3910   0.983   0.748   0.630 -0.1786  1.0589 -0.0135
    6MOL   H101 3911   0.899   0.838   0.515 -1.1756 -1.3233  0.7817
    6MOL   H102 3912   1.021   0.922   0.320 -0.9003 -2.0145  0.6398
    6MOL   H103 3913   1.272   1.050   0.365 -1.5667  0.3844 -0.1667
    6MOL   H104 3914   1.311   0.893   0.312 -1.6871 -1.2709  2.0170
    6MOL   H105 3915   1.159   0.927   0.109  0.6978  0.6825 -0.7873
    6MOL   H106 3916   1.121   1.093   0.162  1.6955  0.8143  1.9017
    6MOL   H107 3917   1.391   1.010   0.057 -1.2803 -1.3844 -0.3467
    6MOL   H108 3918   1.355   1.157   0.141 -1.1861  0.9090 -1.0971
    6MOL   H109 3919   1.231   1.058   7.591  3.3754 -1.4219 -1.0819
    6MOL   H110 3920   1.182   1.201   7.672 -0.2861 -1.1628 -0.2321
    6MOL   H111 3921   1.424   1.296   7.638  1.6331  0.2698 -0.6546
    6MOL   H112 3922   1.464   1.149   7.560 -0.7723 -0.6291  1.7916
    6MOL   H113 3923   1.243   1.327   7.454 -0.3100 -0.2334  1.4491
    6MOL   H114 3924   1.318   1.181   7.373 -1.2067  0.9578 -1.1416
    6MOL   H115 3925   1.472   1.307   7.292  0.9784 -0.0901  1.0509
    6MOL   C116 3926   1.454   1.479   7.391  0.4839  0.0052 -0.6339
    6MOL   O117 3927   1.397   1.548   7.474 -0.6353  0.1499  0.1765
    6MOL   C118 3928   1.571   1.536   7.316  0.0685 -1.1245  0.3010
    6MOL   C119 3929   1.702   1.477   7.364 -0.5088 -0.3834  0.4707
    6MOL   C120 3930   1.750   1.530   7.499 -0.7327  0.2889 -0.4058
    6MOL   C121 3931   1.898   1.499   7.524 -0.4218  0.0847 -0.1445
    6MOL   C122 3932   1.940   1.548   7.663 -0.1515  0.1502  0.2909
    6MOL   O123 3933   1.911   1.479   0.054  0.6526 -0.3668  0.1573
    6MOL   N124 3934   2.006   1.667   7.671 -0.1016  0.0273 -0.0161
    6MOL   C125 3935   2.029   1.745   0.086 -0.6038  0.3231  0.2374
    6MOL   C126 3936   1.902   1.804   0.156 -0.3324 -0.6635  0.0671
    6MOL   C127 3937   1.829   1.917   0.075 -0.4597 -0.2087  0.0403
    6MOL   C128 3938   1.901   2.047   0.074  0.6493 -0.4491 -0.6081
    6MOL   C129 3939   1.816   2.177   0.063  0.5841  0.2277  0.3200
    6MOL   C130 3940   1.750   2.191   7.638  0.8886  0.2579  0.2503
    6MOL   N131 3941   1.659   2.308   7.645 -0.3293 -0.2058  0.1880
    6MOL   H132 3942   1.553   1.503   7.213  0.5367 -0.1862 -0.0897
    6MOL   H133 3943   1.567   1.644   7.330 -1.1714 -1.1053 -0.0968
    6MOL   H134 3944   1.703   1.369   7.370  2.3367 -0.3280  1.7247
    6MOL   H135 3945   1.784   1.497   7.294 -0.3867  0.5098  0.8625
    6MOL   H136 3946   1.698   1.481   7.582  1.0670 -1.9041 -0.5142
    6MOL   H137 3947   1.739   1.638   7.509  0.2907  0.2541  1.3508
    6MOL   H138 3948   1.952   1.546   7.442  1.6389  0.0032  1.1361
    6MOL   H139 3949   1.917   1.391   7.529 -0.5803  0.1063  1.0291
    6MOL   H140 3950   2.015   1.722   7.587  2.0628 -1.0717 -0.5492
    6MOL   H141 3951   2.077   1.680   0.159 -2.3421 -1.9959 -0.6223
    6MOL   H142 3952   2.100   1.820   0.053 -0.7744  0.1138 -0.6235
    6MOL   H143 3953   1.825   1.731   0.181 -1.0493 -0.7813 -2.3336
    6MOL   H144 3954   1.933   1.834   0.256  1.7919 -0.7917 -0.5223
    6MOL   H145 3955   1.730   1.938   0.116  0.1715 -0.2809  1.6457
    6MOL   H146 3956   1.822   1.881   7.681  0.0535  2.6145 -1.0401
    6MOL   H147 3957   1.953   2.056   0.169 -0.2559 -0.2676 -0.1328
    6MOL   H148 3958   1.976   2.057   7.703 -0.1042 -1.3861 -1.4569
    6MOL   H149 3959   1.742   2.178   0.143  1.3794 -0.7424  1.0880
    6MOL   H150 3960   1.872   2.267   0.086  1.9325 -0.7497  0.9080
    6MOL   H151 3961   1.701   2.095   7.625  3.7156 -1.0573 -1.1522
    6MOL   H152 3962   1.828   2.192   7.562  1.1889 -0.9074  0.5362
    6MOL   H153 3963   1.644   2.344   0.030  1.8102 -0.4429  0.6445
    6MOL   C154 3964   1.602   2.366   7.543 -0.5403  0.1214 -0.0192
    6MOL   O155 3965   1.626   2.325   7.434 -0.0709  0.0934  0.3000
    6MOL   C156 3966   1.510   2.483   7.565  0.6733 -0.2713  0.2509
    6MOL   C157 3967   1.562   2.611   7.504  0.3325 -0.1414  0.3043
    6MOL   C158 3968   1.690   2.666   7.571 -0.1534  0.0113  0.0551
    6MOL   C159 3969   1.751   2.784   7.497  0.6330 -0.3424 -0.1343
    6MOL   C160 3970   1.855   2.866   7.581 -0.3876 -0.3514 -0.0052
    6MOL   O161 3971   1.900   2.820   7.690 -0.3869  0.3027  0.2693
    6MOL   N162 3972   1.896   2.982   7.532  0.5552 -0.2490 -0.0775
    6MOL   C163 3973   2.021   3.038   7.582  0.3489  0.0543  0.4776
    6MOL   C164 3974   2.048   3.179   7.529 -0.0168  0.5391 -0.0742
    6MOL   C165 3975   2.200   3.210   7.562 -0.8806 -0.2171  0.7414
    6MOL   C166 3976   2.241   3.347   7.525 -0.0814 -0.1459 -0.2050
    6MOL   C167 3977   2.202   3.451   7.633  0.7196 -0.7062 -0.7859
    6MOL   C168 3978   2.268   3.589   7.612  0.6346  0.3839  0.5367
    6MOL   N169 3979   2.267   3.667   0.022  0.6319  0.3295 -0.1995
    6MOL   H170 3980   1.413   2.453   7.526  1.1183 -0.9890 -0.3023
    6MOL   H171 3981   1.497   2.502   7.672 -0.3067 -0.7834  0.2308
    6MOL   H172 3982   1.588   2.591   7.400  0.5616 -0.1714  0.3675
    6MOL   H173 3983   1.488   2.691   7.496  0.0216 -0.5171 -0.6654
    6MOL   H174 3984   1.773   2.596   7.582  0.3577  0.5391 -0.3853
    6MOL   H175 3985   1.661   2.694   7.672 -2.8939 -2.0147 -0.1222
    6MOL   H176 3986   1.664   2.847   7.481 -0.8208 -1.8657  1.5407
    6MOL   H177 3987   1.796   2.762   7.400 -0.4103  2.6974 -1.3559
    6MOL   H178 3988   1.861   3.011   7.441 -0.1578  1.0774  0.5986
    6MOL   H179 3989   2.008   3.056   7.689 -0.6306 -4.2981  1.1581
    6MOL   H180 3990   2.090   2.958   7.556 -0.8646 -0.6567 -0.5722
    6MOL   H181 3991   2.040   3.179   7.421 -0.8063  1.0710 -0.0244
    6MOL   H182 3992   1.971   3.243   7.572  0.0296 -0.4835  1.5783
    6MOL   H183 3993   2.267   3.150   7.499 -1.0273 -0.1621  0.5317
    6MOL   H184 3994   2.212   3.191   7.668  3.1490 -0.3172  0.3650
    6MOL   H185 3995   2.349   3.344   7.538 -0.0965  1.1215  0.2620
    6MOL   H186 3996   2.219   3.389   7.426  1.3189 -0.2533 -0.5693
    6MOL   H187 3997   2.094   3.466   7.635  0.7728 -0.2647 -1.1000
    6MOL   H188 3998   2.231   3.417   0.024 -1.1322 -0.1722 -0.0196
    6MOL   H189 3999   2.208   3.632   7.532 -0.2481 -3.0093 -0.7070
    6MOL   H190 4000   2.371   3.572   7.579 -0.3540  2.3129 -3.8723
    6MOL   H191 4001   2.182   3.717   0.042  0.4610  0.1911 -0.5883
    6MOL   C192 4002   2.378   3.682   0.103  0.1248  0.7299 -0.9935
    6MOL   O193 4003   2.481   3.638   0.065 -0.6575 -0.0993  0.1055
    6MOL   C194 4004   2.360   3.756   0.238 -0.0701  0.0702  0.3116
    6MOL   C195 4005   2.435   3.683   0.353 -0.3901  0.1560  0.3267
    6MOL   C196 4006   2.370   3.553   0.407  0.3504 -0.7369  0.0705
    6MOL   C197 4007   2.428   3.501   0.539  0.1547  0.2203 -0.4277
    6MOL   C198 4008   2.398   3.591   0.664  0.6049 -0.1773 -0.6780
    6MOL   O199 4009   2.287   3.643   0.683  1.3773 -0.1599  0.5415
    6MOL   N200 4010   2.499   3.605   0.750  0.0106  0.0832  0.2695
    6MOL   C201 4011   2.506   3.711   0.844  0.1006 -0.2360  0.0633
    6MOL   C202 4012   2.617   3.686   0.952  0.5105 -0.1150 -0.4475
    6MOL   C203 4013   2.765   3.689   0.901  0.2225 -0.3744 -0.0785
    6MOL   C204 4014   2.866   3.711   1.010 -0.8261 -0.1043 -0.0862
    6MOL   C205 4015   2.861   3.613   1.135 -0.2699 -0.0803 -0.1673
    6MOL   C206 4016   2.980   3.639   1.235 -0.0316 -0.5474 -0.0462
    6MOL   N207 4017   2.994   3.783   1.265  0.3259  0.4779 -0.0573
    6MOL   H208 4018   2.414   3.848   0.218 -0.7459  0.6893  1.2907
    6MOL   H209 4019   2.255   3.778   0.257 -0.2457 -0.6408  0.2130
    6MOL   H210 4020   2.539   3.675   0.322 -0.5091 -1.5176  0.3175
    6MOL   H211 4021   2.437   3.764   0.425 -0.2111  1.3475 -0.9928
    6MOL   H212 4022   2.380   3.478   0.328  3.4409 -2.8776  2.3628
    6MOL   H213 4023   2.264   3.574   0.419  0.8117  1.4480  0.4957
    6MOL   H214 4024   2.535   3.496   0.523  0.3424  0.9593  0.5977
    6MOL   H215 4025   2.398   3.399   0.561 -0.5565  0.1647 -1.5992
    6MOL   H216 4026   2.579   3.547   0.729 -1.2478 -1.7372  0.3957
    6MOL   H217 4027   2.532   3.802   0.790 -2.4632 -0.2220 -1.1967
    6MOL   H218 4028   2.409   3.733   0.887  0.0276 -0.8500  0.2215
    6MOL   H219 4029   2.598   3.740   1.045  0.7605 -0.2770 -0.3040
    6MOL   H220 4030   2.613   3.582   0.984  1.1200 -0.3533 -1.1373
    6MOL   H221 4031   2.783   3.757   0.817  1.5838  0.0620  0.5500
    6MOL   H222 4032   2.784   3.595   0.850  2.5582  0.0893 -0.1054
    6MOL   H223 4033   2.967   3.712   0.969 -0.5023  0.6223  0.7017
    6MOL   H224 4034   2.870   3.815   1.044  1.7447 -0.7140  1.6536
    6MOL   H225 4035   2.769   3.635   1.190  0.7451  1.6724  0.8827
    6MOL   H226 4036   2.868   3.509   1.103 -1.3811  0.2675 -1.5795
    6MOL   H227 4037   3.078   3.598   1.210  0.0672 -1.5436  1.8850
    6MOL   H228 4038   2.960   3.594   1.332 -2.0575  3.2122  1.3763
    6MOL   H229 4039   3.042   3.837   1.194 -0.0749  0.2959 -0.4696
    6MOL   C230 4040   2.937   3.846   1.373  0.2596  0.2675 -0.0304
    6MOL   O231 4041   2.861   3.787   1.450 -0.4595 -0.8342 -0.6630
    6MOL   C232 4042   2.969   3.992   1.393  0.1415  0.6297  1.2516
    6MOL   C233 4043   2.861   4.069   1.472 -0.0896 -0.1291  1.6357
    6MOL   C234 4044   2.923   4.206   1.515  0.4834  0.2071  0.3767
    6MOL   C235 4045   2.825   4.314   1.560  0.0686  0.2234 -0.4062
    6MOL   C236 4046   2.728   4.358   1.450 -0.3505  0.2418 -0.1256
    6MOL   O237 4047   2.767   4.367   1.331 -0.2727 -0.3311 -0.3325
    6MOL   N238 4048   2.604   4.396   1.490  0.0408 -0.7021  0.5177
    6MOL   C239 4049   2.492   4.445   1.400 -0.5855  0.0381 -1.1622
    6MOL   C240 4050   2.382   4.489   1.499 -0.2036 -0.1248  0.2061
    6MOL   C241 4051   2.268   4.573   1.433 -0.2386  0.4265 -0.3773
    6MOL   C242 4052   2.324   4.716   1.392  0.5606  0.4139 -0.4763
    6MOL   C243 4053   2.300   4.747   1.237  0.3458 -0.0288 -0.0403
    6MOL   C244 4054   2.148   4.755   1.209 -0.2458 -0.3462  0.1288
    6MOL   N245 4055   2.132   4.758   1.066 -0.0570 -0.1668 -0.3060
    6MOL   H246 4056   3.068   4.011   1.434  0.6931 -0.0732  0.2850
    6MOL   H247 4057   2.984   4.035   1.294 -0.5985 -0.3012  0.7232
    6MOL   H248 4058   2.780   4.085   1.401  1.5407  2.8835  0.3888
    6MOL   H249 4059   2.830   4.008   1.557  0.8574 -0.1838  1.9454
    6MOL   H250 4060   2.989   4.249   1.440 -1.5669  3.8906  0.5933
    6MOL   H251 4061   2.998   4.184   1.591 -2.2464 -2.1939  2.5419
    6MOL   H252 4062   2.870   4.410   1.586  0.4248 -0.2310  0.6586
    6MOL   H253 4063   2.765   4.273   1.641  2.5620 -1.5315  0.6059
    6MOL   H254 4064   2.581   4.395   1.588 -0.2649 -1.1544  0.4457
    6MOL   H255 4065   2.531   4.536   1.353 -0.7723  0.3340 -0.7520
    6MOL   H256 4066   2.454   4.383   1.319 -4.7161  1.1417 -0.1882
    6MOL   H257 4067   2.342   4.398   1.545  2.6927 -0.8776  1.3529
    6MOL   H258 4068   2.413   4.550   1.584 -0.9508 -2.5580  2.2843
    6MOL   H259 4069   2.185   4.592   1.501 -0.3226  1.0388 -0.6501
    6MOL   H260 4070   2.242   4.514   1.345 -3.6762 -0.9303  1.4625
    6MOL   H261 4071   2.273   4.794   1.450  2.4818  0.1057  1.6737
    6MOL   H262 4072   2.428   4.725   1.423  0.4016  1.2383 -0.1515
    6MOL   H263 4073   2.364   4.831   1.210  1.5893 -0.7720  0.5147
    6MOL   H264 4074   2.348   4.668   1.179  1.2364  0.5589 -0.1113
    6MOL   H265 4075   2.110   4.845   1.259 -1.8150 -0.7434 -0.3279
    6MOL   H266 4076   2.081   4.682   1.254  0.4633 -1.3791 -0.4930
    6MOL   H267 4077   2.194   4.694   1.018 -0.7615  0.0270 -1.4987
    6MOL   C268 4078   2.034   4.820   1.010 -0.5269  0.0123 -0.0203
    6MOL   O269 4079   1.949   4.892   1.068 -0.3627 -0.5384  0.4945
    6MOL   C270 4080   2.032   4.810   0.855  0.8642  0.1557  0.8237
    6MOL   C271 4081   1.997   4.944   0.785  0.9013 -0.1691 -0.1028
    6MOL   C272 4082   2.115   5.040   0.759  0.3598  0.1528 -0.2098
    6MOL   C273 4083   2.156   5.135   0.875  0.1821 -0.4479 -0.2884
    6MOL   C274 4084   2.044   5.236   0.905  0.0057  1.0630 -0.2882
    6MOL   O275 4085   2.031   5.333   0.832  0.0143 -0.7489 -0.1478
    6MOL   N276 4086   1.955   5.206   1.001 -0.0493  0.1755  0.7968
    6MOL   C277 4087   1.842   5.289   1.031 -0.4585 -0.7612  0.0023
    6MOL   C278 4088   1.743   5.211   1.124  0.2341  0.9499  0.2062
    6MOL   C279 4089   1.607   5.202   1.057 -0.1328  0.6612  0.1554
    6MOL   C280 4090   1.499   5.146   1.157 -0.2552 -0.0689  0.2760
    6MOL   C281 4091   1.360   5.137   1.101 -0.1171  0.7729 -0.4748
    6MOL   C282 4092   1.281   5.010   1.125 -0.5513  0.8478  0.1822
    6MOL   N283 4093   1.171   4.993   1.035 -0.4725 -0.1442 -0.6756
    6MOL   H284 4094   2.124   4.767   0.818 -0.0336 -0.3284 -0.8689
    6MOL   H285 4095   1.952   4.738   0.837  2.1579 -1.2034  0.4946
    6MOL   H286 4096   1.968   4.924   0.682  2.1536  1.8603 -0.8757
    6MOL   H287 4097   1.914   4.999   0.831  1.2355  1.5518 -1.5197
    6MOL   H288 4098   2.104   5.099   0.668  0.5512  0.4859 -0.0214
    6MOL   H289 4099   2.202   4.981   0.734 -0.0221 -0.8913  0.8616
    6MOL   H290 4100   2.250   5.179   0.841  0.1195 -1.1534 -1.4080
    6MOL   H291 4101   2.183   5.075   0.962  1.4506  2.8183  1.6829
    6MOL   H292 4102   1.967   5.126   1.062 -2.3847 -0.4208  0.5187
    6MOL   H293 4103   1.866   5.369   1.101  0.4229 -1.1990  0.2057
    6MOL   H294 4104   1.792   5.329   0.942  0.8057 -2.9541 -1.7339
    6MOL   H295 4105   1.754   5.104   1.141 -1.3931  0.7843  0.2911
    6MOL   H296 4106   1.730   5.257   1.222 -0.0883  1.3087 -0.0033
    6MOL   H297 4107   1.612   5.139   0.968 -2.6835  1.2321 -0.4240
    6MOL   H298 4108   1.571   5.298   1.018  0.3478  0.1258 -1.6439
    6MOL   H299 4109   1.532   5.045   1.183  0.5215  0.1196  0.0335
    6MOL   H300 4110   1.494   5.192   1.255 -2.8381  1.9563 -0.7472
    6MOL   H301 4111   1.298   5.207   1.156 -1.2794 -0.1613 -0.5745
    6MOL   H302 4112   1.366   5.157   0.994  0.1092  0.7842 -0.4599
    6MOL   H303 4113   1.261   4.990   1.230 -0.5355  0.0187  0.0301
    6MOL   H304 4114   1.356   4.936   1.098 -0.6293  0.9973 -0.4480
    6MOL   H305 4115   1.202   5.003   0.939  2.3269 -0.4022  0.1561
    6MOL   C306 4116   1.041   4.955   1.063  0.2726  0.4076  0.4687
    6MOL   O307 4117   0.996   4.935   1.177 -0.2105  0.1915  0.7019
    6MOL   C308 4118   0.940   4.953   0.952 -0.2594  0.2393 -0.1315
    6MOL   C309 4119   0.828   5.045   0.983  0.5317 -0.4559  0.3521
    6MOL   C310 4120   0.725   5.062   0.875  0.3635 -0.0143  0.0857
    6MOL   C311 4121   0.619   5.181   0.899  0.3245  0.0736 -0.3245
    6MOL   C312 4122   0.545   5.167   1.033 -0.1355  0.5304 -0.1425
    6MOL   O313 4123   0.468   5.072   1.054  0.4358  0.1412  0.3730
    6MOL   N314 4124   0.578   5.251   1.133  0.1014 -0.0649  0.5424
    6MOL   C315 4125   0.530   5.248   1.267 -0.0341 -0.6632 -0.6989
    6MOL   C316 4126   0.640   5.188   1.350  0.6696 -0.0049 -0.5657
    6MOL   C317 4127   0.779   5.242   1.324  0.2477  0.3251  0.1779
    6MOL   C318 4128   0.897   5.168   1.402  1.0756  0.2201  0.2728
    6MOL   C319 4129   1.028   5.208   1.343  0.1573 -0.6489 -0.2628
    6MOL   C320 4130   1.087   5.338   1.388  0.1423 -0.4872  0.3541
    6MOL   N321 4131   1.089   5.354   1.538  0.1925  0.2609  0.4333
    6MOL   H322 4132   1.000   4.974   0.863  1.3168 -1.1268  0.5737
    6MOL   H323 4133   0.899   4.854   0.933 -0.2172  0.0280  0.8585
    6MOL   H324 4134   0.770   5.016   1.070 -1.9916 -1.0934 -1.4678
    6MOL   H325 4135   0.868   5.144   1.002 -0.9595  0.3171 -0.3925
    6MOL   H326 4136   0.675   4.965   0.868 -0.6619  0.4868  0.3058
    6MOL   H327 4137   0.763   5.078   0.774  0.3262  1.2741  0.2666
    6MOL   H328 4138   0.548   5.180   0.816  0.0238  3.2591 -0.1596
    6MOL   H329 4139   0.674   5.275   0.892 -0.0517  0.3222  0.0647
    6MOL   H330 4140   0.657   5.307   1.105  1.3865 -3.2146 -2.4927
    6MOL   H331 4141   0.507   5.348   1.305  2.5820 -0.0541 -0.6211
    6MOL   H332 4142   0.436   5.193   1.268 -0.1559 -0.4781 -1.4734
    6MOL   H333 4143   0.612   5.194   1.455  0.2122 -0.0498 -0.6849
    6MOL   H334 4144   0.641   5.079   1.338 -1.4319 -0.2332  0.9815
    6MOL   H335 4145   0.793   5.345   1.358  1.0084 -0.5175  2.5295
    6MOL   H336 4146   0.803   5.232   1.218 -1.4636 -1.0720 -0.0932
    6MOL   H337 4147   0.905   5.161   1.510 -0.0042 -1.3532  0.2827
    6MOL   H338 4148   0.880   5.063   1.377  0.3670  0.1295  1.1188
    6MOL   H339 4149   1.102   5.132   1.369  0.3898 -0.4467 -0.3320
    6MOL   H340 4150   1.030   5.209   1.234  0.2529  0.8627 -0.2656
    6MOL   H341 4151   1.038   5.422   1.339 -0.9576 -1.2792  0.0997
    6MOL   H342 4152   1.187   5.338   1.344  0.5512  0.9490  1.2446
    6MOL   H343 4153   1.000   5.382   1.577 -1.5329 -4.5941  0.3783
    6MOL   C344 4154   1.185   5.305   1.616 -0.5518  0.3834  0.3664
    6MOL   O345 4155   1.283   5.237   1.572  0.4218 -0.6514 -0.3041
    6MOL   C346 4156   1.173   5.337   1.759  0.1240 -0.0336 -0.0529
    6MOL   C347 4157   1.297   5.302   1.842  0.1447 -0.5925  0.2045
    6MOL   C348 4158   1.426   5.394   1.804  0.5646  0.2639 -0.1428
    6MOL   C349 4159   1.412   5.556   1.790  0.1670 -0.3978 -0.1867
    6MOL   C350 4160   1.364   5.618   1.921  0.9150  0.4654  0.0110
    6MOL   O351 4161   1.372   5.553   2.027 -0.2654  0.1977  0.2686
    6MOL   N352 4162   1.310   5.741   1.911 -0.1753 -0.1884  0.3334
    6MOL   C353 4163   1.261   5.826   2.021  0.0337 -0.6362 -0.1963
    6MOL   C354 4164   1.134   5.893   1.979  0.1369  0.3813 -0.9613
    6MOL   C355 4165   1.074   5.996   2.081  0.2198  0.3503  0.5680
    6MOL   C356 4166   0.930   6.049   2.055 -0.0741  0.1728  0.2597
    6MOL   C357 4167   0.882   6.145   2.167 -1.0695  0.1754  0.2295
    6MOL   C358 4168   0.755   6.212   2.124  0.0101 -0.4412  0.0316
    6MOL   N359 4169   0.697   6.292   2.236 -1.1089 -0.4407 -0.1094
    6MOL   H360 4170   1.145   5.442   1.770 -0.7555 -0.5414  3.3783
    6MOL   H361 4171   1.097   5.277   1.810 -1.3983  2.5871  0.8301
    6MOL   H362 4172   1.265   5.323   1.944  0.1236  1.2470 -0.1645
    6MOL   H363 4173   1.330   5.198   1.831  2.9163  0.3758 -1.1824
    6MOL   H364 4174   1.474   5.361   1.712  1.8581  0.4657  0.4388
    6MOL   H365 4175   1.498   5.367   1.883 -0.7971 -2.0960  0.3583
    6MOL   H366 4176   1.344   5.575   1.707  0.5027 -1.2013 -0.6488
    6MOL   H367 4177   1.510   5.597   1.767 -0.7611  0.6744 -2.3817
    6MOL   H368 4178   1.302   5.784   1.820 -0.0072  2.8560  1.6991
    6MOL   H369 4179   1.246   5.775   2.116  2.1708  0.8508  0.9855
    6MOL   H370 4180   1.333   5.906   2.041  0.3368 -1.4539  2.1310
    6MOL   H371 4181   1.147   5.931   1.878  0.9599  0.7841 -0.7101
    6MOL   H372 4182   1.065   5.810   1.965  1.3688 -0.6525 -1.0715
    6MOL   H373 4183   1.146   6.078   2.079  0.0662  0.4636 -0.4665
    6MOL   H374 4184   1.080   5.936   2.172 -0.1789 -0.9781 -0.2840
    6MOL   H375 4185   0.928   6.094   1.955  1.5395 -1.5757 -0.5891
    6MOL   H376 4186   0.861   5.965   2.045 -0.0140  0.3260 -1.6407
    6MOL   H377 4187   0.874   6.103   2.267  0.3409 -0.2130  0.1952
    6MOL   H378 4188   0.958   6.224   2.176 -2.1566  1.5599 -2.2839
    6MOL   H379 4189   0.672   6.147   2.099 -1.1178  0.2838  1.7914
    6MOL   H380 4190   0.767   6.275   2.036  0.8671 -1.1252 -0.3500
    6MOL   H381 4191   0.740   6.280   2.327 -1.0605 -3.1919 -0.4502
    6MOL   C382 4192   0.583   6.353   2.221 -0.2097 -0.2076 -0.5599
    6MOL   O383 4193   0.523   6.359   2.114 -0.0525  0.3404  0.1473
    6MOL   C384 4194   0.533   6.427   2.345 -0.3400 -0.6390  0.7465
    6MOL   C385 4195   0.426   6.535   2.317  0.7448 -0.2269  0.3990
    6MOL   C386 4196   0.348   6.588   2.436  0.2742  0.4102 -0.5044
    6MOL   C387 4197   0.427   6.707   2.508 -0.0969  0.1834  0.1799
    6MOL   C388 4198   0.568   6.675   2.574  0.4765 -0.0714  0.1679
    6MOL   O389 4199   0.578   6.601   2.672 -0.3890  0.3486  0.0454
    6MOL   N390 4200   0.677   6.730   2.510  0.0304 -0.3698  0.2662
    6MOL   C391 4201   0.805   6.664   2.536 -0.2576  0.1266 -1.4713
    6MOL   C392 4202   0.907   6.709   2.434 -0.4553 -0.2022 -0.2402
    6MOL   C393 4203   0.892   6.618   2.312  0.6592  0.0745  0.7053
    6MOL   C394 4204   1.002   6.637   2.209  0.4511  0.7249 -0.2422
    6MOL   C395 4205   1.003   6.536   2.096  0.2824  0.4758  1.0316
    6MOL   C396 4206   1.099   6.565   1.989 -0.1911  0.4376 -0.0583
    6MOL   N397 4207   1.085   6.479   1.879  0.9143  0.4273  0.7975
    6MOL   H398 4208   0.487   6.356   2.413  1.2568 -0.3495  2.1682
    6MOL   H399 4209   0.618   6.465   2.402  0.0602  1.2170 -0.9875
    6MOL   H400 4210   0.467   6.606   2.245  0.3331 -0.9526 -0.5557
    6MOL   H401 4211   0.341   6.486   2.269  0.1911  1.2178 -0.1072
    6MOL   H402 4212   0.317   6.508   2.503  1.1919  0.9229  0.5419
    6MOL   H403 4213   0.257   6.635   2.399  1.2429  1.5813 -1.4611
    6MOL   H404 4214   0.364   6.740   2.590 -0.8142 -1.7434  0.4350
    6MOL   H405 4215   0.428   6.797   2.446 -2.0279  1.8303  2.4412
    6MOL   H406 4216   0.661   6.808   2.448  1.8932  1.0753  1.5612
    6MOL   H407 4217   0.823   6.705   2.635  0.1439  0.4621 -1.6821
    6MOL   H408 4218   0.809   6.555   2.544  0.9944  0.3351  1.2250
    6MOL   H409 4219   0.893   6.817   2.432 -0.0019 -0.1434 -0.2104
    6MOL   H410 4220   1.007   6.696   2.477 -1.1831  0.2679  1.6566
    6MOL   H411 4221   0.796   6.615   2.261  0.4839  1.5562  0.9154
    6MOL   H412 4222   0.905   6.512   2.333 -3.3000 -0.3436  1.4944
    6MOL   H413 4223   0.993   6.736   2.163  1.3091  1.9615  2.1805
    6MOL   H414 4224   1.102   6.629   2.251  0.1298  0.8203  0.5460
    6MOL   H415 4225   1.022   6.442   2.149 -2.3833 -0.6561  0.0762
    6MOL   H416 4226   0.904   6.508   2.058  0.4325  1.4915 -0.0983
    6MOL   H417 4227   1.195   6.566   2.040 -1.0288 -0.8863  1.5993
    6MOL   H418 4228   1.091   6.666   1.947  1.0788  0.6613  0.2244
    6MOL   H419 4229   1.010   6.498   1.814 -0.6574 -1.3761  2.0121
    6MOL   C420 4230   1.163   6.367   1.859  0.2162 -0.2927 -0.4678
    6MOL   O421 4231   1.247   6.339   1.941 -0.0679  0.1884 -0.1279
    6MOL   C422 4232   1.156   6.288   1.727  0.1035 -0.1867  0.2788
    6MOL   C423 4233   1.285   6.305   1.633  0.1496 -0.2292  0.4212
    6MOL   C424 4234   1.313   6.446   1.578 -0.6105 -0.6139  0.0683
    6MOL   C425 4235   1.456   6.446   1.515 -0.2802 -0.5350  0.1953
    6MOL   C426 4236   1.489   6.578   1.450  0.1244 -0.0450  0.0783
    6MOL   O427 4237   1.407   6.625   1.374 -0.3831 -0.2860 -0.0322
    6MOL   N428 4238   1.607   6.633   1.475 -0.0691 -0.2116  0.3427
    6MOL   C429 4239   1.672   6.744   1.406 -0.4531  0.4337  0.6964
    6MOL   C430 4240   1.706   6.860   1.504  0.2611 -0.6821 -0.2121
    6MOL   C431 4241   1.801   6.963   1.445 -0.4465 -0.4522 -0.2123
    6MOL   C432 4242   1.827   7.087   1.543  0.1170 -0.2551 -0.1143
    6MOL   C433 4243   1.697   7.170   1.559  0.2441 -0.6934  0.4861
    6MOL   C434 4244   1.703   7.296   1.657  0.0792 -0.6021  0.0488
    6MOL   N435 4245   1.751   7.243   1.783 -0.5000  0.5804  0.3824
    6MOL   H436 4246   1.158   6.182   1.753  0.1950  0.0224  1.1406
    6MOL   H437 4247   1.063   6.307   1.674  0.3583  0.5579  0.0978
    6MOL   H438 4248   1.375   6.286   1.691 -1.0841 -0.8514  2.1795
    6MOL   H439 4249   1.271   6.247   1.542  2.2650  0.8101 -0.5984
    6MOL   H440 4250   1.305   6.523   1.655  1.0880  0.5818 -0.8953
    6MOL   H441 4251   1.245   6.476   1.498  0.6832  0.4618 -0.6534
    6MOL   H442 4252   1.456   6.368   1.439 -1.7250 -0.0779 -0.2993
    6MOL   H443 4253   1.538   6.414   1.579  0.2520  0.5449  0.0620
    6MOL   H444 4254   1.665   6.587   1.544 -0.4950  0.0800  0.9087
    6MOL   H445 4255   1.766   6.712   1.359 -0.9957 -2.0072  1.2591
    6MOL   H446 4256   1.606   6.777   1.325 -0.4986 -3.0360 -0.7735
    6MOL   H447 4257   1.609   6.908   1.515  1.7474  2.7921 -1.5385
    6MOL   H448 4258   1.728   6.827   1.605  0.5771 -2.0424 -0.7077
    6MOL   H449 4259   1.775   6.986   1.341 -0.1412 -0.4511 -0.2866
    6MOL   H450 4260   1.894   6.910   1.429 -0.0589  0.2236 -0.2163
    6MOL   H451 4261   1.858   7.044   1.638 -0.9767  2.2320  1.4096
    6MOL   H452 4262   1.912   7.142   1.502 -0.1206  1.2949  1.4598
    6MOL   H453 4263   1.663   7.204   1.461 -1.6833  1.5549  1.8752
    6MOL   H454 4264   1.618   7.104   1.594 -0.5015 -0.7699 -1.2653
    6MOL   H455 4265   1.611   7.351   1.674 -0.6155 -1.5763 -0.5009
    6MOL   H456 4266   1.783   7.355   1.613 -0.7673 -1.3006 -2.5061
    6MOL   H457 4267   1.843   7.265   1.818 -1.3920  1.8015  2.0290
    6MOL   C458 4268   1.676   7.166   1.862  0.1309 -0.1862 -0.3556
    6MOL   O459 4269   1.561   7.146   1.838 -0.2800  0.1862 -0.5364
    6MOL   C460 4270   1.728   7.139   2.009  0.3275  0.2701  0.1095
    6MOL   C461 4271   1.615   7.141   2.114 -0.2238 -0.2321 -0.2910
    6MOL   C462 4272   1.655   7.140   2.263 -0.3144 -0.7307  0.8307
    6MOL   C463 4273   1.707   7.005   2.315  0.0622 -0.7405  0.5886
    6MOL   C464 4274   1.675   6.973   2.459 -0.4160 -0.0314  0.3424
    6MOL   O465 4275   1.610   7.053   2.530  0.5515 -0.3116 -0.2697
    6MOL   N466 4276   1.718   6.849   2.501 -0.1076  0.1213  0.3695
    6MOL   C467 4277   1.667   6.787   2.625 -0.8875  0.2861  0.0413
    6MOL   C468 4278   1.770   6.802   2.737  0.0091 -0.6303  0.4249
    6MOL   C469 4279   1.755   6.707   2.856  0.3135 -0.8608  0.3053
    6MOL   C470 4280   1.736   6.557   2.810 -0.5893 -0.4295 -0.3378
    6MOL   C471 4281   1.770   6.455   2.921 -0.3109  0.0267 -0.4629
    6MOL   C472 4282   1.770   6.305   2.871 -0.7933 -0.1173 -0.6105
    6MOL   N473 4283   1.765   6.195   2.973 -0.3108 -0.0754  0.2520
    6MOL   H474 4284   1.787   7.048   2.018  1.6712  1.1815  0.6440
    6MOL   H475 4285   1.805   7.213   2.031  0.5520  0.6484 -1.8581
    6MOL   H476 4286   1.558   7.233   2.101 -1.7507 -1.0058  0.7425
    6MOL   H477 4287   1.552   7.058   2.080 -1.1027  1.2125 -2.3580
    6MOL   H478 4288   1.570   7.171   2.324 -0.5523 -0.6445  0.4560
    6MOL   H479 4289   1.730   7.216   2.287  0.5600 -1.8083  1.5394
    6MOL   H480 4290   1.813   7.004   2.289  0.4793  0.5001  2.1830
    6MOL   H481 4291   1.666   6.919   2.261 -0.2127 -0.0240 -0.3552
    6MOL   H482 4292   1.776   6.789   2.445 -1.6407 -2.1449  1.1505
    6MOL   H483 4293   1.570   6.816   2.664 -0.7945  0.1346  0.3860
    6MOL   H484 4294   1.647   6.685   2.592 -0.6526  0.8221 -1.8166
    6MOL   H485 4295   1.868   6.785   2.691 -1.0999 -1.0725 -1.8343
    6MOL   H486 4296   1.780   6.906   2.769 -0.7531  0.7988 -3.7528
    6MOL   H487 4297   1.664   6.733   2.909  0.8293 -0.3998  0.9786
    6MOL   H488 4298   1.846   6.724   2.915  0.2373 -0.0639  0.1988
    6MOL   H489 4299   1.634   6.549   2.771 -0.3072  2.5219 -1.9260
    6MOL   H490 4300   1.810   6.536   2.732  0.8665 -0.3796  1.0168
    6MOL   H491 4301   1.869   6.472   2.962 -1.0460  1.2571  0.8500
    6MOL   H492 4302   1.699   6.473   3.002  0.8496  0.5157  0.4528
    6MOL   H493 4303   1.842   6.295   2.790  0.9773 -1.4363  1.0847
    6MOL   H494 4304   1.672   6.302   2.822 -1.1980 -3.7001  0.2651
    6MOL   H495 4305   1.683   6.138   2.958 -0.0192 -0.2615 -0.6355
    6MOL   C496 4306   1.871   6.147   3.037  0.3010  0.1213  0.0161
    6MOL   O497 4307   1.979   6.214   3.045 -0.3591 -0.2014  0.4562
    6MOL   C498 4308   1.862   6.003   3.087 -0.1169 -0.4884 -0.1643
    6MOL   C499 4309   1.927   5.983   3.225  0.8775  0.0903 -0.3221
    6MOL   C500 4310   1.831   6.037   3.341 -1.1417  0.2613 -0.0946
    6MOL   C501 4311   1.838   6.190   3.373 -0.8166 -0.2116  0.0526
    6MOL   C502 4312   1.779   6.224   3.512  0.7186 -0.0043  0.6293
    6MOL   O503 4313   1.664   6.181   3.532  0.5674  0.3805 -0.2370
    6MOL   N504 4314   1.851   6.301   3.590  0.0749  0.1858 -0.4456
    6MOL   C505 4315   1.809   6.351   3.722 -0.5875 -0.1379  0.7012
    6MOL   C506 4316   1.915   6.433   3.795  0.2342  0.3086  0.0684
    6MOL   C507 4317   1.872   6.480   3.934 -0.1627 -0.1393 -0.5142
    6MOL   C508 4318   1.982   6.553   4.005  0.6740  0.3027  0.2949
    6MOL   C509 4319   1.918   6.622   4.121 -0.5209 -0.3706  0.0502
    6MOL   C510 4320   2.010   6.670   4.232  0.1972  0.5372  0.1259
    6MOL   N511 4321   2.039   6.565   4.329  0.0157 -0.2628  0.3014
    6MOL   H512 4322   1.760   5.966   3.084  0.1125 -1.6201  3.8307
    6MOL   H513 4323   1.909   5.948   3.005 -0.9582 -0.3168 -0.7707
    6MOL   H514 4324   1.935   5.876   3.245 -0.8434 -0.0458 -0.3074
    6MOL   H515 4325   2.025   6.028   3.241  1.2215 -0.9073  0.4009
    6MOL   H516 4326   1.845   5.991   3.439 -1.6098  0.4537  0.0623
    6MOL   H517 4327   1.727   6.016   3.318 -0.9683 -0.2815 -0.3802
    6MOL   H518 4328   1.778   6.248   3.304 -0.3213  0.2028 -0.0275
    6MOL   H519 4329   1.940   6.222   3.351 -1.5532  0.6388 -2.3241
    6MOL   H520 4330   1.942   6.327   3.555  1.2014 -0.3893  1.9157
    6MOL   H521 4331   1.721   6.414   3.711  0.3219  0.9076 -0.7049
    6MOL   H522 4332   1.785   6.267   3.788 -1.0557 -0.4706  0.1129
    6MOL   H523 4333   2.004   6.371   3.795  1.0260  1.4108  0.7114
    6MOL   H524 4334   1.948   6.523   3.743  0.7921 -0.3359 -0.6831
    6MOL   H525 4335   1.832   6.396   3.991  1.5218 -1.7875 -1.6849
    6MOL   H526 4336   1.787   6.548   3.930 -1.2170 -1.3586  0.8741
    6MOL   H527 4337   2.056   6.486   4.049  0.9720 -0.3918 -1.2289
    6MOL   H528 4338   2.041   6.617   3.941 -0.7964  1.0208 -0.3589
    6MOL   H529 4339   1.870   6.711   4.081  0.3340 -0.9052 -2.1856
    6MOL   H530 4340   1.835   6.569   4.168 -0.7927 -0.0712 -0.0879
    6MOL   H531 4341   1.956   6.753   4.277  0.6067  1.4179 -0.9948
    6MOL   H532 4342   2.095   6.712   4.179  0.7089 -0.0729  0.4548
    6MOL   H533 4343   1.954   6.512   4.341 -0.6779  0.5812 -0.7622
    6MOL   C534 4344   2.142   6.554   4.404 -0.0907 -0.2354 -0.2148
    6MOL   O535 4345   2.237   6.634   4.391 -0.2877  0.5208 -0.0154
    6MOL   C536 4346   2.153   6.444   4.508  0.2765 -0.3917  0.1950
    6MOL   C537 4347   2.218   6.332   4.432 -0.3290  0.1079  0.2568
    6MOL   C538 4348   2.220   6.205   4.513  0.7899  0.2345  0.4956
    6MOL   C539 4349   2.290   6.085   4.444  0.5425 -0.4747  0.0434
    6MOL   C540 4350   2.437   6.116   4.404 -0.0006 -0.7221  0.0392
    6MOL   O541 4351   2.521   6.123   4.487  0.2207 -0.5102  0.6082
    6MOL   N542 4352   2.458   6.134   4.277  0.2927 -0.0547  0.0902
    6MOL   C543 4353   2.582   6.155   4.204 -0.1994  0.6044 -0.6188
    6MOL   C544 4354   2.614   6.309   4.199  0.4308  0.1831 -0.1171
    6MOL   C545 4355   2.499   6.397   4.134  0.1969  0.4306  0.1795
    6MOL   C546 4356   2.514   6.546   4.175  0.1093  0.2301  0.7680
    6MOL   C547 4357   2.414   6.634   4.095  0.3890 -0.6956 -0.4193
    6MOL   C548 4358   2.435   6.784   4.108  0.5190  0.2781 -0.1871
    6MOL   N549 4359   2.411   6.815   4.249 -0.0019  0.1504 -0.2280
    6MOL   H550 4360   2.209   6.472   4.597 -1.9726  0.4210  1.3904
    6MOL   H551 4361   2.052   6.410   4.533 -0.6260  1.2761 -1.0419
    6MOL   H552 4362   2.163   6.298   4.344 -1.6912 -0.5044  1.3309
    6MOL   H553 4363   2.319   6.369   4.412 -1.0156  1.6284 -0.4702
    6MOL   H554 4364   2.117   6.173   4.527  0.8656 -0.0453  0.4216
    6MOL   H555 4365   2.273   6.218   4.608  0.6915 -0.9659  0.7325
    6MOL   H556 4366   2.237   6.050   4.355 -0.0636 -1.1454  0.6622
    6MOL   H557 4367   2.290   6.002   4.515  1.2641  0.5604  1.2624
    6MOL   H558 4368   2.373   6.138   4.222  0.0775 -0.3651  0.3977
    6MOL   H559 4369   2.672   6.108   4.244  0.2783 -0.0887 -2.4525
    6MOL   H560 4370   2.563   6.105   4.109 -2.7120  0.9726 -0.3238
    6MOL   H561 4371   2.626   6.344   4.301  0.1455 -2.0460  0.7230
    6MOL   H562 4372   2.705   6.327   4.143  1.1327  0.4099  1.0749
    6MOL   H563 4373   2.400   6.358   4.158  0.6885 -0.8037  0.2120
    6MOL   H564 4374   2.506   6.389   4.025 -2.1682 -1.4416  0.1190
    6MOL   H565 4375   2.473   6.540   4.276 -1.4747 -0.6352  0.0923
    6MOL   H566 4376   2.612   6.590   4.161  0.1642 -0.8366 -2.7389
    6MOL   H567 4377   2.404   6.597   3.994  0.1545 -0.8717 -0.3329
    6MOL   H568 4378   2.319   6.616   4.146  0.4830  0.6296  0.2380
    6MOL   H569 4379   2.354   6.834   4.055  1.2314 -0.5183 -2.0749
    6MOL   H570 4380   2.526   6.822   4.061 -0.3285  3.2616  0.4936
    6MOL   H571 4381   2.351   6.759   4.308 -0.1669  0.6697  0.1028
    6MOL   C572 4382   2.462   6.920   4.309 -0.4759 -0.6378  0.9987
    6MOL   O573 4383   2.539   7.005   4.253 -0.2215 -0.3308  0.5695
    6MOL   C574 4384   2.444   6.943   4.452  0.2025 -0.1406  0.3139
    6MOL   C575 4385   2.417   7.088   4.482  0.5786 -0.2524  0.2213
    6MOL   C576 4386   2.282   7.156   4.467 -0.3789 -0.2078 -0.3435
    6MOL   C577 4387   2.286   7.310   4.503  0.1845 -0.1662 -0.2280
    6MOL   C578 4388   2.349   7.336   4.642 -0.3893 -0.1910 -0.3274
    6MOL   O579 4389   2.461   7.386   4.654 -0.5016  0.2716  0.2571
    6MOL   N580 4390   2.272   7.324   4.744  0.1054 -1.1290  0.5902
    6MOL   C581 4391   2.306   7.333   4.884  0.1331 -0.0657 -0.5896
    6MOL   C582 4392   2.241   7.450   4.953  0.0139  0.4332 -0.1793
    6MOL   C583 4393   2.278   7.459   5.105  0.4854  0.5967 -0.1794
    6MOL   C584 4394   2.240   7.599   5.154 -0.4939 -0.5661  0.2867
    6MOL   C585 4395   2.255   7.625   5.310 -0.0676  0.0309  0.1371
    6MOL   C586 4396   2.160   7.529   5.385  0.3570  0.5171 -0.3372
    6MOL   N587 4397   2.166   7.550   5.528  0.0589  0.0466  0.2204
    6MOL   H588 4398   2.364   6.878   4.488 -0.3284  0.2756 -0.1040
    6MOL   H589 4399   2.542   6.922   4.495 -0.1572  0.1237  1.2910
    6MOL   H590 4400   2.454   7.099   4.584  0.1624  2.2904  0.1446
    6MOL   H591 4401   2.486   7.151   4.425 -0.8428  1.1866  0.0290
    6MOL   H592 4402   2.207   7.113   4.534 -0.1486  0.0717  0.0943
    6MOL   H593 4403   2.250   7.127   4.366 -0.5764 -0.1805 -0.2900
    6MOL   H594 4404   2.187   7.355   4.503  1.2453  2.2597 -1.3702
    6MOL   H595 4405   2.343   7.367   4.429  0.3335  1.3619  1.0553
    6MOL   H596 4406   2.173   7.314   4.726  0.3513 -1.9890 -0.3424
    6MOL   H597 4407   2.280   7.240   4.933  0.3611 -0.3196 -0.9521
    6MOL   H598 4408   2.415   7.345   4.887  0.3727 -2.0268 -1.0756
    6MOL   H599 4409   2.278   7.535   4.895 -0.6322  0.2581 -0.8586
    6MOL   H600 4410   2.136   7.430   4.932 -0.3466 -0.4507  2.2964
    6MOL   H601 4411   2.383   7.430   5.116  0.0854 -0.9907 -0.3531
    6MOL   H602 4412   2.223   7.385   5.163  1.1759  1.0633  1.1037
    6MOL   H603 4413   2.295   7.665   5.088 -1.2963 -0.6118 -0.4338
    6MOL   H604 4414   2.133   7.612   5.139 -0.3801  1.6105  1.1951
    6MOL   H605 4415   2.355   7.608   5.349 -0.5001 -0.9891  0.8420
    6MOL   H606 4416   2.209   0.012   5.333 -0.3507  0.0202 -0.3667
    6MOL   H607 4417   2.198   7.426   5.384 -2.0543 -0.5031  2.6276
    6MOL   H608 4418   2.059   7.526   5.346 -0.7790  1.1034  2.4082
    6MOL   H609 4419   2.259   7.533   5.563 -0.1967 -0.5560  0.6281
    6MOL   C610 4420   2.075   7.602   5.606 -0.2566 -0.2546  0.9168
    6MOL   O611 4421   2.098   7.599   5.723  0.1270  0.0899 -0.0409
    6MOL   C612 4422   1.935   7.641   5.548 -0.0643 -0.3784 -0.2535
    6MOL   C613 4423   1.851   0.025   5.630  0.0679 -0.0066  0.8740
    6MOL   C614 4424   1.709   0.033   5.572  0.2105  0.0523 -0.0830
    6MOL   C615 4425   1.623   0.111   5.662  0.2891  0.1237  0.3444
    6MOL   C616 4426   1.474   0.110   5.634 -0.3424  0.5186 -0.3272
    6MOL   O617 4427   1.419   0.010   5.592  0.1822 -0.1394  0.4804
    6MOL   N618 4428   1.397   0.219   5.651 -0.4219 -0.4918  0.1949
    6MOL   C619 4429   1.254   0.242   5.645 -0.1336 -1.0350 -0.4109
    6MOL   C620 4430   1.221   0.312   5.510 -0.0391  0.5745 -0.2346
    6MOL   C621 4431   1.302   0.448   5.481 -0.0735  0.0151 -0.2559
    6MOL   C622 4432   1.256   0.561   5.578  0.2580  0.0799 -0.3370
    6MOL   C623 4433   1.333   0.688   5.549 -0.0464  0.1712 -0.2013
    6MOL   C624 4434   1.281   0.807   5.624  0.0108 -0.1533  0.0782
    6MOL   N625 4435   1.353   0.839   5.752  0.2730 -0.8466  0.2731
    6MOL   H626 4436   1.948   7.667   5.443 -0.7599  1.7749  0.1627
    6MOL   H627 4437   1.882   7.545   5.551 -1.4960  0.3830 -0.6224
    6MOL   H628 4438   1.852   7.706   5.736  0.5931  0.6553  1.0404
    6MOL   H629 4439   1.898   0.123   5.622  0.8657 -0.4460  0.1968
    6MOL   H630 4440   1.666   7.641   5.575  0.1497  0.0968  0.8069
    6MOL   H631 4441   1.707   0.073   5.471  0.2595  0.9933  0.2731
    6MOL   H632 4442   1.657   0.215   5.665  0.0308  0.1971  0.6894
    6MOL   H633 4443   1.625   0.075   5.764 -0.8870  0.7594  0.5932
    6MOL   H634 4444   1.447   0.291   5.700 -2.6172  0.9381  0.3759
    6MOL   H635 4445   1.205   0.145   5.653  1.8570 -1.9150  1.8386
    6MOL   H636 4446   1.234   0.308   5.729  2.0330 -0.4322 -0.3425
    6MOL   H637 4447   1.233   0.238   5.431  1.3116 -0.4116  0.8645
    6MOL   H638 4448   1.115   0.330   5.524 -0.2523 -1.4797  1.0229
    6MOL   H639 4449   1.300   0.480   5.377  1.3363  0.1653 -0.2455
    6MOL   H640 4450   1.406   0.427   5.502 -0.3696  0.1448  1.4290
    6MOL   H641 4451   1.149   0.565   5.560  0.2726  0.6453 -0.3181
    6MOL   H642 4452   1.269   0.530   5.682 -1.2926  0.8403  0.0994
    6MOL   H643 4453   1.438   0.676   5.576  0.2158 -0.4007 -1.4333
    6MOL   H644 4454   1.329   0.708   5.442 -0.3273  2.4491  0.2135
    6MOL   H645 4455   1.174   0.800   5.641 -0.1090 -0.6117 -0.8178
    6MOL   H646 4456   1.283   0.900   5.568 -2.3968 -0.4284 -0.4905
    6MOL   H647 4457   1.436   0.896   5.746 -0.5617  0.8275  3.4432
    6MOL   C648 4458   1.327   0.792   5.875  0.0356  0.1454  0.2771
    6MOL   O649 4459   1.238   0.716   5.901  0.2170  0.4454 -0.3352
    6MOL   C650 4460   1.428   0.814   5.991 -0.0708 -0.2229 -0.5540
    6MOL   C651 4461   1.348   0.908   6.089 -0.1907  0.0252 -0.4570
    6MOL   C652 4462   1.435   0.996   6.184 -0.0233 -0.4516 -0.1200
    6MOL   C653 4463   1.507   1.117   6.102 -0.5674  0.9696  0.7001
    6MOL   C654 4464   1.410   1.214   6.039  0.7758  0.2516  0.4852
    6MOL   O655 4465   1.371   1.313   6.103  0.3939  0.1100  0.1058
    6MOL   N656 4466   1.381   1.188   5.913 -0.1026  0.1460  0.4998
    6MOL   C657 4467   1.281   1.269   5.840  0.4974 -0.0619  0.1401
    6MOL   C658 4468   1.279   1.243   5.690  0.2674  0.2411  0.7869
    6MOL   C659 4469   1.160   1.318   5.635 -0.3124 -0.1434  0.5494
    6MOL   C660 4470   1.137   1.288   5.490 -1.0299  0.0844 -0.5186
    6MOL   C661 4471   1.060   1.156   5.476  0.3111 -0.1042  0.3217
    6MOL   C662 4472   1.030   1.123   5.328  0.4544 -0.8522 -0.2898
    6MOL   N663 4473   0.947   1.221   5.261 -0.3004  0.7951 -0.1535
    6MOL   H664 4474   1.460   0.724   6.042 -0.7218 -0.4472 -0.5356
    6MOL   H665 4475   1.507   0.881   5.956  0.4619 -0.5528  0.0210
    6MOL   H666 4476   1.280   0.976   6.036  0.0418 -0.8267 -1.8721
    6MOL   H667 4477   1.291   0.851   6.162  0.3049 -2.0383 -1.6619
    6MOL   H668 4478   1.508   0.941   6.242 -0.2357  0.1732  0.7663
    6MOL   H669 4479   1.380   1.032   6.271  1.1881 -0.8014  0.7944
    6MOL   H670 4480   1.569   1.080   6.019  0.9443  1.2697  1.6700
    6MOL   H671 4481   1.567   1.186   6.161 -1.3909  2.1146  0.2247
    6MOL   H672 4482   1.420   1.121   5.849  0.3908  0.7885  0.1203
    6MOL   H673 4483   1.187   1.254   5.894  1.2931 -1.7943  1.0896
    6MOL   H674 4484   1.309   1.375   5.843  0.6633 -0.1266  1.8089
    6MOL   H675 4485   1.371   1.265   5.636  0.5210  1.0300  1.5249
    6MOL   H676 4486   1.251   1.139   5.674  1.1329 -0.0146  0.9287
    6MOL   H677 4487   1.173   1.425   5.653 -0.5966  0.0814 -0.4984
    6MOL   H678 4488   1.079   1.283   5.699 -0.1380  0.4726  1.1092
    6MOL   H679 4489   1.079   1.374   5.456  0.0586  1.7870  1.8113
    6MOL   H680 4490   1.231   1.298   5.435 -0.4495 -2.5321 -0.0424
    6MOL   H681 4491   1.125   1.072   5.501  1.8486  0.7402 -0.6791
    6MOL   H682 4492   0.974   1.150   5.542  1.4755  2.2699  2.1181
    6MOL   H683 4493   0.984   1.025   5.315 -1.3553 -0.1084  0.4319
    6MOL   H684 4494   1.124   1.115   5.274  1.1504  2.1833  0.3886
    6MOL   H685 4495   0.999   1.299   5.224 -0.5044  1.3633  0.7325
    6MOL   C686 4496   0.818   1.227   5.264  0.6778 -0.0756  0.0037
    6MOL   O687 4497   0.752   1.128   5.289 -0.1610 -0.1898  0.1311
    6MOL   C688 4498   0.756   1.356   5.215 -0.2295  0.0821 -0.2039
    6MOL   C689 4499   0.611   1.331   5.150  0.5349 -0.6046 -0.3740
    6MOL   C690 4500   0.624   1.273   5.007  0.1845  0.4866 -0.0217
    6MOL   C691 4501   0.532   1.314   4.889  0.5973  0.2079  0.1994
    6MOL   C692 4502   0.388   1.260   4.895 -0.2217  0.2252 -0.7923
    6MOL   O693 4503   0.357   1.162   4.966  0.3950 -0.0369 -0.3663
    6MOL   N694 4504   0.307   1.317   4.809  0.1361 -0.1544 -0.3162
    6MOL   C695 4505   0.164   1.301   4.814 -0.4969  0.0376 -0.0538
    6MOL   C696 4506   0.100   1.441   4.809  0.6402 -0.3098 -0.2926
    6MOL   C697 4507   7.654   1.427   4.836 -0.0968 -0.3024 -0.3129
    6MOL   C698 4508   7.592   1.565   4.804 -0.6723  0.6442  0.4727
    6MOL   C699 4509   7.459   1.596   4.878  0.1668  0.5662 -0.2413
    6MOL   C700 4510   7.400   1.735   4.845 -0.7021  0.3241  0.0801
    6MOL   N701 4511   7.266   1.760   4.893 -0.1647 -0.1892  0.1506
    6MOL   H702 4512   0.751   1.422   5.301  0.9431 -0.4085  0.2671
    6MOL   H703 4513   0.828   1.408   5.152  0.5678 -0.7809 -0.0266
    6MOL   H704 4514   0.552   1.269   5.217 -1.8041 -1.1482 -2.8478
    6MOL   H705 4515   0.566   1.430   5.143  3.3812  0.8510  0.9292
    6MOL   H706 4516   0.622   1.164   5.010  2.3955  0.3678 -1.5520
    6MOL   H707 4517   0.726   1.282   4.969 -0.6234 -2.3713 -3.1378
    6MOL   H708 4518   0.571   1.297   4.789 -1.5607 -0.5214 -0.5421
    6MOL   H709 4519   0.527   1.422   4.896  0.7193  0.3555 -1.8480
    6MOL   H710 4520   0.337   1.381   4.737  0.8041 -1.0765 -0.8565
    6MOL   H711 4521   0.115   1.243   4.735  1.1803  0.5763 -1.5044
    6MOL   H712 4522   0.130   1.247   4.903 -2.8722  0.8698 -0.4087
    6MOL   H713 4523   0.157   1.507   4.875  0.8411  0.4794 -1.2455
    6MOL   H714 4524   0.087   1.486   4.711  0.1242  1.3777  0.5119
    6MOL   H715 4525   7.643   1.398   4.941 -1.3542  0.3544 -0.2590
    6MOL   H716 4526   7.604   1.352   4.775  1.6089 -0.3250 -1.7383
    6MOL   H717 4527   7.667   1.641   4.827 -0.7058  0.8628 -0.1429
    6MOL   H718 4528   7.579   1.573   4.696  2.0461  0.4561  0.0985
    6MOL   H719 4529   7.394   1.512   4.855 -0.1401  0.4289  1.0733
    6MOL   H720 4530   7.481   1.583   4.984  2.0834 -1.9697 -0.9054
    6MOL   H721 4531   7.401   1.750   4.737 -0.0852 -0.6991 -0.0651
    6MOL   H722 4532   7.459   1.813   4.893  0.1909 -0.3768  0.1217
    6MOL   H723 4533   7.232   1.674   4.932  1.6607 -1.1420 -0.2825
    6MOL   C724 4534   7.186   1.856   4.864 -0.3288  0.3345  0.8510
    6MOL   O725 4535   7.206   1.942   4.782  0.4543  0.0357 -0.0329
    6MOL   C726 4536   7.043   1.833   4.923 -0.5972  0.4066 -0.5126
    6MOL   C727 4537   6.919   1.852   4.834  0.7311 -0.1584  0.7270
    6MOL   C728 4538   6.903   1.768   4.712 -0.0492  0.5555  0.0210
    6MOL   C729 4539   6.756   1.774   4.656  0.0271  0.4168  0.1226
    6MOL   C730 4540   6.754   1.722   4.512 -0.3057  0.0830 -0.7163
    6MOL   O731 4541   6.751   1.605   4.487  0.0021 -0.4724  0.1560
    6MOL   N732 4542   6.762   1.819   4.419 -0.0379  0.5644  0.0630
    6MOL   C733 4543   6.729   1.791   4.279 -0.5773 -0.1801 -0.6701
    6MOL   C734 4544   6.583   1.755   4.256 -0.0756  0.4711  0.5967
    6MOL   C735 4545   6.553   1.757   4.111 -0.2111  0.6318  0.1363
    6MOL   C736 4546   6.411   1.710   4.072  0.4571  0.0319 -0.3086
    6MOL   C737 4547   6.390   1.680   3.918  0.2152  0.0061  0.7118
    6MOL   C738 4548   6.243   1.641   3.880  0.8264  0.0682 -0.0277
    6MOL   N739 4549   6.237   1.596   3.746  0.0669  0.2032  0.0536
    6MOL   H740 4550   7.033   1.735   4.971  1.4558  1.3051  1.8865
    6MOL   H741 4551   7.047   1.909   5.001 -2.6812  0.7209 -0.6753
    6MOL   H742 4552   6.833   1.825   4.894  0.4022 -0.4228  0.1414
    6MOL   H743 4553   6.897   1.957   4.815 -0.3064 -0.5202 -0.1148
    6MOL   H744 4554   6.941   1.668   4.734 -0.4959  0.2034 -0.7705
    6MOL   H745 4555   6.970   1.799   4.632  0.1708 -1.5304 -0.6543
    6MOL   H746 4556   6.705   1.870   4.651 -0.7784  0.0017  0.3503
    6MOL   H747 4557   6.690   1.712   4.716 -0.1110 -0.4278 -0.8737
    6MOL   H748 4558   6.770   1.914   4.453  0.7293  0.8509 -0.8805
    6MOL   H749 4559   6.752   1.883   4.225 -0.2994 -0.5903 -1.2525
    6MOL   H750 4560   6.791   1.711   4.240  1.1408  0.5225  0.5666
    6MOL   H751 4561   6.552   1.658   4.296 -1.8149 -0.5093 -2.8936
    6MOL   H752 4562   6.519   1.831   4.300 -1.4463 -0.8729  0.9729
    6MOL   H753 4563   6.610   1.676   4.066 -1.4378  0.0384 -0.3937
    6MOL   H754 4564   6.575   1.850   4.060 -0.1773  0.1856 -0.6618
    6MOL   H755 4565   6.386   1.620   4.129  0.1647 -0.8262 -1.7593
    6MOL   H756 4566   6.335   1.781   4.103 -0.2772 -0.2096 -1.4871
    6MOL   H757 4567   6.434   1.763   3.862 -2.7525  2.3641  1.7345
    6MOL   H758 4568   6.450   1.595   3.885 -0.5276  0.3651 -1.6567
    6MOL   H759 4569   6.178   1.729   3.880  1.9956  0.9400 -1.0298
    6MOL   H760 4570   6.181   1.575   3.940  0.4089  0.7955  0.3536
    6MOL   H761 4571   6.143   1.568   3.722 -0.5670  3.0575 -1.0057
    6MOL   H762 4572   6.258   1.673   3.685 -0.7053  0.3303 -0.0519
    7MOL     C1 4573   1.849   5.224   0.514  0.1624 -0.1287  0.5326
    7MOL     O2 4574   1.910   5.247   0.408  0.0931  0.7580 -0.1053
    7MOL     C3 4575   1.756   5.102   0.525  0.6552 -0.3468  0.2760
    7MOL     C4 4576   1.604   5.141   0.515 -0.0076 -0.1126 -0.0970
    7MOL     C5 4577   1.516   5.017   0.543 -0.4603  0.0035  0.3978
    7MOL     C6 4578   1.366   5.030   0.534  0.5292  0.4556  0.2834
    7MOL     C7 4579   1.311   5.092   0.663  0.2115  0.7598  0.0170
    7MOL     O8 4580   1.283   5.020   0.762  0.1872  0.4928  0.1807
    7MOL     N9 4581   1.296   5.221   0.654 -0.4155  0.2709 -0.5711
    7MOL    C10 4582   1.257   5.306   0.767 -0.1611  0.0771 -0.0227
    7MOL    C11 4583   1.202   5.440   0.723  0.2583 -0.2258  0.1988
    7MOL    C12 4584   1.073   5.442   0.627  0.1846  0.0944  0.2158
    7MOL    C13 4585   0.934   5.411   0.692 -0.1702 -0.0390 -0.0500
    7MOL    C14 4586   0.886   5.499   0.806 -0.3300 -0.1769  0.5740
    7MOL    C15 4587   0.939   5.450   0.948 -0.1777  0.3571  0.2796
    7MOL    N16 4588   0.917   5.556   1.045 -0.3738 -0.1853 -0.7797
    7MOL    H17 4589   1.785   5.025   0.454  0.7704 -3.1346  3.2349
    7MOL    H18 4590   1.774   5.047   0.617  1.1567 -1.0390 -0.2369
    7MOL    H19 4591   1.582   5.217   0.589  0.5154  0.2721 -0.3352
    7MOL    H20 4592   1.575   5.167   0.413 -0.9539  0.1575  0.2408
    7MOL    H21 4593   1.554   4.974   0.636  2.3444 -0.3303 -0.8400
    7MOL    H22 4594   1.548   4.933   0.480 -0.2206  0.3376  0.0761
    7MOL    H23 4595   1.325   4.932   0.511 -0.6887  1.2901 -1.1684
    7MOL    H24 4596   1.336   5.091   0.449 -0.6567  0.9464  1.0264
    7MOL    H25 4597   1.324   5.269   0.570  0.3714 -0.7182 -0.8963
    7MOL    H26 4598   1.182   5.260   0.831  1.5497 -0.8665  1.3785
    7MOL    H27 4599   1.342   5.325   0.833 -0.2244  1.6532 -0.3775
    7MOL    H28 4600   1.195   5.507   0.809  0.4053  0.7422 -0.5425
    7MOL    H29 4601   1.284   5.494   0.675 -0.2312 -1.0998 -1.6325
    7MOL    H30 4602   1.090   5.385   0.535 -0.9602 -1.3708  0.8889
    7MOL    H31 4603   1.057   5.544   0.591  0.6307 -0.2056 -0.8761
    7MOL    H32 4604   0.860   5.426   0.613 -0.1733  1.9408  0.3082
    7MOL    H33 4605   0.942   5.307   0.725  0.8086  0.1236  0.2424
    7MOL    H34 4606   0.935   5.595   0.790  0.0235 -0.6582 -1.3114
    7MOL    H35 4607   0.777   5.507   0.806 -0.2675  0.8918 -0.8338
    7MOL    H36 4608   1.045   5.427   0.947 -0.5770 -1.5888  1.2079
    7MOL    H37 4609   0.893   5.362   0.993  0.4980  0.4238  1.1045
    7MOL    H38 4610   0.983   5.631   1.059  2.2028 -2.0700 -2.6062
    7MOL    H39 4611   1.869   5.270   0.610 -0.4489 -0.2199  0.7092
    7MOL    C40 4612   0.803   5.571   1.114 -0.4497 -0.2848 -0.7402
    7MOL    O41 4613   0.703   5.502   1.105 -0.0305 -0.0219  0.0929
    7MOL    C42 4614   0.806   5.688   1.215 -0.4918 -0.3372 -0.2683
    7MOL    C43 4615   0.672   5.752   1.238 -1.0580  0.4232 -0.1128
    7MOL    C44 4616   0.695   5.889   1.290 -0.6895  0.3924 -0.2644
    7MOL    C45 4617   0.686   5.995   1.184 -0.2748 -0.0586 -0.4014
    7MOL    C46 4618   0.702   6.135   1.246 -0.3088 -0.1520  0.2842
    7MOL    O47 4619   0.625   6.172   1.337 -0.7680  0.1177  0.1073
    7MOL    N48 4620   0.803   6.201   1.203 -0.0379 -0.0881  0.4901
    7MOL    C49 4621   0.867   6.320   1.264  0.4288  1.0540 -0.4450
    7MOL    C50 4622   0.990   6.278   1.344 -0.1698  0.5908  0.0628
    7MOL    C51 4623   1.109   6.221   1.267  0.2686 -0.5403 -0.2661
    7MOL    C52 4624   1.091   6.087   1.187  0.2572  0.2928  0.1945
    7MOL    C53 4625   1.229   6.037   1.126  0.6114 -0.0334 -0.4962
    7MOL    C54 4626   1.208   5.925   1.020  0.2314 -0.1024 -0.1422
    7MOL    N55 4627   1.306   5.810   1.026 -0.0112 -0.4024 -0.4427
    7MOL    H56 4628   0.852   5.657   1.309  2.8406  1.5705 -1.1889
    7MOL    H57 4629   0.877   5.757   1.169 -1.5509 -0.4971 -2.1773
    7MOL    H58 4630   0.626   5.775   1.142 -2.0257  1.3592  0.5684
    7MOL    H59 4631   0.598   5.698   1.296 -0.3826 -0.3400  0.0467
    7MOL    H60 4632   0.768   5.893   1.371 -0.7804 -0.4459 -0.1422
    7MOL    H61 4633   0.613   5.910   1.360 -0.1053  2.1760 -0.0847
    7MOL    H62 4634   0.593   5.990   1.128 -0.3020 -0.6547 -0.3073
    7MOL    H63 4635   0.765   5.985   1.110  2.7741  1.3428  2.5031
    7MOL    H64 4636   0.850   6.163   1.122 -0.7750 -0.8569  0.4135
    7MOL    H65 4637   0.887   6.389   1.182  0.1350 -0.6994 -2.0327
    7MOL    H66 4638   0.791   6.372   1.322  1.1113  0.9662  0.5431
    7MOL    H67 4639   1.028   6.376   1.373  0.2211  0.7740 -1.0142
    7MOL    H68 4640   0.964   6.210   1.425 -1.3068 -0.1088 -0.8666
    7MOL    H69 4641   1.196   6.212   1.331  1.4340 -0.1938 -1.7822
    7MOL    H70 4642   1.134   6.292   1.188 -0.7663 -2.0862 -2.0279
    7MOL    H71 4643   1.042   6.010   1.246  3.3442 -1.4720  0.5550
    7MOL    H72 4644   1.022   6.108   1.105  1.4943  1.0283 -0.6642
    7MOL    H73 4645   1.258   6.127   1.072  0.6530 -0.0305 -0.4691
    7MOL    H74 4646   1.307   6.015   1.199  0.6049 -1.9715 -1.0527
    7MOL    H75 4647   1.209   5.965   0.919  0.1670  1.7953  0.5858
    7MOL    H76 4648   1.105   5.891   1.031  0.2083 -0.9310 -2.6787
    7MOL    H77 4649   1.366   5.797   0.945  0.8488  0.5142  0.0378
    7MOL    C78 4650   1.285   5.705   1.102 -0.2814 -0.0290  0.0743
    7MOL    O79 4651   1.196   5.698   1.187  0.1121 -0.3650  0.0656
    7MOL    C80 4652   1.374   5.580   1.075  0.5498 -0.3766 -0.2124
    7MOL    C81 4653   1.408   5.494   1.198  0.3795  0.5409 -0.6510
    7MOL    C82 4654   1.515   5.564   1.297 -0.2019  0.3439  0.3643
    7MOL    C83 4655   1.509   5.496   1.434  0.8516  0.2847 -0.4521
    7MOL    C84 4656   1.608   5.383   1.445 -0.1390  0.8559  0.5555
    7MOL    O85 4657   1.721   5.392   1.401 -0.0588  0.2425 -0.0903
    7MOL    N86 4658   1.569   5.275   1.502  0.5113  0.5718 -0.3548
    7MOL    C87 4659   1.655   5.160   1.536 -0.1894 -0.5380  0.3267
    7MOL    C88 4660   1.641   5.116   1.682 -0.4733  0.1084 -0.2057
    7MOL    C89 4661   1.726   5.202   1.772  0.2619 -0.2548 -0.5494
    7MOL    C90 4662   1.749   5.147   1.916 -0.5176  0.5466 -0.8405
    7MOL    C91 4663   1.831   5.232   2.022  0.7203  0.6791 -0.1320
    7MOL    C92 4664   1.884   5.172   2.150 -0.0601  0.5668 -0.1015
    7MOL    N93 4665   1.833   5.040   2.183  0.6976 -0.1065 -0.4166
    7MOL    H94 4666   1.314   5.513   1.013  3.3647 -1.1413 -2.1896
    7MOL    H95 4667   1.461   5.619   1.022  1.3233  1.6366  2.4183
    7MOL    H96 4668   1.317   5.470   1.253  0.0876 -0.2794 -1.4792
    7MOL    H97 4669   1.435   5.396   1.159 -2.9740 -1.3228  1.5531
    7MOL    H98 4670   1.500   5.672   1.297 -1.1216  0.2218  0.7410
    7MOL    H99 4671   1.612   5.560   1.247  0.9621  2.2621  2.3631
    7MOL   H100 4672   1.408   5.463   1.460  0.4242  2.7668  1.2696
    7MOL   H101 4673   1.535   5.557   1.521  1.5837 -0.2132 -0.3221
    7MOL   H102 4674   1.479   5.276   1.549  1.2796  0.7036  1.1490
    7MOL   H103 4675   1.630   5.074   1.474 -0.7433  0.3171 -0.6253
    7MOL   H104 4676   1.758   5.171   1.503  0.2991  1.0161  2.2533
    7MOL   H105 4677   1.542   5.097   1.722  0.2131 -2.5450  0.3034
    7MOL   H106 4678   1.692   5.021   1.672  1.3511  0.9764  0.4703
    7MOL   H107 4679   1.682   5.298   1.802 -0.7829 -0.8786 -0.0628
    7MOL   H108 4680   1.817   5.222   1.716  0.8416 -1.4997 -0.0612
    7MOL   H109 4681   1.662   5.107   1.969  1.7873 -1.9693  1.2090
    7MOL   H110 4682   1.819   5.064   1.904  0.6015  0.7361  3.5638
    7MOL   H111 4683   1.913   5.284   1.972  1.8500 -2.5769 -1.8460
    7MOL   H112 4684   1.764   5.315   2.043  2.1929  1.6698  0.7757
    7MOL   H113 4685   1.877   5.243   2.232  2.1134 -0.8358  1.3915
    7MOL   H114 4686   1.990   5.155   2.130  0.1306  0.9648  0.5458
    7MOL   H115 4687   1.805   4.977   2.109 -0.8550 -0.0668  0.1180
    7MOL   C116 4688   1.819   4.996   2.306  0.5878 -0.7403 -0.5764
    7MOL   O117 4689   1.861   5.060   2.402 -0.3177 -0.2591  0.1741
    7MOL   C118 4690   1.760   4.856   2.326  0.7887  0.2898  0.2748
    7MOL   C119 4691   1.753   4.795   2.468 -0.1463  0.3226 -0.3154
    7MOL   C120 4692   1.688   4.653   2.467 -0.1420 -0.1701  0.1545
    7MOL   C121 4693   1.654   4.593   2.601  0.8953  0.3222  0.1652
    7MOL   C122 4694   1.763   4.576   2.698 -0.3400 -0.5569 -0.0832
    7MOL   O123 4695   1.870   4.531   2.663 -0.2245 -0.0107  0.1720
    7MOL   N124 4696   1.731   4.631   2.819  0.5588  0.3461 -0.9559
    7MOL   C125 4697   1.826   4.628   2.930  1.5547  0.0938 -0.6349
    7MOL   C126 4698   1.887   4.769   2.960 -0.8389 -0.5282  0.2020
    7MOL   C127 4699   1.953   4.829   2.835  0.3889  0.8256  0.7784
    7MOL   C128 4700   2.102   4.798   2.827  0.4050 -0.4296  0.4516
    7MOL   C129 4701   2.166   4.800   2.687  0.5895 -0.0725  0.1177
    7MOL   C130 4702   2.178   4.934   2.611  0.2779  0.0773  0.1409
    7MOL   N131 4703   2.062   5.019   2.616 -0.4440  0.2380 -0.5466
    7MOL   H132 4704   1.659   4.854   2.286  0.9701 -1.6655 -0.1352
    7MOL   H133 4705   1.819   4.785   2.267 -0.0068 -0.4457  0.3484
    7MOL   H134 4706   1.850   4.792   2.518 -0.2923 -0.4236 -0.0818
    7MOL   H135 4707   1.693   4.867   2.523 -1.3004 -1.7040  1.1110
    7MOL   H136 4708   1.754   4.582   2.416  0.6275 -0.7915  1.9638
    7MOL   H137 4709   1.600   4.662   2.403 -0.1281  3.7187  0.5678
    7MOL   H138 4710   1.595   4.502   2.597  0.9583  0.1821  2.0200
    7MOL   H139 4711   1.582   4.660   2.650  1.6861  0.4735  1.1441
    7MOL   H140 4712   1.639   4.667   2.839  0.1931 -2.3474  2.6437
    7MOL   H141 4713   1.772   4.607   3.022  0.4847 -0.7498 -1.4346
    7MOL   H142 4714   1.904   4.558   2.900  1.2908 -0.1522 -0.7558
    7MOL   H143 4715   1.798   4.819   2.998 -0.1276  1.4015 -0.6012
    7MOL   H144 4716   1.954   4.775   3.046  1.1804 -0.8618 -1.3195
    7MOL   H145 4717   1.926   4.934   2.834 -0.4690  0.6130  0.5932
    7MOL   H146 4718   1.915   4.789   2.741  0.7690 -1.6541  1.6220
    7MOL   H147 4719   2.163   4.859   2.894  0.3070 -0.2532  0.3815
    7MOL   H148 4720   2.115   4.699   2.870  0.1633 -1.5242 -1.9085
    7MOL   H149 4721   2.271   4.772   2.690  0.5932  0.0862  2.5833
    7MOL   H150 4722   2.135   4.717   2.624 -0.1492 -1.8773  2.7368
    7MOL   H151 4723   2.198   4.917   2.506 -0.1807 -0.0699  0.0773
    7MOL   H152 4724   2.263   4.991   2.648  0.5119 -2.0909  3.1964
    7MOL   H153 4725   1.982   4.993   2.559 -0.5190 -0.1056 -0.2844
    7MOL   C154 4726   2.051   5.131   2.693 -0.5068 -0.3399 -0.0252
    7MOL   O155 4727   2.133   5.156   2.782  0.3232  0.0753  0.2474
    7MOL   C156 4728   1.926   5.215   2.674 -0.4111  0.0105 -0.4580
    7MOL   C157 4729   1.908   5.323   2.782 -0.5775 -0.8701  0.1640
    7MOL   C158 4730   1.999   5.447   2.765  0.0205 -0.1567  0.4598
    7MOL   C159 4731   1.963   5.562   2.857 -0.2655  0.8444  0.3481
    7MOL   C160 4732   1.992   5.534   3.000 -0.6102  0.1674 -0.1197
    7MOL   O161 4733   1.950   5.435   3.059  0.0000 -0.4203  0.2783
    7MOL   N162 4734   2.065   5.624   3.056 -0.3166  0.0834 -0.2960
    7MOL   C163 4735   2.116   5.632   3.191  0.2473  0.2464 -0.5314
    7MOL   C164 4736   2.266   5.619   3.201 -0.0808  0.6399 -1.1715
    7MOL   C165 4737   2.304   5.630   3.353 -0.0166  0.3393  0.1873
    7MOL   C166 4738   2.458   5.648   3.374 -0.0594 -0.0978 -0.2884
    7MOL   C167 4739   2.491   5.653   3.519 -0.4907 -0.1150  0.1446
    7MOL   C168 4740   2.619   5.585   3.557 -0.1619 -0.4539  0.2157
    7MOL   N169 4741   2.732   5.649   3.491  0.7774  0.1957  0.1176
    7MOL   H170 4742   1.923   5.253   2.572 -3.7714  0.6263 -0.1780
    7MOL   H171 4743   1.842   5.146   2.684  1.4548 -2.0839  1.7228
    7MOL   H172 4744   1.803   5.349   2.773 -0.3355 -0.5201 -1.7645
    7MOL   H173 4745   1.919   5.266   2.874  0.5507  0.5746  0.9437
    7MOL   H174 4746   1.989   5.491   2.666  2.8753 -0.9226 -0.2242
    7MOL   H175 4747   2.105   5.422   2.777  0.1292 -0.7285 -1.5398
    7MOL   H176 4748   1.855   5.573   2.848 -0.4213  1.1043  2.3806
    7MOL   H177 4749   2.013   5.650   2.818  1.6296 -0.2229  0.2950
    7MOL   H178 4750   2.083   5.703   2.995  0.6383 -0.7104 -1.0452
    7MOL   H179 4751   2.092   5.730   3.232  1.2157  0.0089  0.6403
    7MOL   H180 4752   2.072   5.560   3.260 -2.0642  1.6391 -0.5073
    7MOL   H181 4753   2.292   5.517   3.171 -0.9991  0.0948 -0.1580
    7MOL   H182 4754   2.329   5.681   3.138  0.2638 -1.2999 -2.7949
    7MOL   H183 4755   2.265   5.540   3.400 -0.1572 -0.0149 -0.6085
    7MOL   H184 4756   2.257   5.717   3.398  0.0986 -0.7844  2.5801
    7MOL   H185 4757   2.511   5.560   3.338  0.8390  1.1824 -2.1776
    7MOL   H186 4758   2.496   5.734   3.319  0.2345  0.3857  0.6698
    7MOL   H187 4759   2.485   5.756   3.557 -0.6220 -0.1201  0.1365
    7MOL   H188 4760   2.420   5.605   3.587  0.7504 -1.2254  0.6771
    7MOL   H189 4761   2.621   5.477   3.542  0.3038 -0.2452 -1.3301
    7MOL   H190 4762   2.631   5.597   3.664 -0.2023  1.5065  0.0146
    7MOL   H191 4763   2.741   5.615   3.397 -1.6246 -0.3834  0.0642
    7MOL   C192 4764   2.835   5.724   3.540  0.0184  0.5425  0.4660
    7MOL   O193 4765   2.846   5.759   3.655  0.5234 -0.4503 -0.7173
    7MOL   C194 4766   2.928   5.770   3.427 -0.6452  0.5066  0.0641
    7MOL   C195 4767   2.906   5.912   3.378 -0.3594 -0.0782  0.0466
    7MOL   C196 4768   2.767   5.958   3.321  0.1345 -0.6938  1.0091
    7MOL   C197 4769   2.771   6.099   3.248 -0.3825  0.0068 -1.2147
    7MOL   C198 4770   2.637   6.134   3.185 -0.0205  0.5022 -0.1327
    7MOL   O199 4771   2.625   6.134   3.062  0.0226  0.3381 -0.4789
    7MOL   N200 4772   2.537   6.163   3.266  1.1103 -0.4029  0.1290
    7MOL   C201 4773   2.393   6.212   3.239 -0.0318 -0.1162  0.3622
    7MOL   C202 4774   2.293   6.210   3.363  0.1925 -0.1646 -0.0358
    7MOL   C203 4775   2.266   6.065   3.408  0.2734 -0.5426 -0.0902
    7MOL   C204 4776   2.185   6.065   3.537  0.4291 -0.7418 -0.0198
    7MOL   C205 4777   2.117   5.930   3.564 -0.5205 -0.2743 -0.2840
    7MOL   C206 4778   2.026   5.931   3.685 -0.3419  0.2111 -0.3726
    7MOL   N207 4779   1.965   5.800   3.708  0.2750 -0.7307  0.0988
    7MOL   H208 4780   3.029   5.764   3.468 -0.3549 -0.0374 -0.7128
    7MOL   H209 4781   2.930   5.701   3.343  0.7304 -0.0177  0.5070
    7MOL   H210 4782   2.944   5.974   3.459  2.8716 -1.8153 -0.0578
    7MOL   H211 4783   2.983   5.928   3.302  0.0341 -1.7514  0.0948
    7MOL   H212 4784   2.693   5.959   3.400 -0.8137 -0.8258  0.1352
    7MOL   H213 4785   2.730   5.890   3.244  0.6930  1.7588 -1.5161
    7MOL   H214 4786   2.853   6.086   3.178 -0.0006  1.0095 -0.9636
    7MOL   H215 4787   2.795   6.183   3.313 -2.5016 -0.1937 -0.1100
    7MOL   H216 4788   2.549   6.154   3.366 -0.3043  1.7213  0.5402
    7MOL   H217 4789   2.398   6.315   3.204  0.5771 -0.5788 -0.9497
    7MOL   H218 4790   2.359   6.159   3.150 -1.2266 -2.2273  2.0406
    7MOL   H219 4791   2.342   6.270   3.440 -1.0411  1.1723 -0.2561
    7MOL   H220 4792   2.208   6.274   3.340  1.0608  1.6190  1.5459
    7MOL   H221 4793   2.362   6.015   3.424  0.5038 -0.2325 -0.5054
    7MOL   H222 4794   2.219   6.004   3.331 -0.5394  1.7963 -1.4855
    7MOL   H223 4795   2.261   6.096   3.609  0.0051  1.4059 -0.4497
    7MOL   H224 4796   2.102   6.136   3.527 -0.2408 -1.6418 -0.8562
    7MOL   H225 4797   2.060   5.914   3.472  0.6182  0.4777 -1.1337
    7MOL   H226 4798   2.183   5.844   3.577  0.1499  0.3821  0.6832
    7MOL   H227 4799   1.947   6.006   3.684  0.2488  0.8413 -0.5382
    7MOL   H228 4800   2.087   5.956   3.772 -0.9174 -1.4818  0.5327
    7MOL   H229 4801   1.938   5.741   3.630 -1.5251  0.0923  0.0614
    7MOL   C230 4802   1.921   5.752   3.820 -0.6633 -0.2423 -0.7407
    7MOL   O231 4803   1.929   5.811   3.929  0.0306 -0.4160 -0.0288
    7MOL   C232 4804   1.858   5.617   3.819 -0.0057 -0.1317 -0.3386
    7MOL   C233 4805   1.948   5.492   3.818 -0.3561 -0.7752  0.0631
    7MOL   C234 4806   2.023   5.452   3.688 -0.3877  0.1992  0.0398
    7MOL   C235 4807   1.937   5.405   3.570  0.2866  0.9260 -0.4365
    7MOL   C236 4808   1.887   5.525   3.493  0.2068  0.2720  0.0010
    7MOL   O237 4809   1.936   5.634   3.484 -0.2170 -0.3532 -0.6329
    7MOL   N238 4810   1.779   5.504   3.415 -0.2179  0.3113 -1.2131
    7MOL   C239 4811   1.750   5.588   3.302 -0.7874 -0.8321 -0.7269
    7MOL   C240 4812   1.664   5.505   3.207  0.3746 -0.4574  0.6095
    7MOL   C241 4813   1.622   5.584   3.083 -0.2991 -0.1869 -0.2083
    7MOL   C242 4814   1.527   5.498   3.002  0.3770  0.1143 -0.0716
    7MOL   C243 4815   1.458   5.568   2.881  0.7838 -0.3451  0.1714
    7MOL   C244 4816   1.373   5.470   2.807 -0.0107 -0.4935 -0.3731
    7MOL   N245 4817   1.300   5.539   2.700 -0.4059  0.1700  0.0469
    7MOL   H246 4818   1.785   5.613   3.900  0.0093 -0.4406 -0.3376
    7MOL   H247 4819   1.786   5.604   3.737 -0.3206 -0.6731  0.0180
    7MOL   H248 4820   2.024   5.512   3.893 -0.9453 -2.3939  1.1070
    7MOL   H249 4821   1.888   5.414   3.864  0.2101 -1.8296 -0.9676
    7MOL   H250 4822   2.089   5.371   3.720  0.2995 -0.5608 -3.1995
    7MOL   H251 4823   2.092   5.533   3.665 -0.2417 -0.0678 -0.4708
    7MOL   H252 4824   1.851   5.351   3.611  0.4093  0.3898 -0.8764
    7MOL   H253 4825   1.978   5.338   3.495  1.3820 -0.1621  1.1127
    7MOL   H254 4826   1.723   5.421   3.426  0.7824 -0.4131 -1.4613
    7MOL   H255 4827   1.702   5.685   3.317  3.3649  1.2395 -0.0857
    7MOL   H256 4828   1.844   5.599   3.247 -0.3369  1.7193  0.4550
    7MOL   H257 4829   1.708   5.411   3.173  0.3099  0.0118 -0.8156
    7MOL   H258 4830   1.572   5.481   3.259 -1.0805 -2.2338 -2.6227
    7MOL   H259 4831   1.712   5.617   3.032 -0.0825  1.1893  1.0242
    7MOL   H260 4832   1.577   5.678   3.118 -2.5277 -0.6014 -1.8549
    7MOL   H261 4833   1.586   5.411   2.973  3.8089  1.8436  1.4313
    7MOL   H262 4834   1.455   5.454   3.071  1.4726 -1.7151 -0.0546
    7MOL   H263 4835   1.399   5.649   2.924 -0.6739 -2.3713  2.0561
    7MOL   H264 4836   1.526   5.602   2.803  0.6096 -0.1707  0.0942
    7MOL   H265 4837   1.315   5.416   2.882 -1.0145  0.3962 -0.4942
    7MOL   H266 4838   1.438   5.393   2.765  1.1400  0.1602  0.1657
    7MOL   H267 4839   1.362   5.546   2.620  0.4564 -0.6612  0.6259
    7MOL   C268 4840   1.186   5.604   2.704  0.2242 -0.5398 -0.3983
    7MOL   O269 4841   1.107   5.614   2.803  0.2876 -0.0189  0.2316
    7MOL   C270 4842   1.149   5.659   2.565 -0.3249 -0.2661 -0.4769
    7MOL   C271 4843   1.003   5.697   2.551 -0.4017  0.2259  0.0063
    7MOL   C272 4844   0.982   5.769   2.408  0.3298 -0.0231  0.0149
    7MOL   C273 4845   0.830   5.815   2.377  0.3187  0.7840 -0.4875
    7MOL   C274 4846   0.765   5.900   2.487 -0.4337 -0.1742 -0.3180
    7MOL   O275 4847   0.822   5.933   2.592  0.2892 -0.0517 -0.0907
    7MOL   N276 4848   0.636   5.943   2.461 -0.4640  0.1654 -0.3501
    7MOL   C277 4849   0.558   6.020   2.555 -0.3066 -0.8951 -0.4525
    7MOL   C278 4850   0.415   6.001   2.542 -0.2660 -0.0797  0.5701
    7MOL   C279 4851   0.327   6.041   2.664 -0.4073  0.1093 -0.7375
    7MOL   C280 4852   0.326   6.197   2.688 -0.6519  0.7404 -0.3241
    7MOL   C281 4853   0.245   6.242   2.803  0.0549 -0.7298 -0.6134
    7MOL   C282 4854   0.244   6.399   2.831  0.2202  1.0516 -0.2842
    7MOL   N283 4855   0.379   6.444   2.858 -0.6582 -0.4822  0.3173
    7MOL   H284 4856   1.213   5.742   2.537  0.5618 -0.5861  0.5823
    7MOL   H285 4857   1.176   5.582   2.492  1.5150 -0.1864  0.0931
    7MOL   H286 4858   0.931   5.617   2.566  1.0244 -1.1211 -0.1376
    7MOL   H287 4859   0.977   5.764   2.633 -0.3992  0.4954 -0.2135
    7MOL   H288 4860   1.002   5.681   2.346 -0.5972 -0.4177  0.2820
    7MOL   H289 4861   1.061   5.845   2.399  0.0185  0.2243 -0.6488
    7MOL   H290 4862   0.755   5.742   2.347  0.0839  0.6099  0.4847
    7MOL   H291 4863   0.844   5.888   2.298 -0.6540  1.3488 -0.1439
    7MOL   H292 4864   0.608   5.938   2.365  0.9882  1.6123 -0.8756
    7MOL   H293 4865   0.597   5.993   2.654  2.8448 -0.7923 -1.6075
    7MOL   H294 4866   0.583   6.124   2.534  1.0584 -1.8318 -3.8573
    7MOL   H295 4867   0.403   6.052   2.447 -0.9286  1.1964  1.3276
    7MOL   H296 4868   0.396   5.895   2.528  0.5164 -0.2543  0.8334
    7MOL   H297 4869   0.361   5.982   2.749  0.3592  1.0564 -0.3749
    7MOL   H298 4870   0.230   5.994   2.644 -0.3814  0.1027 -0.8450
    7MOL   H299 4871   0.430   6.229   2.699 -0.4138 -0.2149  0.1698
    7MOL   H300 4872   0.287   6.252   2.602 -0.0047  1.1711 -0.3494
    7MOL   H301 4873   0.144   6.204   2.785 -0.5952  0.0533  1.1692
    7MOL   H302 4874   0.277   6.197   2.897 -2.4031  1.2263  1.2589
    7MOL   H303 4875   0.180   6.421   2.917 -2.7092 -1.6200 -1.6645
    7MOL   H304 4876   0.208   6.443   2.738  1.7363  0.8339 -0.9856
    7MOL   H305 4877   0.429   6.459   2.771  1.4208 -1.3673  1.3322
    7MOL   C306 4878   0.443   6.439   2.975  0.1756 -0.2560 -0.0286
    7MOL   O307 4879   0.384   6.410   3.082  1.1805 -0.0461  0.2339
    7MOL   C308 4880   0.595   6.455   2.966 -0.0815  0.1891 -0.2116
    7MOL   C309 4881   0.683   6.344   2.906  0.3157 -0.2614 -0.0129
    7MOL   C310 4882   0.736   6.374   2.766 -0.3863 -0.3228 -0.1544
    7MOL   C311 4883   0.833   6.262   2.727 -0.2440 -0.7712  0.7778
    7MOL   C312 4884   0.890   6.298   2.593  0.1060 -0.0223 -0.5261
    7MOL   O313 4885   0.828   6.310   2.486  0.1255  0.0513  0.1277
    7MOL   N314 4886   1.024   6.312   2.581 -0.3795 -0.1037  0.5059
    7MOL   C315 4887   1.092   6.371   2.466  0.5896 -0.0298  0.7308
    7MOL   C316 4888   1.232   6.315   2.441 -0.0844 -0.3903  0.7237
    7MOL   C317 4889   1.223   6.162   2.456  0.8803 -0.2892 -0.8761
    7MOL   C318 4890   1.353   6.115   2.385  0.4961  0.8125  0.0057
    7MOL   C319 4891   1.381   5.963   2.387 -0.1583  0.3935 -0.0839
    7MOL   C320 4892   1.508   5.918   2.312 -0.6880 -0.0683  0.9637
    7MOL   N321 4893   1.506   5.770   2.295  0.2232 -0.2672  1.0405
    7MOL   H322 4894   0.624   6.549   2.920 -0.1846  0.8183  0.9891
    7MOL   H323 4895   0.621   6.469   3.071  1.2703  1.8834 -0.7443
    7MOL   H324 4896   0.763   6.317   2.975  0.0054 -0.0772  0.4206
    7MOL   H325 4897   0.638   6.245   2.915  0.4519 -0.4426 -1.1986
    7MOL   H326 4898   0.790   6.468   2.756  0.7911 -0.7600  1.8214
    7MOL   H327 4899   0.655   6.377   2.692 -0.9246  2.8819  0.4893
    7MOL   H328 4900   0.776   6.170   2.715  0.3167 -1.4298  2.9106
    7MOL   H329 4901   0.906   6.239   2.804 -0.3786 -1.7011  0.6323
    7MOL   H330 4902   1.085   6.293   2.659  1.0911  5.3047  0.8682
    7MOL   H331 4903   1.043   6.340   2.373  2.0715  0.0125 -0.0851
    7MOL   H332 4904   1.100   6.479   2.477 -1.5634  0.2078  0.1115
    7MOL   H333 4905   1.264   6.338   2.340 -3.1911  0.1204 -0.1986
    7MOL   H334 4906   1.306   6.355   2.510 -1.3575 -0.4250  2.1359
    7MOL   H335 4907   1.136   6.113   2.412  0.9056 -2.6012  1.5308
    7MOL   H336 4908   1.231   6.135   2.561  1.9494 -0.7679 -1.0767
    7MOL   H337 4909   1.331   6.147   2.283  0.1208  1.2617  0.2270
    7MOL   H338 4910   1.440   6.169   2.422  1.5240 -2.0424  1.9333
    7MOL   H339 4911   1.399   5.925   2.487  0.6028 -0.6145 -0.5964
    7MOL   H340 4912   1.296   5.910   2.345  0.9635 -3.2544  2.0881
    7MOL   H341 4913   1.600   5.936   2.369  0.8010  0.0756 -1.4270
    7MOL   H342 4914   1.520   5.959   2.212 -1.3881 -1.7283  0.1799
    7MOL   H343 4915   1.517   5.742   2.199  0.2139 -0.5517  1.1245
    7MOL   C344 4916   1.520   5.672   2.388  0.1704 -0.2927 -0.3284
    7MOL   O345 4917   1.504   5.686   2.510 -0.4986  0.0435 -0.5937
    7MOL   C346 4918   1.540   5.532   2.327  0.2714  0.0254 -0.5101
    7MOL   C347 4919   1.553   5.407   2.421 -0.6277  0.2225  0.8957
    7MOL   C348 4920   1.558   5.268   2.355 -0.3273  0.3592 -0.7989
    7MOL   C349 4921   1.469   5.233   2.227  0.2798 -0.0542  0.0754
    7MOL   C350 4922   1.323   5.254   2.262  0.4020 -0.4025 -0.4364
    7MOL   O351 4923   1.274   5.184   2.351 -0.0074 -0.1308 -0.0475
    7MOL   N352 4924   1.255   5.345   2.192 -0.0602  0.2991  0.0088
    7MOL   C353 4925   1.116   5.374   2.210 -0.0103  0.6325 -0.0350
    7MOL   C354 4926   1.055   5.477   2.123 -0.1715  0.5273  0.1491
    7MOL   C355 4927   0.902   5.485   2.135 -0.3253 -0.8769  1.1223
    7MOL   C356 4928   0.843   5.609   2.054 -0.4993  0.3643 -0.3112
    7MOL   C357 4929   0.693   5.626   2.069  0.3957  0.3780 -0.7041
    7MOL   C358 4930   0.624   5.729   1.987  0.2547  0.2191 -0.2841
    7MOL   N359 4931   0.486   5.731   2.039 -0.4449  0.3038  0.0678
    7MOL   H360 4932   1.453   5.511   2.266  0.0478 -1.8077  0.3938
    7MOL   H361 4933   1.627   5.534   2.261 -1.1481 -0.2114 -2.3996
    7MOL   H362 4934   1.646   5.408   2.477  0.3599  2.0351 -0.6968
    7MOL   H363 4935   1.469   5.406   2.491 -0.4035 -0.0138  1.1595
    7MOL   H364 4936   1.530   5.196   2.432  0.8502  1.4968  0.7197
    7MOL   H365 4937   1.660   5.240   2.331 -0.8724 -1.8382 -0.6615
    7MOL   H366 4938   1.482   5.127   2.206 -1.0060 -0.2312  0.1494
    7MOL   H367 4939   1.488   5.302   2.145 -2.2446  0.5197 -0.0806
    7MOL   H368 4940   1.310   5.407   2.135 -1.3921  0.3838 -1.1890
    7MOL   H369 4941   1.055   5.285   2.198 -1.4423  1.4135  1.2946
    7MOL   H370 4942   1.097   5.398   2.315  1.4480  1.3174  0.0920
    7MOL   H371 4943   1.106   5.570   2.149 -0.7703  0.4617  1.6383
    7MOL   H372 4944   1.089   5.463   2.020 -0.8303 -0.2923  0.0476
    7MOL   H373 4945   0.864   5.472   2.236  0.4679 -2.4101  1.2523
    7MOL   H374 4946   0.872   5.390   2.091  2.4301 -1.9087  1.3333
    7MOL   H375 4947   0.887   5.704   2.084  0.1087  0.0020 -0.0543
    7MOL   H376 4948   0.861   5.592   1.948 -3.3626  1.1438 -0.9823
    7MOL   H377 4949   0.651   5.529   2.041 -0.3258  1.2471 -2.7027
    7MOL   H378 4950   0.666   5.627   2.174 -0.8402 -1.3868 -0.9768
    7MOL   H379 4951   0.620   5.704   1.881 -0.2905  3.3705 -1.0466
    7MOL   H380 4952   0.664   5.829   2.003  0.6932 -0.2642  1.8094
    7MOL   H381 4953   0.412   5.679   1.996 -1.9887  2.0800  0.5316
    7MOL   C382 4954   0.452   5.784   2.155  0.2411  0.3864 -0.2178
    7MOL   O383 4955   0.516   5.868   2.221 -0.5246  0.7369 -0.0602
    7MOL   C384 4956   0.313   5.737   2.197  0.2572 -0.6065  0.6285
    7MOL   C385 4957   0.299   5.680   2.339  0.1582  0.2260  0.3316
    7MOL   C386 4958   0.175   5.588   2.345  0.3454  0.1742 -0.4583
    7MOL   C387 4959   0.158   5.496   2.470  0.7008  0.5737  0.2618
    7MOL   C388 4960   0.028   5.407   2.466  0.3209  0.1496  0.6971
    7MOL   O389 4961   7.667   5.408   2.364  0.0649  0.0138 -0.2184
    7MOL   N390 4962   0.004   5.323   2.568  0.0157 -0.1635 -0.9646
    7MOL   C391 4963   7.607   5.222   2.569 -0.2157 -0.0007  0.2965
    7MOL   C392 4964   7.643   5.091   2.505 -0.2921 -0.2568  0.0354
    7MOL   C393 4965   0.071   5.025   2.534  0.5017  0.1536  0.4963
    7MOL   C394 4966   0.114   4.905   2.452 -0.7462 -0.4358 -0.2601
    7MOL   C395 4967   0.265   4.864   2.467 -0.1539 -0.2977  0.1850
    7MOL   C396 4968   0.303   4.783   2.355 -0.3555  0.3108  0.1604
    7MOL   N397 4969   0.434   4.727   2.373 -0.3061 -0.3235  0.6156
    7MOL   H398 4970   0.263   5.831   2.177 -2.7765 -2.6485 -2.0018
    7MOL   H399 4971   0.288   5.663   2.120  0.0951  2.9371 -2.8687
    7MOL   H400 4972   0.386   5.623   2.371  0.0165 -1.1636 -1.6567
    7MOL   H401 4973   0.287   5.754   2.418  1.6461 -0.8658  1.6112
    7MOL   H402 4974   0.170   5.511   2.268 -3.2262 -0.7653  0.6049
    7MOL   H403 4975   0.087   5.652   2.340  0.5691  0.5696  0.6387
    7MOL   H404 4976   0.140   5.550   2.563 -1.9894  1.1228 -0.5398
    7MOL   H405 4977   0.242   5.426   2.474  0.7625  0.6724  0.8040
    7MOL   H406 4978   0.057   5.335   2.654 -1.0305  0.6994 -0.4306
    7MOL   H407 4979   7.568   5.201   2.669 -0.8891  2.6294  0.6161
    7MOL   H408 4980   7.514   5.262   2.528  0.0958 -0.6209 -1.0523
    7MOL   H409 4981   7.567   5.018   2.531  0.8406 -1.7231 -0.7067
    7MOL   H410 4982   7.636   5.094   2.396 -0.2444 -0.8227  0.0155
    7MOL   H411 4983   0.058   4.990   2.637  0.1161 -1.1487  0.0136
    7MOL   H412 4984   0.151   5.098   2.538  1.4074 -0.8356  0.8599
    7MOL   H413 4985   0.045   4.822   2.466 -2.3822  1.0700  0.6508
    7MOL   H414 4986   0.099   4.930   2.347 -1.7944 -1.1973 -0.3066
    7MOL   H415 4987   0.337   4.946   2.473 -0.6382  0.2214 -1.1098
    7MOL   H416 4988   0.273   4.808   2.561 -0.3262 -0.6321  0.0036
    7MOL   H417 4989   0.291   4.842   2.264 -2.0110  0.9878  0.8145
    7MOL   H418 4990   0.234   4.699   2.344  0.8838 -1.0431  2.4396
    7MOL   H419 4991   0.441   4.631   2.405 -0.4725 -0.7239 -0.5123
    7MOL   C420 4992   0.552   4.795   2.360  0.4774  0.5101  0.0612
    7MOL   O421 4993   0.556   4.910   2.312 -0.2198 -0.4003  0.0663
    7MOL   C422 4994   0.679   4.714   2.383 -0.0289 -0.3312 -0.4688
    7MOL   C423 4995   0.816   4.793   2.399  0.0638 -0.6691  0.4812
    7MOL   C424 4996   0.869   4.839   2.263  0.5095  0.2279 -1.1907
    7MOL   C425 4997   1.017   4.899   2.264  0.0864  0.0738 -0.6302
    7MOL   C426 4998   1.053   4.949   2.126  0.1627  0.2067  0.4004
    7MOL   O427 4999   0.978   5.012   2.061 -0.0569 -0.2036 -0.5609
    7MOL   N428 5000   1.176   4.919   2.085 -0.3392 -0.1515 -0.8362
    7MOL   C429 5001   1.241   4.955   1.958  0.0784  0.5188  0.3947
    7MOL   C430 5002   1.174   4.899   1.831 -0.7368 -0.2966  0.1102
    7MOL   C431 5003   1.250   4.924   1.703 -0.3228  0.0596  0.0706
    7MOL   C432 5004   1.165   4.905   1.573 -0.2121 -0.2889 -0.3409
    7MOL   C433 5005   1.136   4.757   1.552  0.5155  0.0008  0.5021
    7MOL   C434 5006   1.058   4.734   1.420  0.2419 -0.0970 -0.1535
    7MOL   N435 5007   0.932   4.797   1.403  0.0777 -0.2222 -0.1479
    7MOL   H436 5008   0.668   4.648   2.469  2.0493 -2.0941 -1.5146
    7MOL   H437 5009   0.679   4.649   2.295 -1.2081 -1.7272  0.5379
    7MOL   H438 5010   0.803   4.876   2.468 -2.2664 -1.4035  0.9467
    7MOL   H439 5011   0.890   4.725   2.442 -1.1007 -1.4237  1.3003
    7MOL   H440 5012   0.800   4.917   2.229 -0.3559 -0.9538 -2.1859
    7MOL   H441 5013   0.873   4.765   2.183  1.6505 -1.8763  0.7740
    7MOL   H442 5014   1.089   4.833   2.311  1.3559  1.7966 -0.0731
    7MOL   H443 5015   1.021   4.982   2.334  0.4249 -1.6667  1.4510
    7MOL   H444 5016   1.240   4.882   2.154 -3.0099 -0.0278  1.8078
    7MOL   H445 5017   1.237   5.063   1.945 -3.0469  0.2014 -1.9769
    7MOL   H446 5018   1.345   4.922   1.958  0.3649  1.3054 -2.2344
    7MOL   H447 5019   1.146   4.794   1.840  2.6515 -1.6486 -3.4727
    7MOL   H448 5020   1.081   4.955   1.829 -0.8058 -0.3447  1.4059
    7MOL   H449 5021   1.335   4.857   1.696  1.1380  1.6104  2.4709
    7MOL   H450 5022   1.293   5.023   1.690 -3.0964  1.1703 -1.1680
    7MOL   H451 5023   1.078   4.967   1.593  0.0940 -0.6423  2.2499
    7MOL   H452 5024   1.221   4.948   1.489 -1.1205  0.5658 -0.5231
    7MOL   H453 5025   1.231   4.705   1.539  0.9247  0.6672  0.7753
    7MOL   H454 5026   1.088   4.721   1.642  0.9096  2.4375  1.7324
    7MOL   H455 5027   1.054   4.626   1.408  0.6391 -0.2153  0.6854
    7MOL   H456 5028   1.113   4.766   1.332  2.6484  0.2196  1.4136
    7MOL   H457 5029   0.916   4.869   1.335 -2.5281 -2.1341 -1.6567
    7MOL   C458 5030   0.827   4.729   1.448  0.3382  0.2049 -0.5501
    7MOL   O459 5031   0.839   4.627   1.514 -0.0141  0.1181  0.2668
    7MOL   C460 5032   0.692   4.780   1.396 -0.2155 -0.8426 -0.6099
    7MOL   C461 5033   0.590   4.673   1.375  0.1303 -0.0773 -0.1619
    7MOL   C462 5034   0.442   4.722   1.392  0.3792 -0.0597  0.8614
    7MOL   C463 5035   0.392   4.812   1.276 -0.6123  0.3149  0.4251
    7MOL   C464 5036   0.301   4.745   1.174 -0.4607  0.2324 -0.2668
    7MOL   O465 5037   0.222   4.652   1.204  0.5447  0.2143 -0.5767
    7MOL   N466 5038   0.327   4.777   1.042  0.6331  0.0321  0.6355
    7MOL   C467 5039   0.238   4.748   0.928 -0.5453  0.2489 -0.0986
    7MOL   C468 5040   0.267   4.838   0.811 -0.1315 -0.5546 -0.1366
    7MOL   C469 5041   0.166   4.835   0.691 -0.0029  0.1901 -0.2956
    7MOL   C470 5042   0.150   4.959   0.599 -0.1775 -0.9588  0.1991
    7MOL   C471 5043   0.062   5.071   0.671  0.2090  0.3670 -0.3623
    7MOL   C472 5044   0.001   5.168   0.568 -1.2885 -0.4374 -0.1463
    7MOL   N473 5045   7.625   5.086   0.488  0.6917 -0.3486  0.1660
    7MOL   H474 5046   0.643   4.849   1.464 -0.7137 -1.1198 -0.6844
    7MOL   H475 5047   0.705   4.838   1.304  3.4019 -0.6159 -0.0553
    7MOL   H476 5048   0.607   4.625   1.278 -0.2557  0.1031 -0.3160
    7MOL   H477 5049   0.601   4.588   1.443 -0.7674 -0.4892 -0.5190
    7MOL   H478 5050   0.435   4.799   1.469 -0.6649  0.4298  0.2949
    7MOL   H479 5051   0.367   4.645   1.409 -0.6737  1.1075  1.6346
    7MOL   H480 5052   0.473   4.874   1.237 -1.2973  0.0621 -1.4744
    7MOL   H481 5053   0.329   4.893   1.314  1.0126  1.3628  0.9471
    7MOL   H482 5054   0.398   4.844   1.017  0.1807 -0.4148 -1.9597
    7MOL   H483 5055   0.256   4.644   0.900  1.2130  0.9224 -1.5908
    7MOL   H484 5056   0.132   4.744   0.954 -0.9185  0.5321 -1.5189
    7MOL   H485 5057   0.272   4.943   0.838  0.5528 -0.3882 -0.9008
    7MOL   H486 5058   0.365   4.817   0.769  0.1226  1.5689 -0.6739
    7MOL   H487 5059   0.064   4.809   0.718  0.3293 -1.0431 -0.2047
    7MOL   H488 5060   0.205   4.757   0.625 -1.2357  1.3604 -2.4538
    7MOL   H489 5061   0.243   5.002   0.563 -2.5595  2.2184 -2.3752
    7MOL   H490 5062   0.117   4.926   0.501 -1.7583  1.4043 -0.0856
    7MOL   H491 5063   7.686   5.025   0.723 -0.0814 -1.6338 -2.5138
    7MOL   H492 5064   0.120   5.133   0.740 -1.2839  1.5307 -0.1234
    7MOL   H493 5065   0.077   5.232   0.525  0.4593 -1.1539  1.7748
    7MOL   H494 5066   7.641   5.229   0.627  1.0871 -0.3130  2.5890
    7MOL   H495 5067   7.595   4.996   0.522  1.9561 -0.7795  0.1747
    7MOL   C496 5068   7.592   5.115   0.366  0.8176  0.6015 -0.5955
    7MOL   O497 5069   7.622   5.214   0.308  0.5729 -0.2222  0.6963
    7MOL   C498 5070   7.512   5.009   0.290  0.4622  0.2417 -0.1512
    7MOL   C499 5071   7.587   4.953   0.161 -0.1386  0.0847  0.1250
    7MOL   C500 5072   7.691   4.840   0.180 -0.7086  0.7339 -0.2792
    7MOL   C501 5073   0.020   4.765   0.047  0.3463 -0.8078  0.4209
    7MOL   C502 5074   0.099   4.637   0.071 -0.4031 -0.0078  0.1788
    7MOL   O503 5075   0.117   4.600   0.188 -0.0897 -0.3372 -0.7673
    7MOL   N504 5076   0.148   4.575   7.668 -0.2206 -0.2383 -0.0346
    7MOL   C505 5077   0.223   4.453   7.671  0.3919 -0.2050 -0.4680
    7MOL   C506 5078   0.303   4.447   7.549 -0.6990  0.6628 -0.0517
    7MOL   C507 5079   0.394   4.327   7.523 -0.0396 -0.5986  0.5819
    7MOL   C508 5080   0.318   4.199   7.485 -0.3955  0.0225 -0.0418
    7MOL   C509 5081   0.216   4.204   7.367 -0.1909 -0.3734  0.0002
    7MOL   C510 5082   0.143   4.063   7.356  0.5991  0.3128  0.0071
    7MOL   N511 5083   0.025   4.072   7.270 -0.6685  0.0799 -0.0490
    7MOL   H512 5084   7.483   4.924   0.352 -1.4937  0.9590 -0.0292
    7MOL   H513 5085   7.426   5.063   0.250 -1.6008 -2.6456  0.2440
    7MOL   H514 5086   7.508   4.925   0.092 -2.6407  1.6476  2.2432
    7MOL   H515 5087   7.645   5.034   0.116 -0.2259 -0.8308 -1.6718
    7MOL   H516 5088   7.653   4.761   0.245  1.6419  0.6646  1.0492
    7MOL   H517 5089   0.071   4.877   0.232 -0.4926  0.3037 -0.3380
    7MOL   H518 5090   0.074   4.834   7.689  0.0034 -0.7721  0.1782
    7MOL   H519 5091   7.645   4.727   7.696  0.5846 -1.7164  0.6642
    7MOL   H520 5092   0.127   4.613   7.577 -2.6244 -1.2632  0.0677
    7MOL   H521 5093   0.297   4.440   0.042 -0.9273 -1.3102  0.6026
    7MOL   H522 5094   0.162   4.363   7.683  1.9420 -1.3195 -0.8004
    7MOL   H523 5095   0.237   4.466   7.464 -1.2806  0.3858  0.3300
    7MOL   H524 5096   0.365   4.537   7.551  1.6974 -0.9617  0.4811
    7MOL   H525 5097   0.462   4.301   7.604  1.1526  0.7837  0.0426
    7MOL   H526 5098   0.457   4.357   7.440 -0.5473 -2.8620 -0.6585
    7MOL   H527 5099   0.394   4.130   7.449 -1.1287 -0.1457 -1.3169
    7MOL   H528 5100   0.277   4.158   7.577  1.0482 -0.5652  0.3445
    7MOL   H529 5101   0.141   4.279   7.394  1.3006  1.8851 -1.9424
    7MOL   H530 5102   0.251   4.234   7.268  0.0052 -1.7141 -0.3436
    7MOL   H531 5103   0.110   4.031   7.454 -3.3719  0.9583 -1.0188
    7MOL   H532 5104   0.198   3.974   7.325 -1.5100 -0.9252 -0.2830
    7MOL   H533 5105   7.652   4.097   7.323 -0.2480  0.7393  0.2910
    7MOL   C534 5106   0.035   4.056   7.136 -0.3164  0.1308 -0.2236
    7MOL   O535 5107   0.143   4.050   7.079 -0.2442 -0.2593 -0.1175
    7MOL   C536 5108   7.609   4.071   7.058 -0.2497 -0.1915 -0.9116
    7MOL   C537 5109   7.591   3.954   6.955 -0.0282 -0.0853 -0.1493
    7MOL   C538 5110   7.529   3.829   7.015  0.2312 -0.0760 -0.2320
    7MOL   C539 5111   7.493   3.709   6.925  0.4793 -0.0269  0.4831
    7MOL   C540 5112   7.617   3.644   6.853 -0.0810 -0.6619  0.9539
    7MOL   O541 5113   0.017   3.646   6.909 -0.6032 -0.6305  0.3125
    7MOL   N542 5114   7.604   3.590   6.732  0.6040 -0.2937 -0.3810
    7MOL   C543 5115   0.008   3.543   6.644  0.9123 -0.2189 -0.3521
    7MOL   C544 5116   0.012   3.388   6.619 -0.4013  0.4969 -0.8382
    7MOL   C545 5117   7.612   3.332   6.525  0.2826 -0.4712  0.1418
    7MOL   C546 5118   7.616   3.181   6.501  0.0401 -1.0928 -0.1393
    7MOL   C547 5119   7.499   3.135   6.416  0.3005  0.4690 -0.2331
    7MOL   C548 5120   7.529   2.995   6.358  0.0188 -0.3953 -0.6983
    7MOL   N549 5121   7.412   2.914   6.318  0.2154 -0.1001 -0.6115
    7MOL   H550 5122   7.520   4.081   7.120 -0.3435 -1.7667 -0.7778
    7MOL   H551 5123   7.616   4.166   7.005  0.8586  0.1605 -0.1544
    7MOL   H552 5124   7.532   3.980   6.867 -1.9181 -0.1963  1.0536
    7MOL   H553 5125   7.682   3.918   6.907 -0.9410 -0.3852 -1.7034
    7MOL   H554 5126   7.429   3.859   7.045  1.5125  0.7711  3.4623
    7MOL   H555 5127   7.582   3.801   7.107  1.1410  0.1657 -0.6766
    7MOL   H556 5128   7.420   3.744   6.852 -0.8640 -1.8973  0.9040
    7MOL   H557 5129   7.446   3.632   6.986 -1.0040 -0.2566 -0.9088
    7MOL   H558 5130   7.525   3.626   6.680  0.5484 -1.4297 -1.0706
    7MOL   H559 5131   7.707   3.590   6.546 -0.1641  1.9020  0.7197
    7MOL   H560 5132   0.108   3.569   6.680  0.8359  0.1798 -0.4264
    7MOL   H561 5133   0.097   3.359   6.557  0.3530 -0.5699  0.6649
    7MOL   H562 5134   7.705   3.335   6.713  1.1080 -0.6375 -1.2186
    7MOL   H563 5135   7.620   3.381   6.428 -2.0303 -1.1228 -0.3919
    7MOL   H564 5136   7.513   3.356   6.561  0.4564  0.3599  0.0872
    7MOL   H565 5137   0.003   3.177   6.446 -0.2622  0.1004 -0.7778
    7MOL   H566 5138   7.613   3.119   6.590 -1.7062  0.8260  1.1827
    7MOL   H567 5139   7.407   3.120   6.474  1.7953  1.3430  2.4336
    7MOL   H568 5140   7.473   3.206   6.337  0.2929  0.5477 -0.1611
    7MOL   H569 5141   7.586   2.946   6.436 -1.0686 -3.4080 -1.7488
    7MOL   H570 5142   7.597   3.005   6.273 -0.8994 -0.1769 -1.4243
    7MOL   H571 5143   7.324   2.934   6.362  1.5916  0.3872  2.0590
    7MOL   C572 5144   7.411   2.807   6.246  0.3009  0.1788  0.3370
    7MOL   O573 5145   7.509   2.753   6.200  0.1260  0.1330  0.2936
    7MOL   C574 5146   7.272   2.754   6.231 -0.1915  0.0063 -0.0683
    7MOL   C575 5147   7.263   2.608   6.201  0.1790 -0.7431  0.3346
    7MOL   C576 5148   7.130   2.564   6.133  0.2965  0.5397 -0.5886
    7MOL   C577 5149   7.121   2.419   6.077  0.6930 -0.2804 -0.5602
    7MOL   C578 5150   7.102   2.319   6.195  0.6725 -0.0001  0.0506
    7MOL   O579 5151   7.176   2.312   6.293 -0.0342  0.2739 -0.3736
    7MOL   N580 5152   7.011   2.221   6.172 -0.2081 -0.0446  0.0610
    7MOL   C581 5153   6.967   2.122   6.272 -0.5356  0.5767 -0.2363
    7MOL   C582 5154   7.009   1.984   6.228 -0.5124  1.0478  0.0468
    7MOL   C583 5155   6.943   1.865   6.303  0.2160 -0.2167  0.1271
    7MOL   C584 5156   6.795   1.859   6.274 -0.3490  0.6096  0.2846
    7MOL   C585 5157   6.732   1.737   6.332  0.9150 -0.4573  0.3074
    7MOL   C586 5158   6.581   1.738   6.310  0.2880 -0.1361  0.2115
    7MOL   N587 5159   6.519   1.619   6.370  0.3775  0.6535  0.2870
    7MOL   H588 5160   7.212   2.775   6.320 -0.5884  1.3208 -0.6349
    7MOL   H589 5161   7.240   2.815   6.147  2.4416 -0.1140 -1.2045
    7MOL   H590 5162   7.344   2.575   6.135  0.0827  1.1916 -0.7856
    7MOL   H591 5163   7.271   2.564   6.300  1.2854  0.9738  1.0255
    7MOL   H592 5164   7.093   2.634   6.058 -1.1886  0.0886 -0.2984
    7MOL   H593 5165   7.054   2.575   6.210 -0.4190 -2.5722 -0.7814
    7MOL   H594 5166   7.213   2.382   6.032 -0.1173 -2.1010 -0.7252
    7MOL   H595 5167   7.032   2.415   6.013 -0.5193  0.3221  1.0572
    7MOL   H596 5168   6.959   2.225   6.086 -2.3958 -0.1444  1.3440
    7MOL   H597 5169   7.007   2.139   6.371  0.2023  0.0008 -0.4321
    7MOL   H598 5170   6.858   2.124   6.279 -0.4824 -2.4055  2.2786
    7MOL   H599 5171   7.006   1.976   6.119 -1.6526 -2.1437  0.2540
    7MOL   H600 5172   7.115   1.988   6.251 -1.2842  0.5287  4.0689
    7MOL   H601 5173   6.964   1.864   6.410  1.4610 -1.9287 -0.1091
    7MOL   H602 5174   6.976   1.771   6.259 -3.6167 -2.2679  1.4474
    7MOL   H603 5175   6.736   1.942   6.313 -1.5155  0.5562 -1.3300
    7MOL   H604 5176   6.785   1.851   6.166 -2.0457  0.8088  0.4101
    7MOL   H605 5177   6.768   1.639   6.301  1.4218 -0.1327 -0.1308
    7MOL   H606 5178   6.746   1.732   6.440  0.5387 -0.1035  0.3752
    7MOL   H607 5179   6.548   1.747   6.207 -2.7502  0.1286  1.1725
    7MOL   H608 5180   6.531   1.819   6.364 -1.9447 -1.0360 -0.4553
    7MOL   H609 5181   6.479   1.625   6.462 -0.0599  0.4009  0.1185
    7MOL   C610 5182   6.489   1.501   6.308 -0.6173 -0.6681 -0.2283
    7MOL   O611 5183   6.502   1.486   6.186 -0.3402  0.1796 -0.4205
    7MOL   C612 5184   6.446   1.389   6.398 -0.1915 -0.8156 -0.4419
    7MOL   C613 5185   6.424   1.258   6.322  0.2978 -0.4289 -0.1928
    7MOL   C614 5186   6.566   1.205   6.269  0.1389  0.3007 -0.5416
    7MOL   C615 5187   6.568   1.062   6.204  0.5027  0.5016  0.2221
    7MOL   C616 5188   6.529   1.057   6.059 -0.1141  0.2278  0.3563
    7MOL   O617 5189   6.412   1.072   6.025  0.5414 -0.5278  0.6176
    7MOL   N618 5190   6.632   1.034   5.972  0.1206 -0.1908 -0.4293
    7MOL   C619 5191   6.627   1.048   5.826 -0.0184  0.1889  0.2560
    7MOL   C620 5192   6.696   1.172   5.779  0.6691  0.6486 -0.7291
    7MOL   C621 5193   6.670   1.202   5.629  0.2732 -0.3224 -0.3724
    7MOL   C622 5194   6.706   1.350   5.608  0.4956  0.3823  0.7048
    7MOL   C623 5195   6.649   1.409   5.473  0.2387  0.0708 -0.3899
    7MOL   C624 5196   6.705   1.554   5.455  0.7322  0.2119  0.1334
    7MOL   N625 5197   6.651   1.630   5.337 -0.3512 -0.6173  0.3520
    7MOL   H626 5198   6.524   1.374   6.472 -1.7279  2.3286  1.9456
    7MOL   H627 5199   6.364   1.427   6.460 -0.0354  1.0889 -1.3774
    7MOL   H628 5200   6.374   1.178   6.376 -2.5994 -0.4007 -2.6745
    7MOL   H629 5201   6.368   1.281   6.231  1.9898  0.3444 -1.0636
    7MOL   H630 5202   6.627   1.203   6.359  0.1961  1.2549 -0.5480
    7MOL   H631 5203   6.604   1.281   6.199 -2.6479  0.0073 -2.4710
    7MOL   H632 5204   6.488   1.006   6.251  0.6534 -0.1036 -0.2308
    7MOL   H633 5205   6.658   1.002   6.216  0.6943  0.9124  0.8562
    7MOL   H634 5206   6.725   1.035   6.012 -0.9522  3.6112  2.3036
    7MOL   H635 5207   6.680   0.963   5.782  1.8956  1.5633 -0.1539
    7MOL   H636 5208   6.523   1.061   5.797  0.2596  0.0995 -0.7764
    7MOL   H637 5209   6.653   1.257   5.831  1.2922 -0.5240  1.7924
    7MOL   H638 5210   6.804   1.171   5.797  0.7691 -0.4590 -1.3584
    7MOL   H639 5211   6.568   1.173   5.606 -0.0336 -1.9158  2.6919
    7MOL   H640 5212   6.741   1.142   5.572  3.1586  1.9899  0.6371
    7MOL   H641 5213   6.675   1.410   5.694 -2.6577 -0.7854  0.4486
    7MOL   H642 5214   6.815   1.353   5.602  0.3969  0.5656 -1.2669
    7MOL   H643 5215   6.676   1.342   5.391 -0.2149 -1.2667  0.5463
    7MOL   H644 5216   6.540   1.407   5.480  0.2472 -0.2735 -0.3460
    7MOL   H645 5217   6.813   1.557   5.443  0.5212  1.6177 -1.4741
    7MOL   H646 5218   6.692   1.610   5.548 -0.7285  0.3718 -0.1517
    7MOL   H647 5219   6.565   1.595   5.298  0.1143  1.1334 -2.4379
    7MOL   C648 5220   6.697   1.744   5.292  0.0746 -0.0758  0.6255
    7MOL   O649 5221   6.790   1.805   5.352  0.4929 -0.4816 -0.1425
    7MOL   C650 5222   6.618   1.797   5.172  0.1712  0.4038  0.8433
    7MOL   C651 5223   6.646   1.939   5.124  0.6079 -0.3514  0.4123
    7MOL   C652 5224   6.579   2.051   5.205  0.4606  0.1244 -0.1736
    7MOL   C653 5225   6.446   2.092   5.131 -0.6536  0.0319  1.0540
    7MOL   C654 5226   6.356   2.175   5.215 -0.0982  0.3545  0.1178
    7MOL   O655 5227   6.274   2.119   5.289  0.4052 -0.5703 -0.5453
    7MOL   N656 5228   6.363   2.303   5.195  0.2291 -0.3095  0.1796
    7MOL   C657 5229   6.316   2.406   5.288  0.2545  0.2844 -0.5765
    7MOL   C658 5230   6.266   2.534   5.214 -0.7550 -0.0367 -0.0255
    7MOL   C659 5231   6.367   2.620   5.134  0.6699  0.8291  0.1943
    7MOL   C660 5232   6.303   2.736   5.062 -0.2071  0.0531  0.2761
    7MOL   C661 5233   6.374   2.867   5.083 -0.1334 -1.0278  0.1766
    7MOL   C662 5234   6.332   2.957   5.207 -0.5210 -0.4098  0.0914
    7MOL   N663 5235   6.315   2.862   5.323  0.3624 -0.0653  0.0918
    7MOL   H664 5236   6.640   1.734   5.086  0.7241  0.8869  0.6283
    7MOL   H665 5237   6.514   1.778   5.198  0.3357 -1.8269 -0.0419
    7MOL   H666 5238   6.752   1.963   5.131  0.4908 -0.0051  1.0040
    7MOL   H667 5239   6.612   1.958   5.023  1.2438  1.6584  0.5548
    7MOL   H668 5240   6.641   2.141   5.210  0.9763 -0.0842 -2.4783
    7MOL   H669 5241   6.567   2.019   5.308  0.1827 -0.8637 -0.5101
    7MOL   H670 5242   6.407   1.996   5.097 -0.4404  0.3681 -0.1359
    7MOL   H671 5243   6.464   2.147   5.039 -1.8895  0.8846  1.3094
    7MOL   H672 5244   6.442   2.340   5.145 -0.6099 -0.5977 -1.3659
    7MOL   H673 5245   6.235   2.364   5.347  1.7630 -0.7715  0.7810
    7MOL   H674 5246   6.398   2.437   5.352  2.2099 -0.4225 -2.6851
    7MOL   H675 5247   6.182   2.496   5.156 -0.5030  2.7687 -2.3792
    7MOL   H676 5248   6.234   2.606   5.289  2.7063 -0.8198  2.2776
    7MOL   H677 5249   6.433   2.562   5.069  0.1657 -0.8105  1.1180
    7MOL   H678 5250   6.428   2.669   5.210  0.3012  0.7058  0.5673
    7MOL   H679 5251   6.306   2.710   4.956 -0.7688 -1.5003  0.6208
    7MOL   H680 5252   6.197   2.749   5.082 -0.4972  0.0230 -1.2216
    7MOL   H681 5253   6.481   2.850   5.086  0.1749  0.7487 -0.2884
    7MOL   H682 5254   6.349   2.918   4.990  0.1314 -2.3427 -0.6183
    7MOL   H683 5255   6.235   3.002   5.186 -0.3915 -1.7843 -4.0419
    7MOL   H684 5256   6.408   3.033   5.224  1.0003 -2.0506  0.7576
    7MOL   H685 5257   6.289   2.769   5.294  0.0729  0.7763 -2.5747
    7MOL   C686 5258   6.347   2.902   5.451  0.0555  0.4283 -0.1962
    7MOL   O687 5259   6.382   3.019   5.476  0.0235 -0.1433  0.0219
    7MOL   C688 5260   6.346   2.798   5.563  0.9293  0.0803  0.2805
    7MOL   C689 5261   6.482   2.774   5.633  0.6011  0.7116 -0.4233
    7MOL   C690 5262   6.449   2.707   5.765 -0.4870  0.3496  0.1771
    7MOL   C691 5263   6.584   2.638   5.809 -0.4087  0.2392  0.2486
    7MOL   C692 5264   6.586   2.597   5.951 -0.0834  0.4400 -0.6884
    7MOL   O693 5265   6.485   2.549   6.008 -0.0265  0.2791  0.5185
    7MOL   N694 5266   6.700   2.614   6.023  0.0788  0.4259  0.3286
    7MOL   C695 5267   6.737   2.562   6.147 -0.0814  0.0778 -0.2501
    7MOL   C696 5268   6.807   2.665   6.242 -0.0421  0.5291 -0.2499
    7MOL   C697 5269   6.719   2.782   6.299 -0.4377 -0.1597  0.7893
    7MOL   C698 5270   6.799   2.909   6.336  0.7711  0.0473 -0.0276
    7MOL   C699 5271   6.895   2.876   6.448  0.5282  0.5518 -0.1199
    7MOL   C700 5272   6.956   2.997   6.516  0.0403  0.2870  0.3153
    7MOL   N701 5273   7.041   2.943   6.618 -0.0677 -0.0067 -0.0410
    7MOL   H702 5274   6.286   2.846   5.641  1.5800  1.7272 -0.2097
    7MOL   H703 5275   6.291   2.710   5.531 -0.3852  1.3658 -1.0662
    7MOL   H704 5276   6.547   2.708   5.575  1.8423  1.3312  0.2405
    7MOL   H705 5277   6.549   2.860   5.640  0.6899  0.7710 -1.8401
    7MOL   H706 5278   6.366   2.636   5.771  1.2711 -1.6875  1.1300
    7MOL   H707 5279   6.411   2.784   5.832  0.0943 -0.3423  1.3131
    7MOL   H708 5280   6.667   2.706   5.792  1.5746 -1.2048  3.6753
    7MOL   H709 5281   6.601   2.553   5.743  1.3459  1.8494 -1.4271
    7MOL   H710 5282   6.779   2.635   5.964  1.5147 -2.4405  1.1534
    7MOL   H711 5283   6.657   2.511   6.199  0.3971 -0.4586 -0.0329
    7MOL   H712 5284   6.801   2.475   6.129 -0.9370 -0.5007 -0.4852
    7MOL   H713 5285   6.842   2.607   6.327  0.9194  1.5556  0.0769
    7MOL   H714 5286   6.889   2.723   6.198 -1.3676  3.0181  0.4967
    7MOL   H715 5287   6.659   2.745   6.382 -4.3776  0.6217 -1.5944
    7MOL   H716 5288   6.641   2.798   6.224  0.3264  2.2385  0.4818
    7MOL   H717 5289   6.837   2.955   6.245 -0.9259  2.0965  0.2681
    7MOL   H718 5290   6.728   2.981   6.376 -0.9386 -1.6077  0.0045
    7MOL   H719 5291   6.837   2.814   6.517  1.0795  0.5801  0.3735
    7MOL   H720 5292   6.972   2.810   6.410  0.7150  0.5587  0.2423
    7MOL   H721 5293   6.885   3.055   6.575 -0.4413  1.6721 -1.5593
    7MOL   H722 5294   7.000   3.063   6.441  2.3534  3.0232  3.9066
    7MOL   H723 5295   7.007   2.926   6.711  0.7988  1.4500  0.5528
    7MOL   C724 5296   7.173   2.941   6.608  0.3144  0.6465 -0.0681
    7MOL   O725 5297   7.225   2.970   6.499  0.4053 -0.5105 -0.1341
    7MOL   C726 5298   7.254   2.906   6.736  0.7579 -0.0360  0.6959
    7MOL   C727 5299   7.349   3.016   6.773 -0.5111 -0.2998 -0.1939
    7MOL   C728 5300   7.271   3.143   6.820  0.3516 -0.4767  0.4153
    7MOL   C729 5301   7.355   3.264   6.868 -0.0922 -0.4520  0.2909
    7MOL   C730 5302   7.277   3.343   6.975 -0.7936 -0.5459  0.3968
    7MOL   O731 5303   7.266   3.297   7.086  0.2098 -0.2418 -0.0782
    7MOL   N732 5304   7.233   3.465   6.938 -0.3340  0.4206 -0.2040
    7MOL   C733 5305   7.154   3.555   7.028 -0.0695  0.2119  0.4582
    7MOL   C734 5306   7.002   3.542   7.012 -0.9570  0.2857 -0.3276
    7MOL   C735 5307   6.916   3.635   7.109 -0.0969 -0.0103 -0.0109
    7MOL   C736 5308   6.935   3.599   7.263  0.8126  0.0338  0.2959
    7MOL   C737 5309   6.850   3.672   7.367 -0.2185  0.3886  0.1253
    7MOL   C738 5310   6.898   3.649   7.513  0.4408 -0.2983  0.2837
    7MOL   N739 5311   6.912   3.505   7.534 -0.3319  0.3471 -0.3402
    7MOL   H740 5312   7.188   2.881   6.819  0.1720  0.9332  0.5240
    7MOL   H741 5313   7.319   2.821   6.715  1.9154  1.6994 -3.2119
    7MOL   H742 5314   7.408   2.981   6.858  1.2115 -2.3407 -2.1632
    7MOL   H743 5315   7.422   3.049   6.698 -1.1568  1.3216 -0.1163
    7MOL   H744 5316   7.200   3.113   6.897  0.6243 -4.3188 -0.7186
    7MOL   H745 5317   7.203   3.177   6.741 -1.1567 -1.0791  1.4378
    7MOL   H746 5318   7.383   3.339   6.793 -0.6060 -0.0456  0.5074
    7MOL   H747 5319   7.442   3.223   6.920 -0.6850 -1.3349  0.6017
    7MOL   H748 5320   7.246   3.488   6.841  1.0814 -1.3055 -0.4509
    7MOL   H749 5321   7.180   3.541   7.133  1.4657 -0.3243  0.0224
    7MOL   H750 5322   7.189   3.656   7.006  3.3024 -0.1656  3.5862
    7MOL   H751 5323   6.969   3.568   6.911  1.4722  1.1125 -0.9405
    7MOL   H752 5324   6.972   3.438   7.022  0.4325 -0.0707  0.1966
    7MOL   H753 5325   6.809   3.633   7.086 -0.2436 -2.3303  0.7714
    7MOL   H754 5326   6.948   3.737   7.088  0.3131 -0.0754  0.2871
    7MOL   H755 5327   6.921   3.491   7.275 -1.6878  0.2780 -0.1317
    7MOL   H756 5328   7.036   3.629   7.290  0.8403  2.2535 -2.1472
    7MOL   H757 5329   6.851   3.777   7.337 -1.2115 -0.3458 -2.6422
    7MOL   H758 5330   6.753   3.623   7.355 -0.4830  0.3584  2.2509
    7MOL   H759 5331   6.829   3.681   7.591  0.5287  1.3727 -0.3031
    7MOL   H760 5332   6.998   3.685   7.534  1.4588 -2.0059 -1.4259
    7MOL   H761 5333   6.971   3.503   7.616 -0.7542 -0.1686 -0.0453
    7MOL   H762 5334   6.970   3.473   7.458 -0.6037 -3.1177  0.8213
    8MOL     C1 5335   3.779   3.102   7.545  0.1821 -0.5540 -0.0726
    8MOL     O2 5336   3.776   3.194   7.626 -0.1089  0.0894  0.1172
    8MOL     C3 5337   3.779   3.134   7.394 -0.0551 -0.5418 -0.0089
    8MOL     C4 5338   3.925   3.159   7.347 -0.5184 -0.0963 -0.1413
    8MOL     C5 5339   3.942   3.204   7.198 -0.3050  0.5433  0.4661
    8MOL     C6 5340   3.867   3.334   7.169 -0.3549 -0.8436 -0.1316
    8MOL     C7 5341   3.872   3.368   7.020  0.2208 -0.1250 -0.3788
    8MOL     O8 5342   3.866   3.276   6.947 -0.1153  0.1723  0.1225
    8MOL     N9 5343   3.873   3.500   6.984 -0.1536 -0.2239  1.1917
    8MOL    C10 5344   3.857   3.556   6.851 -0.6531 -0.0043  0.2672
    8MOL    C11 5345   3.845   3.710   6.859 -0.2215  0.0898  0.1094
    8MOL    C12 5346   3.818   3.762   6.716 -0.0563 -0.1125 -0.1330
    8MOL    C13 5347   3.767   3.899   6.699 -0.6993  0.1376 -0.8388
    8MOL    C14 5348   3.624   3.922   6.761 -0.0717  0.3318 -0.0372
    8MOL    C15 5349   3.578   4.066   6.740 -0.0925 -0.6833  0.4919
    8MOL    N16 5350   3.444   4.088   6.799 -0.2625  0.2035  0.5114
    8MOL    H17 5351   3.738   3.044   7.349  2.7043 -1.2239 -1.2233
    8MOL    H18 5352   3.708   3.216   7.381  0.6691  0.1529  0.3299
    8MOL    H19 5353   3.944   3.236   7.422 -0.7248 -2.1074  2.0182
    8MOL    H20 5354   3.987   3.072   7.367 -0.7584 -0.4594 -0.9060
    8MOL    H21 5355   3.912   3.128   7.126  1.3218  0.6938 -0.4041
    8MOL    H22 5356   4.047   3.223   7.175 -0.0586 -1.5261 -0.2899
    8MOL    H23 5357   3.909   3.410   7.235  2.0688 -1.9441 -0.3598
    8MOL    H24 5358   3.758   3.326   7.175 -0.5264  1.3986  0.2238
    8MOL    H25 5359   3.850   3.569   7.054  0.0237  1.4794 -0.3860
    8MOL    H26 5360   3.942   3.531   6.788  0.3247 -1.4608  2.0994
    8MOL    H27 5361   3.771   3.515   6.797 -0.6600 -0.5163  0.6648
    8MOL    H28 5362   3.756   3.724   6.921  0.1176 -1.3712  0.9442
    8MOL    H29 5363   3.921   3.768   6.911  2.1200  0.0492 -3.1653
    8MOL    H30 5364   3.745   3.698   6.666  1.0164 -1.2921 -0.2285
    8MOL    H31 5365   3.916   3.749   6.671 -0.1557 -1.3754 -0.0179
    8MOL    H32 5366   3.833   3.964   6.756  0.8389 -2.6725  0.6723
    8MOL    H33 5367   3.768   3.916   6.591 -1.2728  0.3132 -0.8181
    8MOL    H34 5368   3.552   3.852   6.719  0.5338 -0.7607  0.7219
    8MOL    H35 5369   3.623   3.903   6.869 -2.2697 -1.1548 -0.3036
    8MOL    H36 5370   3.577   4.087   6.633 -0.2998  2.4218  1.0508
    8MOL    H37 5371   3.651   4.139   6.774  2.2818 -3.0516  0.5734
    8MOL    H38 5372   3.393   4.005   6.824 -0.8309  0.1880 -0.6621
    8MOL    H39 5373   3.782   2.996   7.569  1.3977 -1.0241 -2.1888
    8MOL    C40 5374   3.419   4.185   6.891  1.0763  0.3788  0.4873
    8MOL    O41 5375   3.482   4.291   6.903  0.7065 -0.1442 -0.8428
    8MOL    C42 5376   3.300   4.160   6.988 -0.4903 -0.3895  0.3807
    8MOL    C43 5377   3.199   4.285   6.990 -0.2341  0.2360  0.0115
    8MOL    C44 5378   3.200   4.360   7.124  0.1036  0.1962 -0.1216
    8MOL    C45 5379   3.336   4.426   7.151  0.5860 -0.6798  0.1888
    8MOL    C46 5380   3.341   4.509   7.274 -0.3227 -0.2875 -0.4588
    8MOL    O47 5381   3.260   4.598   7.291 -0.6938  0.3069  0.0705
    8MOL    N48 5382   3.438   4.475   7.362  0.2929  0.5293  0.3658
    8MOL    C49 5383   3.422   4.515   7.504  0.9261  0.0001  0.1589
    8MOL    C50 5384   3.455   4.406   7.608  0.0672 -0.3543  0.4202
    8MOL    C51 5385   3.458   4.475   0.039 -0.3848 -0.4980 -0.6549
    8MOL    C52 5386   3.454   4.388   0.165 -0.0715 -0.0174  0.6471
    8MOL    C53 5387   3.317   4.328   0.202  0.4681  0.0359  0.0450
    8MOL    C54 5388   3.315   4.210   0.303 -0.3329  0.1565 -0.5943
    8MOL    N55 5389   3.181   4.150   0.317  0.2551  0.8256 -0.2179
    8MOL    H56 5390   3.249   4.073   6.945  0.5216 -1.2743  0.9555
    8MOL    H57 5391   3.338   4.133   7.086  1.2647 -0.8970 -0.4111
    8MOL    H58 5392   3.220   4.360   6.914  1.9439  0.5108  0.8532
    8MOL    H59 5393   3.097   4.250   6.973 -0.8490  1.5800  0.8393
    8MOL    H60 5394   3.185   4.281   7.197  0.0046  0.3470  0.0206
    8MOL    H61 5395   3.108   4.419   7.128  0.8743  1.3373  1.2936
    8MOL    H62 5396   3.362   4.492   7.067  1.1382 -0.4690  0.5216
    8MOL    H63 5397   3.411   4.347   7.155  2.1379  0.8271  1.8854
    8MOL    H64 5398   3.497   4.398   7.333 -2.0513 -0.3054 -2.3785
    8MOL    H65 5399   3.483   4.603   7.522 -1.3317  1.8540 -0.9325
    8MOL    H66 5400   3.329   4.566   7.530  1.6641  1.3726  0.1313
    8MOL    H67 5401   3.379   4.328   7.614  0.1259 -0.4372  0.0933
    8MOL    H68 5402   3.552   4.361   7.589 -0.9827 -2.0421 -1.1832
    8MOL    H69 5403   3.371   4.540   0.046  0.0662  0.2070 -1.4411
    8MOL    H70 5404   3.541   4.544   0.056 -0.0365 -1.1770  0.4656
    8MOL    H71 5405   3.533   4.313   0.166  0.2137  0.2841  1.2015
    8MOL    H72 5406   3.486   4.441   0.255 -1.8959  2.3341 -0.0437
    8MOL    H73 5407   3.247   4.407   0.227  2.6848  1.9278  0.4594
    8MOL    H74 5408   3.275   4.289   0.109  0.5002  1.0180 -0.3826
    8MOL    H75 5409   3.347   4.242   0.402 -1.9918  0.0915 -0.0294
    8MOL    H76 5410   3.388   4.135   0.272 -0.3495  0.4726 -1.4334
    8MOL    H77 5411   3.110   4.163   0.246  2.0612  0.0601 -2.1848
    8MOL    C78 5412   3.149   4.048   0.400  0.0632 -0.6731  0.1142
    8MOL    O79 5413   3.226   4.007   0.489 -0.0025 -0.1052  0.6755
    8MOL    C80 5414   3.009   3.985   0.383  0.2177 -0.0168 -0.4508
    8MOL    C81 5415   2.947   3.926   0.506  0.1425 -0.0256  0.1515
    8MOL    C82 5416   2.880   4.015   0.605  0.1624  0.8425  0.4258
    8MOL    C83 5417   2.725   4.004   0.616 -0.3209  0.2845  0.1914
    8MOL    C84 5418   2.656   4.016   0.482  0.2708  0.6216  0.3320
    8MOL    O85 5419   2.655   3.923   0.401 -0.0501  0.3707 -0.2646
    8MOL    N86 5420   2.595   4.130   0.466 -0.3495 -0.0220 -0.0534
    8MOL    C87 5421   2.516   4.156   0.344 -0.3795  0.0109  0.0902
    8MOL    C88 5422   2.435   4.294   0.355  0.1300 -0.8435  0.7193
    8MOL    C89 5423   2.375   4.328   0.215 -0.0131 -0.6156  0.3996
    8MOL    C90 5424   2.320   4.472   0.217  0.0183  0.2282 -0.5158
    8MOL    C91 5425   2.260   4.510   0.081  0.1858  0.1913  0.6069
    8MOL    C92 5426   2.205   4.655   0.083  0.4500 -0.2504  0.5840
    8MOL    N93 5427   2.152   4.706   7.661  0.1991  0.2375 -0.6392
    8MOL    H94 5428   2.951   4.068   0.344 -1.9386 -0.3779  1.8574
    8MOL    H95 5429   3.015   3.906   0.308 -0.6744 -0.0825 -0.4595
    8MOL    H96 5430   2.882   3.845   0.473 -1.0254  0.7358  0.5568
    8MOL    H97 5431   3.030   3.882   0.560  1.8257 -0.5695 -2.8106
    8MOL    H98 5432   2.920   4.116   0.594  1.4929  0.1091 -1.8453
    8MOL    H99 5433   2.914   3.978   0.701  1.3321 -0.7917 -0.6125
    8MOL   H100 5434   2.693   4.087   0.678 -0.3887  0.1530  0.3339
    8MOL   H101 5435   2.701   3.910   0.666 -1.4505  0.0797 -0.7134
    8MOL   H102 5436   2.591   4.203   0.536 -3.0023  0.2016 -0.3876
    8MOL   H103 5437   2.580   4.132   0.259  2.3367  0.3453  1.9608
    8MOL   H104 5438   2.436   4.083   0.351  0.0476 -0.4756 -0.0844
    8MOL   H105 5439   2.350   4.292   0.423 -0.8995  0.3626 -0.4837
    8MOL   H106 5440   2.512   4.362   0.390  1.9748 -2.1875 -0.5754
    8MOL   H107 5441   2.293   4.257   0.201  0.9660 -1.6610 -0.0542
    8MOL   H108 5442   2.447   4.319   0.134 -1.1325  0.9987 -0.8190
    8MOL   H109 5443   2.244   4.479   0.294 -0.9858 -2.1319 -1.2278
    8MOL   H110 5444   2.397   4.543   0.248 -2.8983  2.8305  0.9510
    8MOL   H111 5445   2.342   4.505   0.009  1.0775  0.7101  1.5704
    8MOL   H112 5446   2.182   4.442   0.048  0.5717 -0.6943  1.5168
    8MOL   H113 5447   2.286   4.727   0.095  0.3077 -0.2673  1.6771
    8MOL   H114 5448   2.129   4.661   0.161 -2.1331  1.8069 -1.9783
    8MOL   H115 5449   2.205   4.688   7.578 -0.9771  0.5442 -1.4692
    8MOL   C116 5450   2.024   4.746   7.647 -0.0594 -0.0050  0.2395
    8MOL   O117 5451   1.959   4.798   0.029  0.7392  0.5910 -0.5549
    8MOL   C118 5452   1.961   4.732   7.512  0.9352  0.2335 -0.8314
    8MOL   C119 5453   1.856   4.618   7.511  0.3937 -0.3713 -0.0608
    8MOL   C120 5454   1.907   4.484   7.486 -0.2823 -0.3576  0.0026
    8MOL   C121 5455   1.974   4.469   7.345  0.3147  0.2348  0.3221
    8MOL   C122 5456   1.887   4.390   7.245  0.7027  0.0140  0.1029
    8MOL   O123 5457   1.818   4.449   7.164  0.2213 -0.6460 -0.1319
    8MOL   N124 5458   1.882   4.257   7.266  0.0967 -0.2658  0.1339
    8MOL   C125 5459   1.777   4.170   7.218  0.8934  0.8733 -0.1600
    8MOL   C126 5460   1.832   4.094   7.098  0.8035 -0.0260  0.6216
    8MOL   C127 5461   1.723   4.001   7.037  0.3303 -0.1781  0.5450
    8MOL   C128 5462   1.786   3.865   6.981 -0.1703  0.2554  0.6432
    8MOL   C129 5463   1.882   3.891   6.861 -0.6738 -0.0560  0.1219
    8MOL   C130 5464   1.902   3.773   6.765 -0.4178  1.0320  0.7249
    8MOL   N131 5465   2.009   3.800   6.668  0.0567 -0.0079  0.2811
    8MOL   H132 5466   1.915   4.829   7.493  0.3988  0.5301  1.8534
    8MOL   H133 5467   2.043   4.720   7.441  0.8495 -0.6858 -0.7790
    8MOL   H134 5468   1.785   4.623   7.594 -1.9084 -0.8642 -1.9663
    8MOL   H135 5469   1.795   4.653   7.428 -0.1607 -1.7481 -0.2507
    8MOL   H136 5470   1.840   4.402   7.510 -1.8205  1.8274  3.5454
    8MOL   H137 5471   1.981   4.462   7.562 -0.7280 -0.9019  0.2797
    8MOL   H138 5472   2.077   4.432   7.344  0.2644  0.0749 -2.5562
    8MOL   H139 5473   1.981   4.563   7.290  1.4809 -0.7125 -1.1792
    8MOL   H140 5474   1.942   4.225   7.342  2.8038  2.7165 -0.6488
    8MOL   H141 5475   1.755   4.085   7.282 -0.3886 -0.9425 -2.9393
    8MOL   H142 5476   1.687   4.220   7.183 -0.1160 -0.6657  0.2143
    8MOL   H143 5477   1.867   4.170   7.027 -0.1850 -0.0754  0.0833
    8MOL   H144 5478   1.933   4.059   7.118  0.9644 -1.5553 -2.5542
    8MOL   H145 5479   1.679   4.061   6.957  0.7686 -1.2741 -0.5359
    8MOL   H146 5480   1.641   3.980   7.106  0.4370 -0.5994  0.5476
    8MOL   H147 5481   1.826   3.791   7.050  1.7082  0.3018 -0.3433
    8MOL   H148 5482   1.698   3.810   6.949 -1.0233 -1.0562  4.9650
    8MOL   H149 5483   1.840   3.971   6.800 -1.6153  0.2995  1.2207
    8MOL   H150 5484   1.979   3.928   6.897 -0.4966  0.3140 -0.7195
    8MOL   H151 5485   1.819   3.739   6.702  0.8394  0.3945 -0.6133
    8MOL   H152 5486   1.920   3.686   6.827  1.4699  1.9692  1.5106
    8MOL   H153 5487   1.976   3.818   6.574  1.0706  0.6023  0.0317
    8MOL   C154 5488   2.140   3.817   6.692 -0.0017 -0.7610  0.0620
    8MOL   O155 5489   2.193   3.790   6.801  0.0534  0.4783 -0.4622
    8MOL   C156 5490   2.216   3.864   6.572 -0.2057 -0.0685 -0.2326
    8MOL   C157 5491   2.355   3.920   6.602  0.5023 -0.1111  0.2148
    8MOL   C158 5492   2.369   4.054   6.677  0.9125 -0.7728  0.1928
    8MOL   C159 5493   2.508   4.108   6.711 -0.3660 -0.5795  0.8102
    8MOL   C160 5494   2.589   4.166   6.591 -0.1625 -0.3244  0.5401
    8MOL   O161 5495   2.656   4.093   6.522 -0.7635 -0.0782  0.4265
    8MOL   N162 5496   2.598   4.298   6.565  0.6958  0.2825  0.6104
    8MOL   C163 5497   2.529   4.415   6.617  0.8963 -0.6419  0.4637
    8MOL   C164 5498   2.595   4.466   6.747 -0.1121  0.2536 -0.1117
    8MOL   C165 5499   2.544   4.604   6.788  0.3579  0.2059  0.3647
    8MOL   C166 5500   2.575   4.647   6.926 -0.8689  0.1322 -0.3965
    8MOL   C167 5501   2.705   4.728   6.932 -0.3258 -0.3167  0.2291
    8MOL   C168 5502   2.770   4.748   7.077  0.0193 -0.1766 -0.4784
    8MOL   N169 5503   2.804   4.620   7.135  0.2087 -0.0427  0.1799
    8MOL   H170 5504   2.235   3.778   6.507 -2.3167 -2.1417  1.7673
    8MOL   H171 5505   2.169   3.940   6.510  2.4927  1.8233 -0.0506
    8MOL   H172 5506   2.409   3.845   6.659  2.7969  0.5193 -1.0546
    8MOL   H173 5507   2.390   3.935   6.500  1.9432  1.0988  0.8722
    8MOL   H174 5508   2.322   4.037   6.774 -0.7402 -2.9986 -0.9573
    8MOL   H175 5509   2.307   4.128   6.627  1.5751  0.0010  0.5026
    8MOL   H176 5510   2.579   4.040   6.757  3.0684  0.7638 -2.2259
    8MOL   H177 5511   2.496   4.188   6.783  0.6063  0.5166 -0.2214
    8MOL   H178 5512   2.653   4.319   6.483 -0.8956  1.2635 -0.2357
    8MOL   H179 5513   2.542   4.505   6.557 -1.3235  0.0581  0.9840
    8MOL   H180 5514   2.423   4.401   6.635  0.2604  2.0995 -0.9122
    8MOL   H181 5515   2.577   4.389   6.822 -0.1774 -0.3385 -0.7289
    8MOL   H182 5516   2.703   4.479   6.738 -0.3409  1.1711 -1.8412
    8MOL   H183 5517   2.436   4.614   6.772 -0.0366 -3.6767  0.2383
    8MOL   H184 5518   2.583   4.673   6.714 -0.5089 -0.0088 -0.3004
    8MOL   H185 5519   2.496   4.717   6.955  0.1607  1.2294 -0.1858
    8MOL   H186 5520   2.574   4.564   6.996  0.3011  1.4409  1.2295
    8MOL   H187 5521   2.771   4.678   6.862 -0.4688  1.2085 -1.0306
    8MOL   H188 5522   2.688   4.826   6.888 -0.2727 -0.8046 -0.8997
    8MOL   H189 5523   2.702   4.792   7.150  0.2062 -0.8582  0.1146
    8MOL   H190 5524   2.863   4.805   7.081  0.1580 -0.4518  0.3249
    8MOL   H191 5525   2.842   4.560   7.063  0.2338  2.5527 -2.0137
    8MOL   C192 5526   2.805   4.590   7.265 -0.0706  0.3045  0.4579
    8MOL   O193 5527   2.762   4.667   7.349 -0.0401  0.1837  0.5373
    8MOL   C194 5528   2.864   4.457   7.308 -0.1662 -0.9653  0.0030
    8MOL   C195 5529   2.960   4.462   7.428 -0.3039  0.4728 -0.3025
    8MOL   C196 5530   2.970   4.318   7.491  0.0496  0.0928 -0.2605
    8MOL   C197 5531   3.093   4.302   7.592 -0.5115  0.6673  0.3580
    8MOL   C198 5532   3.079   4.173   7.675  0.0576 -0.0248  0.4966
    8MOL   O199 5533   3.019   4.178   0.073 -0.8051 -0.1381  0.0647
    8MOL   N200 5534   3.133   4.056   7.636  0.3651 -0.0359  0.5656
    8MOL   C201 5535   3.143   3.918   7.688 -0.5848 -0.2577 -0.4802
    8MOL   C202 5536   3.275   3.902   0.044 -0.5001  0.3295  0.1056
    8MOL   C203 5537   3.283   3.786   0.147  0.4610 -0.6816  1.2490
    8MOL   C204 5538   3.410   3.793   0.230  0.6097 -0.5145  0.1512
    8MOL   C205 5539   3.415   3.671   0.323  0.4508 -0.7166 -0.2348
    8MOL   C206 5540   3.532   3.685   0.426 -0.4502  0.0060 -0.6784
    8MOL   N207 5541   3.655   3.668   0.351  0.2959  0.5360 -0.4844
    8MOL   H208 5542   2.769   4.412   7.339  0.3365 -0.7182  1.9824
    8MOL   H209 5543   2.901   4.393   7.228 -1.3532 -0.0405 -1.3062
    8MOL   H210 5544   3.057   4.503   7.400 -1.1029  1.4237 -1.7215
    8MOL   H211 5545   2.924   4.534   7.502 -1.0145  0.3764 -0.5490
    8MOL   H212 5546   2.988   4.239   7.417 -0.6156  0.9902 -1.4000
    8MOL   H213 5547   2.882   4.290   7.548 -0.8380 -2.7364 -2.8538
    8MOL   H214 5548   3.085   4.382   7.667  0.6988 -0.0818  1.3031
    8MOL   H215 5549   3.190   4.311   7.543  0.2240 -0.1861  1.6266
    8MOL   H216 5550   3.167   4.057   7.541 -1.6985 -0.0694 -0.2027
    8MOL   H217 5551   3.060   3.902   0.048 -0.5759  2.4022  0.2240
    8MOL   H218 5552   3.119   3.845   7.611 -1.2802 -0.7177  0.1694
    8MOL   H219 5553   3.347   3.872   7.676  2.8889  2.1300  2.4542
    8MOL   H220 5554   3.319   3.992   0.088  0.8379  0.1870 -0.9190
    8MOL   H221 5555   3.272   3.690   0.096  0.2744  0.4116 -0.8448
    8MOL   H222 5556   3.192   3.804   0.204 -0.5622  1.2955 -0.9384
    8MOL   H223 5557   3.505   3.791   0.176  2.1460 -0.9691  2.7821
    8MOL   H224 5558   3.404   3.892   0.275 -1.0339 -0.4985 -0.0677
    8MOL   H225 5559   3.322   3.670   0.379  1.4928 -1.5154  1.4949
    8MOL   H226 5560   3.413   3.578   0.267 -0.1268  1.1025 -3.3881
    8MOL   H227 5561   3.534   3.601   0.496  2.7227  1.9997  1.8318
    8MOL   H228 5562   3.522   3.780   0.478  2.0105 -0.4382  0.7264
    8MOL   H229 5563   3.673   3.576   0.312  0.6589  0.1676  0.5353
    8MOL   C230 5564   3.752   3.761   0.346  0.6075 -0.1598 -0.0485
    8MOL   O231 5565   3.732   3.870   0.394 -0.2422  0.3140 -0.1244
    8MOL   C232 5566   3.880   3.732   0.278 -0.0294 -0.1517 -0.8398
    8MOL   C233 5567   4.003   3.772   0.357  0.3838  0.3054 -0.3024
    8MOL   C234 5568   4.135   3.725   0.293 -0.8452 -0.5374 -0.0102
    8MOL   C235 5569   4.252   3.792   0.366 -1.2054  0.5809  0.0046
    8MOL   C236 5570   4.394   3.772   0.311  0.4462 -0.2748 -0.3535
    8MOL   O237 5571   4.411   3.760   0.190 -0.0249  0.3327  0.3740
    8MOL   N238 5572   4.495   3.787   0.395  0.8060 -0.0844  0.6998
    8MOL   C239 5573   4.634   3.742   0.370 -0.2808  0.2817  0.3602
    8MOL   C240 5574   4.707   3.841   0.276  0.4345 -1.5686  0.0075
    8MOL   C241 5575   4.857   3.832   0.270 -0.2114 -0.3949  0.1844
    8MOL   C242 5576   4.931   3.866   0.141 -0.4243  0.2450  0.3768
    8MOL   C243 5577   4.980   3.732   0.079 -0.0700  0.0306  0.5329
    8MOL   C244 5578   5.061   3.751   7.657  0.1091 -0.4655  0.1387
    8MOL   N245 5579   5.093   3.624   7.600 -0.1705 -0.3866  0.2442
    8MOL   H246 5580   3.888   3.625   0.257  1.4694 -0.7463  2.3912
    8MOL   H247 5581   3.877   3.780   0.181 -2.5430 -3.4600 -2.5058
    8MOL   H248 5582   4.002   3.878   0.379 -1.6815  0.2901 -0.2167
    8MOL   H249 5583   4.002   3.737   0.460  0.1852  1.6330  0.1529
    8MOL   H250 5584   4.146   3.751   0.188 -0.2642 -0.8641 -0.0317
    8MOL   H251 5585   4.148   3.617   0.294  0.6941 -0.3680 -0.5885
    8MOL   H252 5586   4.250   3.759   0.470  1.0220  1.8953  0.4877
    8MOL   H253 5587   4.227   3.898   0.370 -1.5164  0.5836 -1.8738
    8MOL   H254 5588   4.462   3.801   0.489  3.0511  0.7950  1.3953
    8MOL   H255 5589   4.688   3.737   0.464 -0.3151 -3.0890  0.2633
    8MOL   H256 5590   4.629   3.638   0.336  0.6822 -0.8469  3.5112
    8MOL   H257 5591   4.664   3.838   0.176 -0.9087 -0.5449  0.5418
    8MOL   H258 5592   4.691   3.944   0.309 -1.7918 -1.6941 -0.6161
    8MOL   H259 5593   4.891   3.732   0.297  0.1244 -0.5727 -0.8448
    8MOL   H260 5594   4.895   3.905   0.341  1.8935 -2.1650  0.9599
    8MOL   H261 5595   4.863   3.915   0.071 -0.5653  2.0537  1.7618
    8MOL   H262 5596   5.006   3.944   0.134  0.2121 -0.0858  2.8915
    8MOL   H263 5597   5.039   3.671   0.147 -0.0286 -1.1588 -0.5569
    8MOL   H264 5598   4.889   3.674   0.069  0.9273 -1.3312 -0.8378
    8MOL   H265 5599   5.154   3.803   7.681 -0.1584 -0.5921  1.4896
    8MOL   H266 5600   4.994   3.800   7.586 -0.5400 -0.1514  0.9537
    8MOL   H267 5601   5.038   3.602   7.518  0.2094  1.4813 -0.5457
    8MOL   C268 5602   5.179   3.534   7.644  0.0548  0.1362  0.3427
    8MOL   O269 5603   5.251   3.552   0.030  0.0824  0.8588 -0.3732
    8MOL   C270 5604   5.170   3.404   7.572 -0.1227 -0.2880  0.6571
    8MOL   C271 5605   5.196   3.271   7.657 -0.0708 -0.0458  0.2873
    8MOL   C272 5606   5.073   3.192   7.689  0.3139  0.0813  0.3493
    8MOL   C273 5607   5.009   3.244   0.110 -0.3631 -0.4618  0.3082
    8MOL   C274 5608   5.054   3.180   0.244  0.0142 -0.5485 -0.3891
    8MOL   O275 5609   5.158   3.119   0.257 -0.4596 -0.2608 -0.4276
    8MOL   N276 5610   4.980   3.201   0.351  0.1106 -0.3535  0.3210
    8MOL   C277 5611   5.015   3.165   0.491 -0.1660  0.3033  0.1296
    8MOL   C278 5612   5.060   3.288   0.567  0.3165  0.0300  0.0480
    8MOL   C279 5613   5.087   3.261   0.711 -0.0310  0.1688  0.3348
    8MOL   C280 5614   5.160   3.381   0.775  0.3548 -0.1829 -0.7236
    8MOL   C281 5615   5.306   3.379   0.745  0.1488  0.3190  0.1786
    8MOL   C282 5616   5.376   3.510   0.777  0.1023 -0.9883 -0.0981
    8MOL   N283 5617   5.514   3.498   0.732 -0.7399  0.4175 -0.2819
    8MOL   H284 5618   5.083   3.401   7.506 -0.8886  0.8816  1.5864
    8MOL   H285 5619   5.256   3.419   7.506  0.4256 -1.6478  1.0424
    8MOL   H286 5620   5.267   3.213   7.598  1.0091 -0.0787  1.5864
    8MOL   H287 5621   5.256   3.287   0.038  0.1008 -2.2206  0.5715
    8MOL   H288 5622   5.088   3.084   7.702  0.8481  0.0941 -0.1010
    8MOL   H289 5623   5.001   3.186   7.608 -0.7869  1.2323  1.2406
    8MOL   H290 5624   4.904   3.216   0.105 -0.2089 -0.8129 -1.5865
    8MOL   H291 5625   5.003   3.353   0.117  1.3056 -0.2382 -1.3058
    8MOL   H292 5626   4.894   3.251   0.332  1.2953  1.7034  0.2459
    8MOL   H293 5627   4.925   3.143   0.548 -0.7580 -0.2487 -0.9916
    8MOL   H294 5628   5.081   3.079   0.504 -1.7774 -0.9455  0.1425
    8MOL   H295 5629   5.152   3.326   0.523 -2.9817  1.2493 -6.2339
    8MOL   H296 5630   4.989   3.369   0.555  0.3006 -0.0360 -0.2912
    8MOL   H297 5631   5.156   3.180   0.730 -2.2997 -1.5934  1.2992
    8MOL   H298 5632   4.991   3.241   0.760  0.9625 -1.4727  1.6340
    8MOL   H299 5633   5.108   3.470   0.740 -0.1961  0.0973  0.7384
    8MOL   H300 5634   5.154   3.379   0.884  2.7098  1.7740 -0.5067
    8MOL   H301 5635   5.366   3.297   0.786  1.2577  0.9091 -0.2242
    8MOL   H302 5636   5.323   3.374   0.637 -0.1056  0.1600  0.1458
    8MOL   H303 5637   5.374   3.541   0.882 -1.9795  4.1560 -1.4553
    8MOL   H304 5638   5.315   3.594   0.742 -2.5030 -2.0320  1.7227
    8MOL   H305 5639   5.531   3.500   0.633  0.7414 -1.9932 -0.1324
    8MOL   C306 5640   5.607   3.453   0.810 -0.0735 -0.1177 -0.0624
    8MOL   O307 5641   5.600   3.444   0.930  0.3127 -0.3297  0.2902
    8MOL   C308 5642   5.733   3.392   0.753  0.3311 -0.2995 -0.3575
    8MOL   C309 5643   5.813   3.502   0.676 -0.3139 -0.2358 -0.3634
    8MOL   C310 5644   5.884   3.620   0.743 -0.4670 -0.2207 -0.4295
    8MOL   C311 5645   6.008   3.664   0.673  0.2750  0.0738  0.0963
    8MOL   C312 5646   5.991   3.742   0.537  0.7930  0.1624 -0.3802
    8MOL   O313 5647   5.932   3.851   0.538 -0.1390  0.3646  0.1137
    8MOL   N314 5648   6.034   3.684   0.424 -0.8462 -0.1959 -0.5277
    8MOL   C315 5649   6.010   3.741   0.294 -0.4543 -0.2846  0.3418
    8MOL   C316 5650   6.036   3.639   0.186 -0.4237 -0.1422 -0.4716
    8MOL   C317 5651   6.003   3.678   0.046 -0.1065  0.4394  0.2213
    8MOL   C318 5652   6.035   3.569   7.649 -0.2500 -1.1794  0.0289
    8MOL   C319 5653   5.977   3.608   7.507  0.1189  0.0167 -0.2210
    8MOL   C320 5654   6.049   3.720   7.430  0.2720  0.6620  0.1900
    8MOL   N321 5655   6.040   3.713   7.287 -0.0743  0.5586  1.1419
    8MOL   H322 5656   5.794   3.350   0.833 -0.5545  1.9211  1.5660
    8MOL   H323 5657   5.707   3.319   0.677  0.1899  0.2225 -0.8151
    8MOL   H324 5658   5.894   3.438   0.639 -1.1203 -0.0616 -2.5284
    8MOL   H325 5659   5.763   3.526   0.582  0.0416 -0.2106 -0.5481
    8MOL   H326 5660   5.910   3.588   0.844  1.2293  1.0168 -0.4537
    8MOL   H327 5661   5.818   3.705   0.763  1.4500  0.7962  1.6681
    8MOL   H328 5662   6.077   3.580   0.672 -0.4876 -0.5505 -0.9564
    8MOL   H329 5663   6.061   3.734   0.738  0.1161  0.1099  0.1860
    8MOL   H330 5664   6.088   3.599   0.431  1.5707  1.2584 -1.0452
    8MOL   H331 5665   5.907   3.776   0.289 -0.4095 -0.0204  1.1573
    8MOL   H332 5666   6.067   3.833   0.280  0.5208 -0.8930  0.2272
    8MOL   H333 5667   6.144   3.620   0.186 -0.4828 -0.8312  2.9341
    8MOL   H334 5668   5.986   3.543   0.201  1.3822 -1.0059  0.1703
    8MOL   H335 5669   6.062   3.767   0.024  0.8809 -0.4015 -0.5769
    8MOL   H336 5670   5.898   3.704   0.057  0.0777  2.8150 -2.8788
    8MOL   H337 5671   6.140   3.544   7.631 -0.2226 -1.2077  0.2347
    8MOL   H338 5672   5.991   3.475   7.682 -0.4796 -0.4456  1.8757
    8MOL   H339 5673   5.982   3.510   7.458 -0.5970  0.2527 -0.7856
    8MOL   H340 5674   5.870   3.624   7.520  0.0826 -1.2553  1.2153
    8MOL   H341 5675   6.157   3.723   7.447  0.6131  0.2496 -1.7436
    8MOL   H342 5676   6.019   3.821   7.457 -0.7071  1.0951 -2.3915
    8MOL   H343 5677   6.089   3.641   7.234  1.7899  1.7624  1.1641
    8MOL   C344 5678   5.930   3.754   7.224 -0.1501  0.2594  0.0463
    8MOL   O345 5679   5.833   3.819   7.277 -0.7017 -0.5012 -0.1672
    8MOL   C346 5680   5.906   3.713   7.084 -0.8242  0.1545  0.2018
    8MOL   C347 5681   5.817   3.581   7.065  0.4198 -0.4390 -0.5275
    8MOL   C348 5682   5.786   3.560   6.919  0.3231  0.2433  0.1895
    8MOL   C349 5683   5.667   3.469   6.907  0.0064  0.0427 -0.8600
    8MOL   C350 5684   5.655   3.385   6.780  0.0450  0.2449  0.0776
    8MOL   O351 5685   5.736   3.387   6.690 -0.1241  0.6694 -0.3589
    8MOL   N352 5686   5.554   3.299   6.773 -0.2505  0.5625 -0.7156
    8MOL   C353 5687   5.519   3.206   6.659  0.6912  0.0853 -0.5596
    8MOL   C354 5688   5.419   3.090   6.688 -0.4888 -0.1414  0.0919
    8MOL   C355 5689   5.454   2.996   6.802 -0.2229 -0.1182  0.7215
    8MOL   C356 5690   5.339   2.910   6.848 -0.2615 -0.2518  0.0192
    8MOL   C357 5691   5.376   2.839   6.986  0.8600  0.5898 -0.1660
    8MOL   C358 5692   5.246   2.773   7.051 -0.9386 -0.1687  0.7406
    8MOL   N359 5693   5.265   2.731   7.190 -0.2367  0.2399 -0.2188
    8MOL   H360 5694   5.853   3.790   7.027  1.0533  1.3454  0.0381
    8MOL   H361 5695   6.000   3.688   7.035 -1.2276 -2.4421  0.6878
    8MOL   H362 5696   5.871   3.501   7.116  2.1248  2.5980  2.6582
    8MOL   H363 5697   5.722   3.583   7.117 -0.0497 -0.0611 -1.3938
    8MOL   H364 5698   5.873   3.512   6.875 -1.3859  0.1100 -3.1745
    8MOL   H365 5699   5.774   3.646   6.853  1.9590  0.3626  0.0292
    8MOL   H366 5700   5.573   3.521   6.927  0.1259  0.9798 -2.6909
    8MOL   H367 5701   5.673   3.403   6.994  2.4036  1.8676  0.4057
    8MOL   H368 5702   5.488   3.293   6.849 -0.0877 -2.1019 -0.7400
    8MOL   H369 5703   5.470   3.271   6.587 -0.1994  0.3590  0.2710
    8MOL   H370 5704   5.610   3.178   6.606  0.4582  0.3867 -1.1143
    8MOL   H371 5705   5.323   3.132   6.719  1.1785  2.7151  1.5218
    8MOL   H372 5706   5.408   3.042   6.591  0.5263  0.5456 -0.3734
    8MOL   H373 5707   5.488   3.054   6.888  3.0522 -0.0038 -0.5936
    8MOL   H374 5708   5.535   2.925   6.783  0.9730  0.4656  3.3761
    8MOL   H375 5709   5.254   2.972   6.875 -0.0141 -0.9287  2.4963
    8MOL   H376 5710   5.299   2.865   6.757 -1.3141 -2.8806  1.7357
    8MOL   H377 5711   5.449   2.760   6.969 -0.1897 -0.3946 -0.1160
    8MOL   H378 5712   5.414   2.911   7.058  0.2868 -0.1507  0.8789
    8MOL   H379 5713   5.216   2.689   6.989 -1.4405  0.4068  0.1965
    8MOL   H380 5714   5.169   2.850   7.051  0.5717  1.3746 -0.0871
    8MOL   H381 5715   5.259   2.631   7.195  2.9473 -0.0056 -0.3153
    8MOL   C382 5716   5.284   2.802   7.298 -0.4448  0.2342 -0.0416
    8MOL   O383 5717   5.292   2.928   7.295  0.4521 -0.0403 -0.2106
    8MOL   C384 5718   5.296   2.722   7.425 -0.3430  0.2886  0.0068
    8MOL   C385 5719   5.160   2.687   7.497  0.3416 -0.9410  0.2653
    8MOL   C386 5720   5.085   2.806   7.560 -0.6839  0.1288  0.5149
    8MOL   C387 5721   4.940   2.757   7.594  0.2293 -0.3104 -0.2359
    8MOL   C388 5722   4.866   2.853   7.684  0.2161 -0.3259 -0.5469
    8MOL   O389 5723   4.816   2.953   7.636 -0.4525 -0.1777 -0.3512
    8MOL   N390 5724   4.865   2.832   0.106  0.6683  0.1768 -0.5977
    8MOL   C391 5725   4.792   2.921   0.194  0.0035 -0.5617  0.2058
    8MOL   C392 5726   4.662   2.851   0.220 -0.5038 -0.5248  0.1808
    8MOL   C393 5727   4.577   2.960   0.299 -0.3408  0.7088 -0.7964
    8MOL   C394 5728   4.436   2.909   0.335 -0.1497 -0.2650 -0.7038
    8MOL   C395 5729   4.337   3.008   0.405  0.0443 -0.1919 -0.3063
    8MOL   C396 5730   4.202   2.933   0.436 -0.4231 -0.6698 -0.2939
    8MOL   N397 5731   4.220   2.834   0.542  0.9498  0.3279 -0.0888
    8MOL   H398 5732   5.348   2.631   7.397 -0.2248 -0.1911  1.7025
    8MOL   H399 5733   5.357   2.773   7.500  1.3017  2.0427 -2.4611
    8MOL   H400 5734   5.099   2.646   7.416 -0.7344 -0.6697  0.9157
    8MOL   H401 5735   5.186   2.615   7.574  0.9296 -0.7443  0.2562
    8MOL   H402 5736   5.067   2.890   7.492 -0.2866 -1.2617 -1.3234
    8MOL   H403 5737   5.138   2.829   7.652 -0.5230 -0.2187  0.5085
    8MOL   H404 5738   4.952   2.660   7.643  0.6169  0.3654  1.0291
    8MOL   H405 5739   4.899   2.739   7.494 -0.1863  1.4018 -0.3742
    8MOL   H406 5740   4.896   2.744   0.145 -2.6482 -0.8685 -0.1645
    8MOL   H407 5741   4.849   2.931   0.287  1.6421  0.3896 -0.8761
    8MOL   H408 5742   4.778   3.017   0.145  1.3616 -1.0037 -1.0659
    8MOL   H409 5743   4.614   2.816   0.129  2.1169 -1.0948 -1.0319
    8MOL   H410 5744   4.671   2.759   0.277 -2.9530 -1.2932 -0.6391
    8MOL   H411 5745   4.559   3.050   0.240 -0.8784  0.8233 -0.4616
    8MOL   H412 5746   4.633   2.992   0.387 -1.2728 -0.5505  0.2938
    8MOL   H413 5747   4.388   2.867   0.247  1.7339 -1.2785 -1.2928
    8MOL   H414 5748   4.447   2.822   0.400  0.2847  0.1584 -0.1960
    8MOL   H415 5749   4.374   3.026   0.506 -0.0654 -1.6377 -0.0078
    8MOL   H416 5750   4.329   3.099   0.345 -1.2802 -0.8512 -1.1506
    8MOL   H417 5751   4.169   2.895   0.338  1.4185  2.1740 -2.0794
    8MOL   H418 5752   4.133   3.009   0.471  1.0899  0.3501  0.5072
    8MOL   H419 5753   4.285   2.859   0.615  0.4501 -1.3754  0.9729
    8MOL   C420 5754   4.160   2.714   0.540  0.9758  0.1995 -0.2834
    8MOL   O421 5755   4.100   2.666   0.445 -0.2672  0.0909 -0.1201
    8MOL   C422 5756   4.178   2.633   0.668  0.6201  0.5206 -0.2214
    8MOL   C423 5757   4.045   2.555   0.707  0.5696 -0.2685  1.2676
    8MOL   C424 5758   4.043   2.493   0.848  0.0433  0.4187  0.3210
    8MOL   C425 5759   3.910   2.423   0.873 -0.3091 -0.3052  0.5795
    8MOL   C426 5760   3.784   2.513   0.894  0.5317  0.5505 -0.4244
    8MOL   O427 5761   3.798   2.634   0.907  0.3424  0.2306  0.3660
    8MOL   N428 5762   3.668   2.448   0.918 -0.1995 -0.5118  0.5084
    8MOL   C429 5763   3.547   2.520   0.957 -0.2307 -0.5440  0.3157
    8MOL   C430 5764   3.458   2.426   1.036  0.0317  0.3454  0.4550
    8MOL   C431 5765   3.313   2.478   1.042  0.7221  0.2370  0.3383
    8MOL   C432 5766   3.211   2.408   1.139 -0.3661 -0.3065  0.6177
    8MOL   C433 5767   3.272   2.378   1.273  0.3452  0.4410  0.0289
    8MOL   C434 5768   3.302   2.508   1.349  0.0175 -0.6235  0.4154
    8MOL   N435 5769   3.378   2.484   1.467 -0.1446 -0.0124 -0.0724
    8MOL   H436 5770   4.265   2.567   0.677  0.1602  0.0501  0.8963
    8MOL   H437 5771   4.207   2.705   0.746  1.8199 -0.0024 -0.1662
    8MOL   H438 5772   3.951   2.610   0.701 -0.7070 -2.5292  0.0153
    8MOL   H439 5773   4.028   2.476   0.635 -0.3624 -0.5331  1.7627
    8MOL   H440 5774   4.054   2.567   0.928 -1.0752  0.3689  0.5197
    8MOL   H441 5775   4.127   2.425   0.862 -2.6550 -2.9060  0.7728
    8MOL   H442 5776   3.919   2.358   0.960  0.6156 -2.4082 -1.0399
    8MOL   H443 5777   3.895   2.351   0.793  1.5235 -0.7228  0.5935
    8MOL   H444 5778   3.658   2.348   0.923  1.4460 -0.6704  0.6225
    8MOL   H445 5779   3.575   2.606   1.019 -2.8059  0.7493 -0.2619
    8MOL   H446 5780   3.494   2.553   0.867  0.8139 -0.8670 -0.4371
    8MOL   H447 5781   3.460   2.323   1.001  1.0331  1.0142 -1.5130
    8MOL   H448 5782   3.496   2.428   1.139  1.7615  3.5507 -0.1789
    8MOL   H449 5783   3.274   2.488   0.940  0.1910  0.2107  0.5399
    8MOL   H450 5784   3.326   2.580   1.079 -0.1050  0.7299 -0.6778
    8MOL   H451 5785   3.119   2.466   1.145 -2.0205 -2.4655 -2.9808
    8MOL   H452 5786   3.189   2.309   1.102  0.4341  0.0581 -0.8501
    8MOL   H453 5787   3.205   2.307   1.320  0.1732  0.2185 -0.5494
    8MOL   H454 5788   3.366   2.324   1.268  0.5231  0.7907 -0.6403
    8MOL   H455 5789   3.201   2.538   1.379 -1.1010 -1.6731 -2.0760
    8MOL   H456 5790   3.350   2.587   1.292 -2.9510  1.4562  0.6869
    8MOL   H457 5791   3.432   2.398   1.471  1.5101  1.0676  2.9494
    8MOL   C458 5792   3.402   2.587   1.555 -0.4780  0.3691  0.0781
    8MOL   O459 5793   3.340   2.696   1.556 -0.3351  0.2679 -0.4501
    8MOL   C460 5794   3.505   2.543   1.652  0.0292  0.1450  0.1236
    8MOL   C461 5795   3.566   2.668   1.713  0.3314  0.4884  0.1970
    8MOL   C462 5796   3.713   2.654   1.775  0.1064 -0.2434 -0.4360
    8MOL   C463 5797   3.825   2.636   1.668 -0.0863 -0.2208  0.2439
    8MOL   C464 5798   3.958   2.692   1.726  0.2455  0.1133 -0.3151
    8MOL   O465 5799   4.019   2.620   1.803 -0.7911  0.3294  0.1937
    8MOL   N466 5800   4.003   2.810   1.682  0.6079  0.6037 -0.5835
    8MOL   C467 5801   4.127   2.885   1.697 -0.6479 -0.2559  0.3128
    8MOL   C468 5802   4.128   2.945   1.839  0.3154 -0.4821 -0.0166
    8MOL   C469 5803   4.260   3.020   1.876 -0.5075  0.6065  0.5257
    8MOL   C470 5804   4.275   3.076   2.020  0.5351  1.0678  0.7122
    8MOL   C471 5805   4.412   3.138   2.055 -0.1466 -0.2132 -0.2261
    8MOL   C472 5806   4.431   3.271   1.985  0.4328 -0.3416 -0.8995
    8MOL   N473 5807   4.550   3.338   2.024 -0.3572  0.3323 -0.0372
    8MOL   H474 5808   3.446   2.484   1.722 -1.6918  1.7075  0.0417
    8MOL   H475 5809   3.579   2.478   1.607  0.5761  0.1765  0.9548
    8MOL   H476 5810   3.581   2.751   1.644  0.1568  1.6342  1.5249
    8MOL   H477 5811   3.494   2.715   1.780 -0.0157  0.6000 -0.2546
    8MOL   H478 5812   3.720   2.573   1.848  0.8292  1.0453  0.9352
    8MOL   H479 5813   3.723   2.751   1.823  0.1599 -0.6035  0.2947
    8MOL   H480 5814   3.800   2.703   1.586  1.5251  1.2559  0.9368
    8MOL   H481 5815   3.829   2.542   1.613  2.1874 -1.1130  1.8309
    8MOL   H482 5816   3.951   2.834   1.599 -0.9366 -1.8648 -0.3925
    8MOL   H483 5817   4.221   2.831   1.680  0.1718  1.2505 -0.1057
    8MOL   H484 5818   4.116   2.968   1.627 -2.2911  0.2862  1.1973
    8MOL   H485 5819   4.045   3.014   1.853 -1.5777 -3.0135  1.6800
    8MOL   H486 5820   4.129   2.861   1.909  2.6669 -0.5707 -0.1096
    8MOL   H487 5821   4.272   3.091   1.794 -0.0032 -0.9036 -0.7342
    8MOL   H488 5822   4.345   2.952   1.874 -0.4889  0.5459  2.2729
    8MOL   H489 5823   4.200   3.152   2.043 -0.3141  0.3200  0.4430
    8MOL   H490 5824   4.252   2.994   2.089  0.7002  1.1180  0.8265
    8MOL   H491 5825   4.409   3.151   2.163 -0.4806 -1.7860 -0.0297
    8MOL   H492 5826   4.490   3.066   2.031 -0.1547 -0.7054  1.1667
    8MOL   H493 5827   4.348   3.330   2.025  1.9314  0.7305  0.7385
    8MOL   H494 5828   4.432   3.249   1.878  0.9975  0.2778 -1.0189
    8MOL   H495 5829   4.546   3.398   2.105  0.7698  0.2756  0.0692
    8MOL   C496 5830   4.673   3.332   1.969  0.5449 -0.0636  0.8811
    8MOL   O497 5831   4.701   3.269   1.862  0.1085  0.3102 -0.5187
    8MOL   C498 5832   4.788   3.409   2.041  1.0592  0.7845 -0.2620
    8MOL   C499 5833   4.881   3.492   1.947  0.5300  0.2193 -0.0943
    8MOL   C500 5834   4.834   3.629   1.898  0.2599 -0.3138  0.2462
    8MOL   C501 5835   4.922   3.689   1.788  0.3188 -0.4733  0.4077
    8MOL   C502 5836   5.053   3.742   1.828  0.7309 -0.9728  0.1822
    8MOL   O503 5837   5.132   3.695   1.915  0.2742  0.0049 -0.4669
    8MOL   N504 5838   5.104   3.839   1.749  0.7271  0.2768  0.5333
    8MOL   C505 5839   5.243   3.874   1.752 -0.3845 -0.2613 -0.4560
    8MOL   C506 5840   5.285   3.966   1.626 -0.3513  0.6096 -0.1073
    8MOL   C507 5841   5.443   3.983   1.616  0.5335  0.2391 -0.1174
    8MOL   C508 5842   5.501   4.046   1.489  0.2294  0.1322  0.3011
    8MOL   C509 5843   5.645   4.073   1.490 -0.2394 -0.1326 -0.2325
    8MOL   C510 5844   5.684   4.133   1.355  0.6697  0.4429  0.4803
    8MOL   N511 5845   5.822   4.164   1.363  0.3925  0.0389  0.0397
    8MOL   H512 5846   4.752   3.468   2.125  0.5784 -1.1120  0.8843
    8MOL   H513 5847   4.837   3.325   2.090  0.9158  0.0778 -1.3096
    8MOL   H514 5848   4.982   3.490   1.989  0.3067  0.6004  0.4752
    8MOL   H515 5849   4.903   3.432   1.859  2.1878  0.0204  0.4320
    8MOL   H516 5850   4.829   3.700   1.981  1.7048  1.0587 -0.8114
    8MOL   H517 5851   4.733   3.623   1.857  0.7123 -1.3549 -0.7105
    8MOL   H518 5852   4.873   3.774   1.741  2.7435  0.2520 -0.8721
    8MOL   H519 5853   4.935   3.611   1.713  1.3519  2.1257 -2.2176
    8MOL   H520 5854   5.042   3.891   1.688 -2.4215 -0.7863  2.6674
    8MOL   H521 5855   5.267   3.933   1.840  0.0765  1.4701 -1.7075
    8MOL   H522 5856   5.316   3.795   1.767 -0.5778  0.0244  2.2636
    8MOL   H523 5857   5.264   3.918   1.531 -1.2541  0.6238  0.0764
    8MOL   H524 5858   5.236   4.063   1.621 -1.1055  0.2123 -0.5712
    8MOL   H525 5859   5.491   3.886   1.624  0.1736  0.0646 -0.0521
    8MOL   H526 5860   5.469   4.049   1.699 -4.1650  2.3841 -0.1908
    8MOL   H527 5861   5.487   3.977   1.406  1.5935  0.5197 -0.2619
    8MOL   H528 5862   5.462   4.148   1.481  1.9353  0.7327 -0.6562
    8MOL   H529 5863   5.679   4.135   1.574 -1.1627  0.2033 -0.1023
    8MOL   H530 5864   5.705   3.982   1.498 -1.0589 -0.6327  0.3349
    8MOL   H531 5865   5.632   4.222   1.322  1.6385  0.5904 -0.7322
    8MOL   H532 5866   5.679   4.054   1.279  1.8625  1.9735 -1.2546
    8MOL   H533 5867   5.864   4.136   1.451  0.1763 -1.4636 -0.3190
    8MOL   C534 5868   5.897   4.211   1.264 -0.1362  0.3145  0.3389
    8MOL   O535 5869   5.848   4.229   1.158 -0.3066  0.1905  0.0539
    8MOL   C536 5870   6.045   4.247   1.291  0.0598 -0.1532  0.1204
    8MOL   C537 5871   6.084   4.373   1.206 -0.1837 -0.9863  0.0107
    8MOL   C538 5872   6.236   4.402   1.233 -0.7896  0.1697  0.1647
    8MOL   C539 5873   6.284   4.420   1.375  0.3715 -0.4617  0.0895
    8MOL   C540 5874   6.255   4.557   1.436  0.6304  0.1399 -1.1789
    8MOL   O541 5875   6.186   4.628   1.373  0.1026 -0.0633 -0.2654
    8MOL   N542 5876   6.309   4.587   1.554 -0.5904 -0.5841 -0.3806
    8MOL   C543 5877   6.331   4.720   1.606  0.3568 -0.0971 -0.3255
    8MOL   C544 5878   6.204   4.785   1.674 -0.5722  0.6915  0.1720
    8MOL   C545 5879   6.132   4.697   1.777 -0.1490  0.5128 -0.4429
    8MOL   C546 5880   5.990   4.751   1.808 -0.2134  0.1521 -0.6568
    8MOL   C547 5881   5.897   4.648   1.882  0.3655  0.0066  0.9853
    8MOL   C548 5882   5.764   4.702   1.926 -0.1262 -0.4507  0.0776
    8MOL   N549 5883   5.689   4.595   1.990  0.0431 -0.2235  0.0670
    8MOL   H550 5884   6.053   4.281   1.394  0.0799 -2.4531  0.9127
    8MOL   H551 5885   6.120   4.168   1.278  1.7409  1.5438 -0.7304
    8MOL   H552 5886   6.079   4.355   1.098  0.8083  1.7944 -0.5224
    8MOL   H553 5887   6.015   4.453   1.231  1.3368  0.8767 -1.6763
    8MOL   H554 5888   6.271   4.483   1.170 -1.5965  1.2398  1.0610
    8MOL   H555 5889   6.290   4.314   1.199 -0.0135 -0.4289  2.8525
    8MOL   H556 5890   6.393   4.416   1.376  0.4433  0.7644 -1.3207
    8MOL   H557 5891   6.243   4.344   1.442  0.6985 -2.2294 -1.6754
    8MOL   H558 5892   6.357   4.514   1.606 -0.8481 -1.0678 -0.8174
    8MOL   H559 5893   6.413   4.704   1.677 -0.4400 -0.1922  0.5799
    8MOL   H560 5894   6.362   4.784   1.524 -0.7201  0.4756 -0.2822
    8MOL   H561 5895   6.229   4.880   1.721  1.2615 -0.3040  1.2673
    8MOL   H562 5896   6.135   4.812   1.594 -0.7405 -0.5795 -0.1150
    8MOL   H563 5897   6.183   4.662   1.866 -0.3923 -0.3336 -0.6357
    8MOL   H564 5898   6.131   4.598   1.733  1.0331 -0.6789  2.1138
    8MOL   H565 5899   5.986   4.842   1.868  1.6335 -0.8129  0.9828
    8MOL   H566 5900   5.937   4.766   1.714 -0.7912  0.8058 -0.2366
    8MOL   H567 5901   5.893   4.557   1.823  2.3227  0.4063  0.1826
    8MOL   H568 5902   5.945   4.616   1.975  1.3523  0.6543  0.7074
    8MOL   H569 5903   5.729   4.739   1.829  0.5117  0.7241  0.2873
    8MOL   H570 5904   5.797   4.783   1.991  1.9697  0.4111 -1.9672
    8MOL   H571 5905   5.647   4.522   1.935 -0.4804  0.2352 -0.1435
    8MOL   C572 5906   5.665   4.571   2.121  0.0339  0.2351  0.7111
    8MOL   O573 5907   5.705   4.650   2.207 -0.0137  0.3244 -0.3486
    8MOL   C574 5908   5.603   4.436   2.156  0.3085 -0.5241 -0.7167
    8MOL   C575 5909   5.702   4.365   2.256  0.2941  0.1151  0.5287
    8MOL   C576 5910   5.632   4.233   2.300 -0.0398  0.4310 -0.2672
    8MOL   C577 5911   5.518   4.245   2.407 -0.7793 -0.1949  0.3260
    8MOL   C578 5912   5.539   4.155   2.532 -0.5923 -0.1759  0.9815
    8MOL   O579 5913   5.592   4.039   2.509 -0.1143  0.0839  0.1801
    8MOL   N580 5914   5.501   4.200   2.651  0.5946 -0.0270 -1.0647
    8MOL   C581 5915   5.523   4.132   2.780  0.0098 -0.9013 -0.2174
    8MOL   C582 5916   5.381   4.084   2.833 -0.2730  0.3355  0.8440
    8MOL   C583 5917   5.385   4.026   2.976  0.1800 -0.1531  0.3842
    8MOL   C584 5918   5.254   3.963   3.020  0.5224  0.1326  0.4209
    8MOL   C585 5919   5.164   4.072   3.077 -0.1273  0.0104  0.0569
    8MOL   C586 5920   5.045   4.023   3.149 -0.1111 -0.4499 -0.0249
    8MOL   N587 5921   4.979   3.926   3.063 -0.3825  0.1854  0.8038
    8MOL   H588 5922   5.511   4.460   2.210  0.6635 -0.6083 -0.0643
    8MOL   H589 5923   5.566   4.382   2.070  1.8496 -0.2530 -1.5740
    8MOL   H590 5924   5.794   4.331   2.208 -0.4080 -0.8020 -0.1850
    8MOL   H591 5925   5.732   4.431   2.337 -0.0276  1.9114 -0.7880
    8MOL   H592 5926   5.708   4.159   2.328  0.0294  1.0370  1.1834
    8MOL   H593 5927   5.592   4.187   2.210  1.2620 -1.7064  0.2090
    8MOL   H594 5928   5.417   4.233   2.367 -0.2591 -0.0931 -1.0522
    8MOL   H595 5929   5.514   4.350   2.438  1.8351 -0.2118  0.7835
    8MOL   H596 5930   5.444   4.283   2.644 -0.1555 -0.5114 -0.7064
    8MOL   H597 5931   5.588   4.045   2.773  3.1127  1.1895  1.3598
    8MOL   H598 5932   5.563   4.203   2.853 -2.7056  1.2984 -0.7791
    8MOL   H599 5933   5.310   4.167   2.830 -0.6087  0.0401  0.5781
    8MOL   H600 5934   5.349   4.009   2.761  0.0686  0.9059  0.0890
    8MOL   H601 5935   5.435   4.090   3.048  1.5360 -3.0338  2.0844
    8MOL   H602 5936   5.463   3.951   2.969 -0.0564 -0.5923  2.3156
    8MOL   H603 5937   5.216   3.897   2.942  0.9366 -0.3188  0.6032
    8MOL   H604 5938   5.280   3.892   3.098  3.0730  1.3272  0.6987
    8MOL   H605 5939   5.222   4.132   3.147  1.6195 -1.1346 -0.4030
    8MOL   H606 5940   5.141   4.142   2.997 -0.4568 -0.7537 -0.5263
    8MOL   H607 5941   4.981   4.108   3.171 -1.4007 -0.6382 -2.7815
    8MOL   H608 5942   5.075   3.974   3.241 -2.2353 -2.7849 -0.4970
    8MOL   H609 5943   4.995   3.828   3.082  0.9372  0.0299 -1.0156
    8MOL   C610 5944   4.917   3.948   2.943  0.2242 -0.4031  0.2395
    8MOL   O611 5945   4.903   4.069   2.906 -0.2602  0.8855 -0.0154
    8MOL   C612 5946   4.858   3.824   2.869  0.5185 -0.1149  0.3795
    8MOL   C613 5947   4.747   3.858   2.771  0.6136  0.5919  0.4825
    8MOL   C614 5948   4.679   3.733   2.699 -0.0686  0.2289 -0.3800
    8MOL   C615 5949   4.774   3.654   2.611 -0.8191  0.0326 -0.2149
    8MOL   C616 5950   4.783   3.503   2.637  0.3679  0.4335  0.4086
    8MOL   O617 5951   4.812   3.460   2.747 -0.0885 -0.0671 -0.2174
    8MOL   N618 5952   4.771   3.425   2.528  0.5157  0.0274  0.0060
    8MOL   C619 5953   4.775   3.282   2.531 -0.7544 -0.3262  0.7260
    8MOL   C620 5954   4.815   3.219   2.396 -0.4886  0.4210 -0.0920
    8MOL   C621 5955   4.815   3.066   2.409 -0.3362  1.3870  0.1511
    8MOL   C622 5956   4.869   2.993   2.282 -0.1799  0.0683  0.4347
    8MOL   C623 5957   4.769   3.000   2.164  0.3442 -0.0554  0.0128
    8MOL   C624 5958   4.820   2.951   2.034  0.4447 -0.2278 -0.1479
    8MOL   N625 5959   4.742   2.993   1.925 -0.1106  0.1749  0.4091
    8MOL   H626 5960   4.949   3.782   2.826  0.7951  0.0528  0.7972
    8MOL   H627 5961   4.813   3.754   2.939 -1.8141  0.3444 -0.6146
    8MOL   H628 5962   4.674   3.907   2.835  2.1444  1.0592  1.9158
    8MOL   H629 5963   4.761   3.933   2.693 -2.5299 -1.6066 -2.3286
    8MOL   H630 5964   4.588   3.759   2.645 -0.5324  0.8011  0.6617
    8MOL   H631 5965   4.648   3.664   2.778  1.6282 -0.1022  0.0172
    8MOL   H632 5966   4.877   3.690   2.625 -1.2397  0.5940  1.5841
    8MOL   H633 5967   4.749   3.670   2.506  1.3692 -3.2843 -1.3207
    8MOL   H634 5968   4.751   3.463   2.436  3.2312  0.0782 -0.6019
    8MOL   H635 5969   4.848   3.263   2.609 -0.7144  0.0169  0.7739
    8MOL   H636 5970   4.682   3.234   2.562 -2.1702  2.3706  0.8551
    8MOL   H637 5971   4.732   3.243   2.329 -0.9714  0.9776  0.6997
    8MOL   H638 5972   4.908   3.256   2.352  0.5445  1.1685  2.6564
    8MOL   H639 5973   4.714   3.037   2.439  0.0329 -0.6691 -0.5429
    8MOL   H640 5974   4.883   3.024   2.482 -3.2283 -0.2225  2.0203
    8MOL   H641 5975   4.954   3.057   2.261 -1.9145  1.8236 -1.5122
    8MOL   H642 5976   4.889   2.891   2.314  1.9432  0.8693  1.7671
    8MOL   H643 5977   4.671   2.959   2.191 -1.2707  1.9294 -2.5102
    8MOL   H644 5978   4.744   3.106   2.162  0.6676  0.0200  0.0638
    8MOL   H645 5979   4.833   2.843   2.038 -0.9662 -0.4481 -1.1784
    8MOL   H646 5980   4.918   2.988   2.005 -0.0289  1.6601  0.5701
    8MOL   H647 5981   4.747   3.091   1.905  0.6140 -0.0139 -0.3702
    8MOL   C648 5982   4.677   2.922   1.833  0.1225 -0.1667  0.6833
    8MOL   O649 5983   4.669   2.796   1.816  0.7354 -0.3946 -0.1550
    8MOL   C650 5984   4.610   2.993   1.718  0.1308 -0.1179  0.3136
    8MOL   C651 5985   4.532   2.915   1.607  0.1444 -0.6683  0.6580
    8MOL   C652 5986   4.610   2.827   1.502  0.2614 -0.1080 -0.4008
    8MOL   C653 5987   4.537   2.697   1.464 -0.0451 -0.0984  0.0701
    8MOL   C654 5988   4.410   2.713   1.382 -0.7859  0.3669 -0.0553
    8MOL   O655 5989   4.380   2.821   1.325 -0.4061 -0.5425  0.0767
    8MOL   N656 5990   4.334   2.604   1.365 -0.0586  0.4430  0.4909
    8MOL   C657 5991   4.211   2.605   1.277  0.1857  0.7521  0.7982
    8MOL   C658 5992   4.099   2.662   1.353  0.0512 -0.3260  0.7196
    8MOL   C659 5993   3.967   2.627   1.291 -0.6876 -0.0586 -0.8706
    8MOL   C660 5994   3.928   2.480   1.300  0.6852  0.0337 -0.2618
    8MOL   C661 5995   3.774   2.475   1.309  0.0063 -0.2272 -0.6862
    8MOL   C662 5996   3.723   2.332   1.328  0.5453 -0.0397  0.3054
    8MOL   N663 5997   3.711   2.267   1.196 -0.4036  0.3363 -0.6405
    8MOL   H664 5998   4.547   3.063   1.773  2.2150  1.2797  0.9478
    8MOL   H665 5999   4.675   3.061   1.664  0.9947 -0.9943  0.2367
    8MOL   H666 6000   4.455   2.852   1.652 -1.1473  0.8619  0.6554
    8MOL   H667 6001   4.481   2.991   1.548 -0.7726 -2.5470 -1.0479
    8MOL   H668 6002   4.708   2.809   1.547 -0.7159 -2.3528  0.9004
    8MOL   H669 6003   4.627   2.882   1.409 -1.7594  0.1064 -0.6741
    8MOL   H670 6004   4.533   2.631   1.550  0.1393 -0.2570 -0.0426
    8MOL   H671 6005   4.597   2.628   1.405  0.0249 -1.1329  1.3540
    8MOL   H672 6006   4.373   2.514   1.389  0.5391  0.6431  0.2932
    8MOL   H673 6007   4.233   2.646   1.179 -2.0889 -0.6844 -0.3273
    8MOL   H674 6008   4.191   2.503   1.246 -0.5002  1.3594 -0.8094
    8MOL   H675 6009   4.105   2.628   1.457  1.5587 -1.5180  0.2672
    8MOL   H676 6010   4.123   2.768   1.356  2.5394 -0.8560  1.2639
    8MOL   H677 6011   3.955   2.641   1.184 -2.0425 -0.7471 -0.8232
    8MOL   H678 6012   3.892   2.691   1.339 -0.5254 -1.2974  1.0800
    8MOL   H679 6013   3.959   2.420   1.215  0.8472 -0.9294  0.4677
    8MOL   H680 6014   3.966   2.439   1.394 -2.5538  0.7592  1.4399
    8MOL   H681 6015   3.733   2.542   1.386 -2.6329  0.0374 -2.2589
    8MOL   H682 6016   3.725   2.528   1.227 -1.6434 -0.4017  0.1638
    8MOL   H683 6017   3.623   2.347   1.368  0.0727  0.1790 -0.9496
    8MOL   H684 6018   3.783   2.282   1.404  1.0796 -1.4355 -1.0281
    8MOL   H685 6019   3.777   2.313   1.134 -1.4017  1.4015 -0.9256
    8MOL   C686 6020   3.661   2.144   1.168  0.1545  0.2629 -0.7059
    8MOL   O687 6021   3.644   2.107   1.052 -0.0675 -0.3371  0.3085
    8MOL   C688 6022   3.609   2.058   1.288  0.3067 -0.1846 -0.1158
    8MOL   C689 6023   3.586   1.905   1.246 -0.2297  0.1380  0.0986
    8MOL   C690 6024   3.530   1.815   1.352 -0.4462 -0.8315 -0.3919
    8MOL   C691 6025   3.646   1.788   1.459  0.3272 -0.6982 -0.4052
    8MOL   C692 6026   3.764   1.710   1.410 -0.0915  0.2829  0.5680
    8MOL   O693 6027   3.786   1.685   1.292  0.5271 -0.6638 -0.3027
    8MOL   N694 6028   3.859   1.684   1.506  0.6868 -0.0698 -0.1364
    8MOL   C695 6029   3.969   1.596   1.469 -0.3509  0.4328  0.4449
    8MOL   C696 6030   3.944   1.445   1.501 -0.0950  0.1793 -0.1581
    8MOL   C697 6031   3.901   1.414   1.640 -0.5281  0.1198  0.2936
    8MOL   C698 6032   3.889   1.265   1.655  0.5841  0.3505 -0.0867
    8MOL   C699 6033   3.837   1.224   1.791 -0.1440  0.0253 -0.1616
    8MOL   C700 6034   3.812   1.074   1.800 -0.3160  0.3950  0.2124
    8MOL   N701 6035   3.927   1.006   1.857 -0.0742 -0.4126 -0.1711
    8MOL   H702 6036   3.683   2.055   1.368 -0.1975  2.7345  0.5043
    8MOL   H703 6037   3.526   2.118   1.324  1.0779  0.2603  0.9335
    8MOL   H704 6038   3.506   1.927   1.175  0.3327  2.8250  0.2211
    8MOL   H705 6039   3.669   1.883   1.179 -0.4374 -1.2625  0.2885
    8MOL   H706 6040   3.495   1.724   1.302 -1.7494 -0.9503  0.7109
    8MOL   H707 6041   3.445   1.862   1.400  0.4417  0.4269 -0.0211
    8MOL   H708 6042   3.607   1.742   1.550 -0.1155 -0.6195 -0.5518
    8MOL   H709 6043   3.675   1.884   1.501 -1.6568 -0.7845  1.2409
    8MOL   H710 6044   3.845   1.726   1.596  0.6086  2.2730 -1.2069
    8MOL   H711 6045   3.982   1.592   1.361 -1.9386 -2.4435  0.3114
    8MOL   H712 6046   4.052   1.634   1.528  0.2330  1.9051 -1.2738
    8MOL   H713 6047   3.872   1.401   1.432  0.7019  0.1599 -0.9826
    8MOL   H714 6048   4.038   1.392   1.485  0.0662  0.4622 -0.1561
    8MOL   H715 6049   3.814   1.471   1.670  0.2617  0.8590  1.1965
    8MOL   H716 6050   3.981   1.443   1.708 -0.1487 -1.3347  0.5053
    8MOL   H717 6051   3.833   1.219   1.573 -1.6815 -0.6184  1.9349
    8MOL   H718 6052   3.989   1.223   1.653  0.1026 -0.9533  1.8300
    8MOL   H719 6053   3.903   1.259   1.871 -1.5280  0.9679  0.5711
    8MOL   H720 6054   3.749   1.284   1.814 -0.3157 -1.3158  3.0321
    8MOL   H721 6055   3.792   1.035   1.700  2.2459  1.3822 -0.7415
    8MOL   H722 6056   3.729   1.055   1.867 -0.1877  0.9064  0.5141
    8MOL   H723 6057   3.955   1.027   1.952  2.6885 -2.2348 -0.5177
    8MOL   C724 6058   4.023   0.943   1.796  0.1401 -0.2041 -0.5330
    8MOL   O725 6059   4.031   0.914   1.676 -0.7451 -0.0504  0.2132
    8MOL   C726 6060   4.145   0.902   1.884  0.0372  0.2301 -0.6660
    8MOL   C727 6061   4.107   0.778   1.962  0.1240  0.3179  0.2646
    8MOL   C728 6062   4.212   0.744   2.063 -0.0422  0.1816 -0.0225
    8MOL   C729 6063   4.198   0.618   2.148  0.2971  0.8687  0.5021
    8MOL   C730 6064   4.207   0.487   2.071 -0.5593 -0.5753  0.1192
    8MOL   O731 6065   4.317   0.445   2.040  0.6098  0.0020  0.4744
    8MOL   N732 6066   4.090   0.429   2.039  0.4875 -0.0215  0.3539
    8MOL   C733 6067   4.067   0.304   1.974  0.1667 -0.1438 -0.6120
    8MOL   C734 6068   4.015   0.203   2.076  0.2200  0.2882  1.1734
    8MOL   C735 6069   3.972   0.065   2.017  0.1857  0.0436 -0.1633
    8MOL   C736 6070   3.904   7.687   2.131 -0.3204 -0.2501 -0.5159
    8MOL   C737 6071   3.851   7.561   2.066  0.2236  0.7483  0.3658
    8MOL   C738 6072   3.784   7.470   2.164 -0.0408  0.1183 -0.0988
    8MOL   N739 6073   3.875   7.426   2.274 -0.0289 -0.2990 -0.2356
    8MOL   H740 6074   4.233   0.885   1.823  0.2017 -0.6377 -0.1964
    8MOL   H741 6075   4.163   0.984   1.953 -0.2777 -0.0369 -0.2597
    8MOL   H742 6076   4.012   0.802   2.010 -0.4857  0.8838 -1.2056
    8MOL   H743 6077   4.065   0.702   1.896 -2.1305  0.5167  1.4468
    8MOL   H744 6078   4.209   0.822   2.139 -1.4895  1.2214 -1.1307
    8MOL   H745 6079   4.308   0.749   2.014 -0.9116 -0.9468 -1.8928
    8MOL   H746 6080   4.097   0.634   2.187  0.6676  0.0535  1.8225
    8MOL   H747 6081   4.268   0.605   2.230 -0.6698 -1.9817  0.9595
    8MOL   H748 6082   4.004   0.474   2.065  1.7362  1.7365  1.5567
    8MOL   H749 6083   4.002   0.341   1.894  2.3714  0.0048 -2.3750
    8MOL   H750 6084   4.156   0.276   1.917  0.7321  1.5806 -0.5917
    8MOL   H751 6085   4.085   0.196   2.159  0.5130  1.8901  1.0735
    8MOL   H752 6086   3.932   0.257   2.121  0.7256  1.0508  1.1985
    8MOL   H753 6087   4.057   0.014   1.971 -0.9551 -1.1801 -0.9366
    8MOL   H754 6088   3.890   0.084   1.947 -1.3615 -0.6497  1.4334
    8MOL   H755 6089   3.978   7.655   2.205 -1.2378 -1.5089 -0.1399
    8MOL   H756 6090   3.823   0.030   2.183  0.4075 -0.5309  0.9326
    8MOL   H757 6091   3.771   7.580   1.995  0.5019  1.5345  0.2588
    8MOL   H758 6092   3.941   7.509   2.033  0.3198 -0.0656  1.8708
    8MOL   H759 6093   3.734   7.390   2.111 -2.6134  1.0449  0.8236
    8MOL   H760 6094   3.705   7.530   2.210  0.5410  1.4555 -0.8079
    8MOL   H761 6095   3.911   7.500   2.331 -0.5343  1.0873 -1.6895
    8MOL   H762 6096   3.813   7.378   2.338 -0.3893 -1.2281 -1.2487
    9MOL     C1 6097   0.244   2.680   2.506 -0.7539 -0.5570  0.4409
    9MOL     O2 6098   0.334   2.641   2.574 -0.0480  0.7823 -0.7121
    9MOL     C3 6099   0.258   2.684   2.349 -0.0010 -0.1317  0.2279
    9MOL     C4 6100   0.402   2.657   2.305  0.6602  0.7240  0.0425
    9MOL     C5 6101   0.415   2.620   2.157  0.3211 -0.4462  0.3859
    9MOL     C6 6102   0.558   2.591   2.105  0.3088  0.6439 -0.6792
    9MOL     C7 6103   0.652   2.705   2.117  0.1254  0.9330 -0.4594
    9MOL     O8 6104   0.625   2.809   2.061 -0.2679  0.2317  0.1267
    9MOL     N9 6105   0.767   2.692   2.183  0.5568  0.3408  0.0814
    9MOL    C10 6106   0.873   2.793   2.185 -0.2707 -0.8881  0.0831
    9MOL    C11 6107   0.971   2.765   2.062  0.3751  0.2052 -0.3295
    9MOL    C12 6108   1.095   2.850   2.077  0.1184  0.5213  0.4130
    9MOL    C13 6109   1.180   2.839   2.207 -0.1749 -0.5054  0.4011
    9MOL    C14 6110   1.316   2.896   2.199 -0.0882 -0.0605  0.4072
    9MOL    C15 6111   1.413   2.848   2.091 -0.0689  0.3887 -0.4316
    9MOL    N16 6112   1.538   2.923   2.099 -0.9563 -0.1145  0.6194
    9MOL    H17 6113   0.190   2.606   2.314 -0.0286  0.6819 -1.5699
    9MOL    H18 6114   0.222   2.779   2.310  1.7516 -0.0959 -1.3540
    9MOL    H19 6115   0.470   2.738   2.332 -0.5635  2.2179 -1.2807
    9MOL    H20 6116   0.434   2.571   2.364  0.4703  0.1430 -0.6943
    9MOL    H21 6117   0.393   2.712   2.104  0.0339 -0.6458  0.1566
    9MOL    H22 6118   0.337   2.550   2.125 -0.6689  2.0937 -2.9745
    9MOL    H23 6119   0.562   2.550   2.004 -0.2150  0.0496 -0.4647
    9MOL    H24 6120   0.602   2.507   2.159  1.0691 -0.1916 -2.5277
    9MOL    H25 6121   0.781   2.611   2.242 -1.1337  0.4857  0.7080
    9MOL    H26 6122   0.830   2.892   2.171  0.3347 -0.8337 -1.5174
    9MOL    H27 6123   0.924   2.787   2.281 -0.8453  1.3737  0.5628
    9MOL    H28 6124   1.000   2.662   2.045 -0.8235 -0.2069  0.0848
    9MOL    H29 6125   0.910   2.801   1.980 -1.7254 -2.1277  0.1519
    9MOL    H30 6126   1.060   2.952   2.058  0.0168  0.5512  0.7693
    9MOL    H31 6127   1.156   2.821   1.991 -1.1284  1.5218 -0.8307
    9MOL    H32 6128   1.128   2.877   2.296  4.1362  3.1939  1.5434
    9MOL    H33 6129   1.189   2.734   2.232 -0.3035 -1.0369 -1.7230
    9MOL    H34 6130   1.298   3.003   2.191 -1.7701 -0.5338 -2.5161
    9MOL    H35 6131   1.366   2.897   2.296  0.2045 -0.4431  0.2600
    9MOL    H36 6132   1.367   2.867   1.994 -0.1634  0.4934 -0.3661
    9MOL    H37 6133   1.435   2.742   2.100 -0.5791  0.2840 -0.3637
    9MOL    H38 6134   1.546   3.012   2.147 -0.7562  0.8795 -1.2111
    9MOL    H39 6135   0.151   2.725   2.539  0.0932  0.0410  2.0400
    9MOL    C40 6136   1.647   2.891   2.030 -0.3239  0.0466 -0.2313
    9MOL    O41 6137   1.648   2.798   1.958  0.2966  0.0004  0.0047
    9MOL    C42 6138   1.774   2.970   2.051  0.1441  0.5101 -0.6327
    9MOL    C43 6139   1.823   3.054   1.934 -0.1684 -0.1230 -0.3575
    9MOL    C44 6140   1.724   3.158   1.873  0.5894 -0.2320  0.0538
    9MOL    C45 6141   1.784   3.214   1.740  0.1994  0.0009  0.1799
    9MOL    C46 6142   1.725   3.349   1.702  0.1790  0.0213  1.2001
    9MOL    O47 6143   1.613   3.387   1.730 -0.0590 -0.0591  0.2782
    9MOL    N48 6144   1.814   3.431   1.643 -0.2409  0.7535 -0.0391
    9MOL    C49 6145   1.802   3.570   1.597  0.6229  0.0920 -0.8476
    9MOL    C50 6146   1.806   3.572   1.449 -0.9130 -0.1338 -0.2419
    9MOL    C51 6147   1.783   3.710   1.396 -0.0413 -0.0563 -0.2591
    9MOL    C52 6148   1.891   3.813   1.420  0.2941 -0.4526  0.0286
    9MOL    C53 6149   1.894   3.917   1.314  0.5256  0.0664 -0.4545
    9MOL    C54 6150   1.987   4.029   1.352  0.5613  0.6197 -0.3546
    9MOL    N55 6151   1.969   4.140   1.257 -0.3915  0.0859 -0.4409
    9MOL    H56 6152   1.755   3.035   2.136 -1.5826  0.9791 -1.3554
    9MOL    H57 6153   1.856   2.903   2.081 -0.1793  0.1267 -0.6008
    9MOL    H58 6154   1.918   3.101   1.956 -1.0583  0.1275  3.2989
    9MOL    H59 6155   1.839   2.992   1.845  1.3871  0.0636 -0.2213
    9MOL    H60 6156   1.715   3.234   1.951 -1.6359 -1.8867  1.4638
    9MOL    H61 6157   1.625   3.114   1.865  1.2874 -1.4225 -2.7302
    9MOL    H62 6158   1.760   3.136   1.667  0.2695 -0.6295  0.8296
    9MOL    H63 6159   1.893   3.215   1.744  0.2950 -2.0069 -0.8345
    9MOL    H64 6160   1.907   3.399   1.620 -0.4203  1.5820 -1.9905
    9MOL    H65 6161   1.704   3.611   1.621  0.7477  0.8820 -1.6489
    9MOL    H66 6162   1.881   3.627   1.646  1.6866 -2.1146  0.1061
    9MOL    H67 6163   1.886   3.505   1.417 -0.1660  0.4797  0.3198
    9MOL    H68 6164   1.713   3.523   1.418 -0.0757 -3.3992  2.1643
    9MOL    H69 6165   1.694   3.744   1.448 -1.6431 -3.5593 -0.5659
    9MOL    H70 6166   1.758   3.713   1.290  0.6205  1.7436 -0.3871
    9MOL    H71 6167   1.870   3.860   1.516  0.0720  0.3703 -0.4139
    9MOL    H72 6168   1.994   3.778   1.430  0.8415  0.6985 -1.5010
    9MOL    H73 6169   1.930   3.878   1.218 -1.9337  0.2745 -1.5098
    9MOL    H74 6170   1.793   3.956   1.316  0.3329 -0.4991  1.5647
    9MOL    H75 6171   2.086   3.983   1.348  0.4542  0.1549  1.5322
    9MOL    H76 6172   1.958   4.053   1.455  1.0031 -2.0613  0.4171
    9MOL    H77 6173   1.898   4.132   1.186  0.7534 -0.9133 -1.4937
    9MOL    C78 6174   2.044   4.255   1.246  0.5367 -0.2120  0.0184
    9MOL    O79 6175   2.136   4.275   1.326  0.5431 -0.3075 -0.0493
    9MOL    C80 6176   2.012   4.357   1.138 -0.2530 -0.5694 -0.0495
    9MOL    C81 6177   2.140   4.403   1.060  0.3376 -0.3307 -0.0502
    9MOL    C82 6178   2.201   4.300   0.957  0.5333  0.1720 -0.5417
    9MOL    C83 6179   2.310   4.353   0.874  0.5180 -0.3173  0.0472
    9MOL    C84 6180   2.255   4.455   0.771 -0.6544  0.1246  0.9437
    9MOL    O85 6181   2.278   4.575   0.788  0.0919  0.3689 -0.3046
    9MOL    N86 6182   2.179   4.400   0.673 -0.0360  0.4849 -0.1845
    9MOL    C87 6183   2.089   4.482   0.601 -0.1598 -0.3480  0.7554
    9MOL    C88 6184   1.979   4.397   0.539  0.3317  0.7164 -0.1950
    9MOL    C89 6185   1.851   4.388   0.615 -0.5836 -0.1936  0.1802
    9MOL    C90 6186   1.750   4.293   0.552 -0.4703 -0.2378 -0.5406
    9MOL    C91 6187   1.607   4.315   0.607 -0.3217 -0.3588  0.0532
    9MOL    C92 6188   1.515   4.193   0.569 -0.7537 -0.4084  0.2746
    9MOL    N93 6189   1.396   4.199   0.649  0.1527  0.4062 -0.6597
    9MOL    H94 6190   1.934   4.319   1.072 -0.1603  0.2947 -0.6757
    9MOL    H95 6191   1.973   4.448   1.184  0.5595  0.6047 -1.6203
    9MOL    H96 6192   2.122   4.501   1.015  1.6102  0.6357  1.4834
    9MOL    H97 6193   2.207   4.429   1.141  0.4539 -0.3192 -0.1495
    9MOL    H98 6194   2.119   4.257   0.899 -0.6265  1.7792 -0.1186
    9MOL    H99 6195   2.242   4.216   1.014  0.1503  0.3861  0.0502
    9MOL   H100 6196   2.363   4.279   0.814  1.1944 -0.0071  0.2539
    9MOL   H101 6197   2.380   4.409   0.936 -0.4443  0.7545  0.1866
    9MOL   H102 6198   2.168   4.300   0.680 -2.0629  0.8254  2.1545
    9MOL   H103 6199   2.023   4.537   0.667 -0.4061 -0.2796  0.4562
    9MOL   H104 6200   2.145   4.534   0.522  0.9777 -1.9462  0.4940
    9MOL   H105 6201   1.962   4.430   0.436 -0.3473  4.4687  1.0468
    9MOL   H106 6202   2.017   4.298   0.517 -1.9213 -0.1941 -0.1283
    9MOL   H107 6203   1.804   4.486   0.625 -0.3397 -0.1584  1.0174
    9MOL   H108 6204   1.865   4.343   0.714 -0.5669  0.1239  0.3226
    9MOL   H109 6205   1.741   4.313   0.445 -1.9744 -0.0638 -0.3953
    9MOL   H110 6206   1.778   4.190   0.573 -2.9431 -0.2715  3.0345
    9MOL   H111 6207   1.606   4.310   0.715  1.4678  2.2320  0.2481
    9MOL   H112 6208   1.560   4.406   0.570 -1.1010 -0.7831 -0.0073
    9MOL   H113 6209   1.564   4.096   0.572 -0.8955 -0.5031 -0.6044
    9MOL   H114 6210   1.484   4.201   0.465  0.9303  1.3073 -0.1205
    9MOL   H115 6211   1.397   4.271   0.720  1.2791 -0.8713  0.6503
    9MOL   C116 6212   1.315   4.097   0.672  0.5100  0.1270 -0.9846
    9MOL   O117 6213   1.321   3.994   0.604 -0.2176  0.5433  0.3385
    9MOL   C118 6214   1.210   4.113   0.783 -0.5322  0.1710 -0.4619
    9MOL   C119 6215   1.233   3.988   0.878  0.0618 -0.9004 -0.1264
    9MOL   C120 6216   1.116   3.981   0.979 -0.4776  0.1094 -0.1270
    9MOL   C121 6217   1.112   3.847   1.063 -0.2150 -0.3449  0.3915
    9MOL   C122 6218   1.249   3.802   1.121  0.1487 -0.3133 -0.5716
    9MOL   O123 6219   1.316   3.885   1.178  0.3912 -0.6475  0.1043
    9MOL   N124 6220   1.276   3.670   1.101  0.2987  0.2301  0.1569
    9MOL   C125 6221   1.407   3.606   1.120  0.7708 -0.2901  0.5058
    9MOL   C126 6222   1.442   3.599   1.270  0.0135  0.1900  0.2752
    9MOL   C127 6223   1.352   3.508   1.351 -0.1855 -0.4600  0.6466
    9MOL   C128 6224   1.411   3.492   1.489 -0.2486  0.5365 -0.3640
    9MOL   C129 6225   1.310   3.434   1.595 -0.1420  0.4299 -0.2203
    9MOL   C130 6226   1.281   3.286   1.575  0.4417 -0.5790  0.5616
    9MOL   N131 6227   1.214   3.225   1.687 -0.3796  0.1280  0.5692
    9MOL   H132 6228   1.214   4.202   0.846 -2.2656 -0.4648  0.5841
    9MOL   H133 6229   1.114   4.118   0.732 -1.5338 -1.4166  1.2171
    9MOL   H134 6230   1.248   3.894   0.826 -0.5554 -1.4048  0.6085
    9MOL   H135 6231   1.317   4.014   0.943 -2.1107  1.5686  1.8137
    9MOL   H136 6232   1.019   4.003   0.936  0.1114  1.3952 -0.8254
    9MOL   H137 6233   1.123   4.057   1.057 -1.4986 -0.1542  0.2275
    9MOL   H138 6234   1.076   3.771   0.994 -2.8849 -2.6565  4.2032
    9MOL   H139 6235   1.039   3.858   1.143 -1.0582 -0.8042 -0.3121
    9MOL   H140 6236   1.231   3.628   1.021  1.3383  1.8133 -1.3113
    9MOL   H141 6237   1.402   3.508   1.073  1.0271 -0.0196 -0.0856
    9MOL   H142 6238   1.490   3.650   1.067  0.3713 -0.6703 -0.4479
    9MOL   H143 6239   1.546   3.568   1.279 -0.3365 -1.0935  0.0406
    9MOL   H144 6240   1.444   3.701   1.308 -0.7705 -0.7077  2.7906
    9MOL   H145 6241   1.335   3.411   1.304 -1.9111 -0.8391  2.0213
    9MOL   H146 6242   1.252   3.553   1.356 -0.5853 -1.3785  0.9778
    9MOL   H147 6243   1.496   3.424   1.485 -0.7562 -0.1102 -0.2872
    9MOL   H148 6244   1.438   3.591   1.524  0.3222 -0.7167  2.8926
    9MOL   H149 6245   1.348   3.457   1.694 -0.1612  1.4062 -0.4360
    9MOL   H150 6246   1.216   3.487   1.586 -0.3714 -0.2386 -1.9983
    9MOL   H151 6247   1.378   3.237   1.575 -0.2471 -1.9875  1.4027
    9MOL   H152 6248   1.228   3.261   1.483  0.4294  1.6599 -0.0660
    9MOL   H153 6249   1.263   3.165   1.753 -0.7115  0.5274  1.1805
    9MOL   C154 6250   1.082   3.238   1.707 -0.1862 -0.6285  0.5121
    9MOL   O155 6251   1.002   3.308   1.635  0.3619 -0.0393 -0.3148
    9MOL   C156 6252   1.035   3.174   1.836  0.7004 -0.3088  0.0933
    9MOL   C157 6253   0.891   3.118   1.830  0.0812 -0.2716 -0.1032
    9MOL   C158 6254   0.856   3.003   1.726  0.4324  0.1584 -0.1900
    9MOL   C159 6255   0.705   2.968   1.719 -0.1896  0.5619 -0.2598
    9MOL   C160 6256   0.687   2.839   1.651  0.2059 -0.2432  0.4657
    9MOL   O161 6257   0.709   2.823   1.531  0.4375  0.0126  0.1443
    9MOL   N162 6258   0.651   2.738   1.733 -0.2507  0.2718  0.0236
    9MOL   C163 6259   0.650   2.594   1.708  0.6151 -0.6474  0.2599
    9MOL   C164 6260   0.508   2.528   1.708 -0.2338 -0.6576 -0.5290
    9MOL   C165 6261   0.507   2.379   1.716 -0.5034  0.1343  0.3561
    9MOL   C166 6262   0.361   2.333   1.744  0.6979  0.4230  0.2440
    9MOL   C167 6263   0.353   2.179   1.734  0.1834 -0.4708 -0.3049
    9MOL   C168 6264   0.225   2.116   1.779 -0.0766 -0.0141  0.0293
    9MOL   N169 6265   0.234   1.976   1.753  0.4554  0.3681 -0.1144
    9MOL   H170 6266   1.110   3.102   1.871  3.2740  0.3744 -3.7382
    9MOL   H171 6267   1.036   3.249   1.915  2.8411 -0.9512  0.7119
    9MOL   H172 6268   0.863   3.088   1.931  0.9007  1.7119  0.7483
    9MOL   H173 6269   0.822   3.199   1.806 -2.1074 -1.8142  0.8871
    9MOL   H174 6270   0.903   2.906   1.746 -1.7344 -1.1229 -1.1586
    9MOL   H175 6271   0.904   3.023   1.630  0.9900 -0.1531  0.0191
    9MOL   H176 6272   0.656   3.047   1.662 -0.5546  0.2897 -0.3274
    9MOL   H177 6273   0.668   2.981   1.821 -1.7529 -0.9269 -0.6167
    9MOL   H178 6274   0.633   2.765   1.829 -2.9162 -1.4735  0.0739
    9MOL   H179 6275   0.714   2.568   1.624  0.6241  1.6382 -0.4538
    9MOL   H180 6276   0.703   2.533   1.782  0.9647  0.6725  1.1144
    9MOL   H181 6277   0.457   2.572   1.794  0.7949  2.0448 -1.2402
    9MOL   H182 6278   0.450   2.559   1.622  0.2707  2.3670  0.1525
    9MOL   H183 6279   0.572   2.364   1.803 -0.4591 -0.8825  0.1510
    9MOL   H184 6280   0.563   2.347   1.628  0.1876  0.5526  0.6451
    9MOL   H185 6281   0.331   2.358   1.846 -0.1755  0.6360 -0.0597
    9MOL   H186 6282   0.281   2.387   1.694 -0.9737 -1.6296  0.6115
    9MOL   H187 6283   0.396   2.141   1.641  2.4659  1.4863 -0.1127
    9MOL   H188 6284   0.439   2.152   1.795  1.3663  0.5263 -1.4861
    9MOL   H189 6285   0.142   2.168   1.733 -0.0158  2.1491  2.3032
    9MOL   H190 6286   0.216   2.128   1.887  2.5256  1.1022  0.1674
    9MOL   H191 6287   0.312   1.941   1.699  0.0626 -2.3353  0.9746
    9MOL   C192 6288   0.150   1.887   1.807 -1.0110 -0.1545 -0.0922
    9MOL   O193 6289   0.054   1.918   1.875 -0.2482  0.7955  0.2753
    9MOL   C194 6290   0.169   1.739   1.777 -0.1822 -0.1408 -0.2359
    9MOL   C195 6291   0.082   1.692   1.655  0.0221  0.3340  0.2149
    9MOL   C196 6292   7.633   1.687   1.687 -0.5167  0.4105 -0.9079
    9MOL   C197 6293   7.590   1.602   1.815  0.3685 -0.1802 -0.1523
    9MOL   C198 6294   7.618   1.450   1.798  0.2607  0.3583 -0.0798
    9MOL   O199 6295   7.627   1.401   1.688  0.7412  0.7755  0.0844
    9MOL   N200 6296   7.652   1.379   1.906 -0.0035 -0.1751  0.0084
    9MOL   C201 6297   7.623   1.402   2.048 -0.3522  0.4264  0.3398
    9MOL   C202 6298   0.042   1.467   2.118 -0.1732 -0.9759 -0.2734
    9MOL   C203 6299   0.037   1.443   2.267 -0.3787 -0.1370 -0.7207
    9MOL   C204 6300   0.174   1.451   2.333  0.0490 -0.2281  0.3272
    9MOL   C205 6301   0.167   1.413   2.478  0.2352  0.0298 -0.0546
    9MOL   C206 6302   0.301   1.431   2.546  0.0584 -0.8150  0.3457
    9MOL   N207 6303   0.299   1.408   2.690  0.0238 -0.2315  0.3592
    9MOL   H208 6304   0.276   1.726   1.759  0.1362 -0.3991  1.7666
    9MOL   H209 6305   0.159   1.673   1.863 -0.2805 -1.4343 -1.2313
    9MOL   H210 6306   0.101   1.753   1.567 -0.4229  1.8017  1.1270
    9MOL   H211 6307   0.108   1.590   1.626  0.4915  0.2055  1.0516
    9MOL   H212 6308   7.586   1.643   1.598  0.4081 -1.4287 -0.5198
    9MOL   H213 6309   7.593   1.787   1.702  1.0805  1.1808 -1.5809
    9MOL   H214 6310   7.484   1.623   1.827  0.1901 -0.9244 -0.3972
    9MOL   H215 6311   7.633   1.647   1.904 -1.4938 -3.2450  2.3881
    9MOL   H216 6312   7.694   1.289   1.886  0.2391  0.0043 -0.2900
    9MOL   H217 6313   7.556   1.488   2.054 -2.1816 -0.7154 -2.6167
    9MOL   H218 6314   7.584   1.318   2.106 -1.8869  1.0581  0.2386
    9MOL   H219 6315   0.133   1.426   2.073 -1.1519 -2.0897 -1.2529
    9MOL   H220 6316   0.047   1.575   2.103  1.9004 -0.6474  2.3586
    9MOL   H221 6317   7.701   1.345   2.285  0.8322 -0.4732  0.4498
    9MOL   H222 6318   7.686   1.523   2.313 -0.7330 -0.0774 -1.2735
    9MOL   H223 6319   0.234   1.377   2.280 -1.5765 -0.4993 -1.1656
    9MOL   H224 6320   0.216   1.550   2.313  0.2414 -0.3450  0.1427
    9MOL   H225 6321   0.091   1.471   2.530  2.5563 -1.2586  5.1187
    9MOL   H226 6322   0.128   1.311   2.487  0.1269  0.0932  0.1926
    9MOL   H227 6323   0.349   1.528   2.531  0.8985 -1.3668 -0.5603
    9MOL   H228 6324   0.380   1.368   2.507  1.2981  0.5522  0.5948
    9MOL   H229 6325   0.231   1.354   2.741  1.9290 -0.9473  2.1947
    9MOL   C230 6326   0.381   1.470   2.769 -0.4189 -0.3683 -0.2113
    9MOL   O231 6327   0.485   1.523   2.738 -0.1027 -0.8443  0.1456
    9MOL   C232 6328   0.330   1.475   2.913 -0.5799 -0.3402 -0.1266
    9MOL   C233 6329   0.355   1.604   2.991 -0.1871 -0.7688  0.2995
    9MOL   C234 6330   0.501   1.654   3.027 -0.1324  0.1326  0.4509
    9MOL   C235 6331   0.509   1.763   3.137  0.2641 -0.5771 -0.4119
    9MOL   C236 6332   0.568   1.720   3.269 -0.3125 -0.6401  0.4519
    9MOL   O237 6333   0.640   1.622   3.279 -0.1750 -0.3323 -0.1022
    9MOL   N238 6334   0.552   1.803   3.371  0.3264  0.5240  0.1868
    9MOL   C239 6335   0.606   1.783   3.509  1.6003 -0.5490 -0.0133
    9MOL   C240 6336   0.728   1.861   3.552  0.2494  0.2552 -0.2713
    9MOL   C241 6337   0.706   2.008   3.540  0.4056 -0.3608 -0.6246
    9MOL   C242 6338   0.827   2.099   3.581  0.0695 -0.1497 -0.1286
    9MOL   C243 6339   0.825   2.248   3.532  0.2171 -0.2047  1.3509
    9MOL   C244 6340   0.915   2.337   3.614  0.1641 -0.3058 -0.4101
    9MOL   N245 6341   1.047   2.281   3.655  0.0745  0.5349  0.7699
    9MOL   H246 6342   0.222   1.458   2.913 -0.7777  0.9152  0.5546
    9MOL   H247 6343   0.363   1.384   2.962  3.4714  1.8744  1.4098
    9MOL   H248 6344   0.314   1.691   2.939 -0.8832 -0.8849  0.6470
    9MOL   H249 6345   0.294   1.616   3.081  0.1835 -2.6563  0.8209
    9MOL   H250 6346   0.550   1.696   2.939 -1.4050  0.6986 -0.0057
    9MOL   H251 6347   0.563   1.567   3.048  1.7768  1.3157 -0.1608
    9MOL   H252 6348   0.412   1.812   3.149  0.8697  0.2860  0.9799
    9MOL   H253 6349   0.571   1.847   3.107 -0.1249 -0.1844 -0.1213
    9MOL   H254 6350   0.511   1.893   3.349  1.8940  1.2179  0.0393
    9MOL   H255 6351   0.527   1.815   3.578  0.2609 -0.4692 -1.5519
    9MOL   H256 6352   0.602   1.676   3.525 -0.0110 -0.2984  1.4436
    9MOL   H257 6353   0.755   1.829   3.653  0.5388 -0.9778 -0.7410
    9MOL   H258 6354   0.805   1.835   3.480 -0.2390  0.3705 -0.8399
    9MOL   H259 6355   0.618   2.055   3.586  1.8058  0.7176  1.0057
    9MOL   H260 6356   0.685   2.018   3.434 -1.3374  0.6602 -0.2159
    9MOL   H261 6357   0.833   2.100   3.690  0.3188  0.4370 -0.1475
    9MOL   H262 6358   0.910   2.042   3.541  1.9024  0.8228  2.1943
    9MOL   H263 6359   0.856   2.236   3.428 -0.7408 -0.3111  1.0764
    9MOL   H264 6360   0.718   2.268   3.530  0.7499  2.8355 -1.3263
    9MOL   H265 6361   0.863   2.356   3.707 -2.0415 -2.4143 -1.1702
    9MOL   H266 6362   0.930   2.431   3.560  1.2766 -0.4864 -0.4160
    9MOL   H267 6363   1.133   2.305   3.609  0.0548  1.1925  1.0792
    9MOL   C268 6364   1.082   2.219   3.769  0.5667 -0.6579  0.9542
    9MOL   O269 6365   0.996   2.215   3.856  0.0173 -0.2694  0.3714
    9MOL   C270 6366   1.218   2.156   3.790 -0.3210  0.3661  0.0320
    9MOL   C271 6367   1.271   2.164   3.932  1.1854  0.0108  0.2437
    9MOL   C272 6368   1.218   2.046   4.026  0.0319  0.9341 -0.2475
    9MOL   C273 6369   1.294   2.031   4.169 -0.2601  0.2321  0.3212
    9MOL   C274 6370   1.268   2.153   4.257 -0.2574 -0.8761  0.7906
    9MOL   O275 6371   1.160   2.158   4.317 -0.2671  0.3758  0.8032
    9MOL   N276 6372   1.355   2.255   4.254  0.0920  0.4894 -0.1045
    9MOL   C277 6373   1.331   2.377   4.321  0.4363 -0.1439 -0.6087
    9MOL   C278 6374   1.457   2.457   4.308 -0.4216 -0.1572 -0.0163
    9MOL   C279 6375   1.496   2.483   4.165 -0.0625  0.0028  0.0692
    9MOL   C280 6376   1.607   2.588   4.162 -0.3056 -0.3965  0.0264
    9MOL   C281 6377   1.660   2.620   4.019 -0.8232  0.0907  0.4057
    9MOL   C282 6378   1.773   2.727   4.028  0.4058  0.6593  0.6528
    9MOL   N283 6379   1.889   2.664   4.099 -0.3347  0.2285 -0.1296
    9MOL   H284 6380   1.203   2.057   3.746  1.0731 -0.1924  0.7818
    9MOL   H285 6381   1.285   2.215   3.728  0.7242 -1.8865 -1.0427
    9MOL   H286 6382   1.380   2.163   3.938  1.2060  2.1602  0.5618
    9MOL   H287 6383   1.247   2.262   3.973  1.2975  0.5120 -0.8840
    9MOL   H288 6384   1.225   1.950   3.975  1.6067  1.7047 -1.5231
    9MOL   H289 6385   1.110   2.052   4.035  0.3789  1.7785  4.4172
    9MOL   H290 6386   1.401   2.033   4.146 -0.7723  1.0521 -2.1021
    9MOL   H291 6387   1.275   1.935   4.215 -0.5366  0.3745  0.5096
    9MOL   H292 6388   1.440   2.248   4.200 -0.0516  1.5003 -0.4602
    9MOL   H293 6389   1.243   2.423   4.277 -0.5926 -2.1449 -0.7183
    9MOL   H294 6390   1.301   2.364   4.425 -1.5370 -0.5228 -1.2101
    9MOL   H295 6391   1.454   2.549   4.367  0.5160 -1.5405  2.2974
    9MOL   H296 6392   1.547   2.429   4.364  0.3544  0.8864 -0.7217
    9MOL   H297 6393   1.412   2.516   4.105 -0.5699  0.5004  1.0404
    9MOL   H298 6394   1.528   2.387   4.124  2.6757  1.1227 -0.5328
    9MOL   H299 6395   1.579   2.680   4.215  0.4149  0.6759 -1.4144
    9MOL   H300 6396   1.691   2.555   4.222 -1.5707  0.4886  2.3678
    9MOL   H301 6397   1.683   2.534   3.956  0.2240  1.1336 -0.6583
    9MOL   H302 6398   1.575   2.669   3.971 -0.9553  0.7864  1.3484
    9MOL   H303 6399   1.745   2.818   4.080 -1.2209  0.5674 -0.0471
    9MOL   H304 6400   1.808   2.763   3.931 -1.6293  0.9699  0.0078
    9MOL   H305 6401   1.899   2.690   4.197  0.9870 -0.9326  0.0523
    9MOL   C306 6402   1.962   2.566   4.048  0.9673  0.0878  1.4605
    9MOL   O307 6403   1.956   2.537   3.930  0.2384  0.9103 -0.3398
    9MOL   C308 6404   2.063   2.497   4.135 -0.9169  0.5337 -0.8529
    9MOL   C309 6405   2.041   2.352   4.159  0.1886 -0.0235  0.7786
    9MOL   C310 6406   1.897   2.317   4.208 -1.0921  0.3476 -0.4622
    9MOL   C311 6407   1.886   2.171   4.255 -0.4578 -0.4484  0.3900
    9MOL   C312 6408   1.740   2.140   4.299 -0.1257 -0.1811 -0.1280
    9MOL   O313 6409   1.653   2.149   4.216  0.1259  0.1457  0.5117
    9MOL   N314 6410   1.716   2.120   4.434  0.1151 -0.5550  0.6965
    9MOL   C315 6411   1.591   2.076   4.491 -0.5837  0.3709  0.1763
    9MOL   C316 6412   1.566   2.140   4.628  0.7640 -0.6282  0.2749
    9MOL   C317 6413   1.438   2.096   4.696  0.6532  0.5006 -0.5723
    9MOL   C318 6414   1.372   2.208   4.771  0.6757 -0.0459 -0.7452
    9MOL   C319 6415   1.290   2.305   4.682  0.3904  0.1615  0.1397
    9MOL   C320 6416   1.190   2.396   4.765  0.1448 -0.8230  0.5187
    9MOL   N321 6417   1.069   2.428   4.679 -0.2471 -0.4170 -0.0432
    9MOL   H322 6418   2.166   2.506   4.102  0.2652  1.3394  2.8058
    9MOL   H323 6419   2.053   2.552   4.229  0.7839  0.5516 -0.6741
    9MOL   H324 6420   2.069   2.300   4.067  1.1886 -0.6466  1.4244
    9MOL   H325 6421   2.116   2.320   4.232  1.7747  0.3502 -0.6502
    9MOL   H326 6422   1.816   2.331   4.136  0.2530  0.5949 -1.9736
    9MOL   H327 6423   1.868   2.382   4.291  0.3820 -1.7196  1.7317
    9MOL   H328 6424   1.958   2.153   4.334 -1.2854 -1.4825  0.9256
    9MOL   H329 6425   1.925   2.109   4.174  2.2382 -0.7728  1.9025
    9MOL   H330 6426   1.796   2.138   4.493 -0.9102  1.3284  1.5593
    9MOL   H331 6427   1.517   2.124   4.428 -3.9106 -1.2379  2.7146
    9MOL   H332 6428   1.580   1.968   4.492 -1.6968  0.4733 -0.2175
    9MOL   H333 6429   1.653   2.119   4.689 -0.2125  1.4251  2.4592
    9MOL   H334 6430   1.555   2.248   4.617  0.6720 -0.7959 -1.5384
    9MOL   H335 6431   1.459   2.008   4.757 -0.6822  1.1465  0.8541
    9MOL   H336 6432   1.352   2.064   4.637 -1.0588  2.6882  0.6571
    9MOL   H337 6433   1.309   2.161   4.847 -0.0349  2.7304  0.4761
    9MOL   H338 6434   1.450   2.261   4.826  0.5246  0.4673 -1.0195
    9MOL   H339 6435   1.367   2.368   4.639  0.2349 -1.2256 -2.2891
    9MOL   H340 6436   1.243   2.242   4.606  0.9422 -0.8440  0.6215
    9MOL   H341 6437   1.245   2.482   4.800  0.6128 -0.9875  0.1918
    9MOL   H342 6438   1.155   2.342   4.853  0.4215 -0.9919  0.5237
    9MOL   H343 6439   1.000   2.355   4.674  0.3914 -1.0487  0.2554
    9MOL   C344 6440   1.079   2.504   4.569 -0.0218  0.2123 -0.3968
    9MOL   O345 6441   1.183   2.567   4.536 -0.0623 -0.2097 -0.0530
    9MOL   C346 6442   0.945   2.510   4.483 -0.2292  0.0650 -0.2472
    9MOL   C347 6443   0.944   2.401   4.376 -0.0718 -0.5309 -0.0363
    9MOL   C348 6444   0.930   2.460   4.231  0.6262 -0.5009 -0.1248
    9MOL   C349 6445   0.920   2.356   4.120 -0.3160 -0.2838 -0.2000
    9MOL   C350 6446   0.788   2.283   4.108  0.2730 -0.2307  1.2082
    9MOL   O351 6447   0.690   2.326   4.172  0.0703 -0.8565 -0.4985
    9MOL   N352 6448   0.791   2.172   4.032  0.1968  0.2974  0.6973
    9MOL   C353 6449   0.678   2.081   3.998 -0.4238  0.1151 -0.3209
    9MOL   C354 6450   0.734   1.943   3.971  0.8978 -0.0601 -0.0557
    9MOL   C355 6451   0.794   1.887   4.101  0.1819  0.3928 -0.0081
    9MOL   C356 6452   0.914   1.792   4.069  1.2798 -0.8393  0.3382
    9MOL   C357 6453   0.970   1.732   4.203  0.0660  0.2860 -0.5026
    9MOL   C358 6454   1.096   1.638   4.174  0.3934 -0.4136  0.1019
    9MOL   N359 6455   1.075   1.528   4.080 -0.1036 -0.0621  0.4725
    9MOL   H360 6456   0.861   2.508   4.553 -0.4345  0.2022 -0.4910
    9MOL   H361 6457   0.943   2.612   4.444 -0.5546  0.0950 -0.1486
    9MOL   H362 6458   1.036   2.343   4.373 -0.7144 -1.5521 -0.7245
    9MOL   H363 6459   0.863   2.333   4.405 -1.6046  2.0619  1.9807
    9MOL   H364 6460   0.997   2.542   4.204 -1.4129  1.3852  0.4880
    9MOL   H365 6461   0.845   2.527   4.228  0.4823 -0.5121  2.3976
    9MOL   H366 6462   1.005   2.290   4.137  0.4629  0.2183 -2.0091
    9MOL   H367 6463   0.933   2.408   4.025  0.0957  0.5576  0.3073
    9MOL   H368 6464   0.872   2.149   3.976 -0.1892  0.7273 -0.0518
    9MOL   H369 6465   0.611   2.071   4.083  0.4557 -0.9591  0.2464
    9MOL   H370 6466   0.612   2.124   3.922 -1.9210  0.8138  1.3378
    9MOL   H371 6467   0.650   1.886   3.932  1.2066  1.1701 -2.6157
    9MOL   H372 6468   0.804   1.936   3.888  1.4757  1.1558  0.3148
    9MOL   H373 6469   0.715   1.837   4.157 -1.7226  3.8168  0.5082
    9MOL   H374 6470   0.839   1.965   4.163  0.3583  0.2584  0.0303
    9MOL   H375 6471   0.892   1.706   4.005 -0.7604 -1.2700  1.5855
    9MOL   H376 6472   0.983   1.843   4.001 -0.2660 -0.6540 -1.1269
    9MOL   H377 6473   1.009   1.809   4.270  1.6495 -2.5419  1.9634
    9MOL   H378 6474   0.892   1.679   4.257  1.6038 -1.4692  0.0691
    9MOL   H379 6475   1.133   1.607   4.272  0.3383  1.5371  0.7451
    9MOL   H380 6476   1.169   1.709   4.135  0.1331 -0.8946 -1.2982
    9MOL   H381 6477   1.036   1.445   4.121 -1.0976 -0.8527 -2.0194
    9MOL   C382 6478   1.106   1.520   3.949  0.6088 -0.3268 -0.0878
    9MOL   O383 6479   1.153   1.616   3.895  0.2055 -0.3539 -0.0071
    9MOL   C384 6480   1.086   1.390   3.875 -0.7717 -0.6080 -0.3637
    9MOL   C385 6481   1.065   1.400   3.720  0.0180  0.1412 -0.4034
    9MOL   C386 6482   0.941   1.487   3.695 -0.8042 -0.3874  0.0566
    9MOL   C387 6483   0.912   1.515   3.539 -0.3049 -0.3984  0.0231
    9MOL   C388 6484   1.018   1.603   3.472 -0.5116  0.6852  0.1811
    9MOL   O389 6485   1.021   1.584   3.351  0.2810 -0.0936  0.4054
    9MOL   N390 6486   1.106   1.670   3.540 -0.1408 -0.6566 -0.0047
    9MOL   C391 6487   1.207   1.758   3.479  0.1173  0.7225 -0.1514
    9MOL   C392 6488   1.273   1.838   3.585  0.1344  0.2197 -0.7760
    9MOL   C393 6489   1.359   1.947   3.525 -0.2853 -0.2998  0.0610
    9MOL   C394 6490   1.485   1.905   3.459  0.2549 -0.3930  0.6339
    9MOL   C395 6491   1.564   2.028   3.404 -0.6514  0.1662  0.6007
    9MOL   C396 6492   1.669   1.969   3.311 -0.7132 -0.4288  0.5263
    9MOL   N397 6493   1.746   2.072   3.254 -0.2650  0.2610  0.5305
    9MOL   H398 6494   1.174   1.329   3.897 -0.7940 -0.8007 -0.7936
    9MOL   H399 6495   0.992   1.355   3.917 -1.8938  2.2314 -0.4043
    9MOL   H400 6496   1.155   1.438   3.672 -1.6679  3.2648 -1.1932
    9MOL   H401 6497   1.054   1.297   3.685 -1.4800 -0.5750  2.0037
    9MOL   H402 6498   0.943   1.581   3.749 -1.6785 -0.3860  0.0958
    9MOL   H403 6499   0.853   1.432   3.729 -1.4990  0.8559  0.2615
    9MOL   H404 6500   0.812   1.558   3.534 -0.7863 -1.6338 -1.2683
    9MOL   H405 6501   0.896   1.421   3.486  0.6904 -0.1108 -0.8054
    9MOL   H406 6502   1.097   1.679   3.640 -2.6942  0.9110 -0.3247
    9MOL   H407 6503   1.275   1.702   3.416 -1.6718 -0.5454 -1.0204
    9MOL   H408 6504   1.170   1.833   3.408 -0.5369  0.6910  0.1524
    9MOL   H409 6505   1.197   1.880   3.652  0.2902  3.1796 -2.3567
    9MOL   H410 6506   1.336   1.775   3.647 -0.1473  0.2486 -0.4568
    9MOL   H411 6507   1.382   2.028   3.594 -0.3224 -0.6970  0.5436
    9MOL   H412 6508   1.299   1.992   3.447 -0.9066  0.0891  0.7609
    9MOL   H413 6509   1.552   1.861   3.532  1.5298 -0.4289 -0.5504
    9MOL   H414 6510   1.468   1.836   3.377 -1.1751 -0.2889  0.8115
    9MOL   H415 6511   1.494   2.091   3.351 -0.8663  0.3369  1.0816
    9MOL   H416 6512   1.600   2.091   3.486  0.5554 -1.5440  1.4250
    9MOL   H417 6513   1.623   1.924   3.223 -0.6207  1.0131 -0.2857
    9MOL   H418 6514   1.728   1.890   3.356  1.0175  0.8443  0.5628
    9MOL   H419 6515   1.704   2.163   3.267 -2.9163 -0.8794  0.2368
    9MOL   C420 6516   1.858   2.064   3.188  0.2403  0.0977 -0.1295
    9MOL   O421 6517   1.933   1.970   3.207 -0.3353  0.6301  0.1315
    9MOL   C422 6518   1.897   2.186   3.102  0.5111  0.1565  0.5057
    9MOL   C423 6519   1.998   2.163   2.979  0.7737  0.5169 -0.1789
    9MOL   C424 6520   1.944   2.079   2.855  0.1308 -0.0013 -0.0109
    9MOL   C425 6521   1.887   2.172   2.747 -0.0899 -0.1183  0.0084
    9MOL   C426 6522   1.774   2.265   2.792  0.2512  0.3971  0.1307
    9MOL   O427 6523   1.667   2.214   2.824 -0.6801  0.4985 -0.7882
    9MOL   N428 6524   1.811   2.394   2.813  0.3038 -0.0835 -0.2347
    9MOL   C429 6525   1.732   2.491   2.888  0.1477  0.3056  0.6730
    9MOL   C430 6526   1.799   2.627   2.881 -0.1451 -0.6718  0.4317
    9MOL   C431 6527   1.747   2.711   2.993 -0.0368 -0.1420 -0.5850
    9MOL   C432 6528   1.810   2.848   2.999 -0.0223  0.6093  0.3493
    9MOL   C433 6529   1.786   2.919   3.136  0.0716 -0.3991 -0.1824
    9MOL   C434 6530   1.908   2.993   3.204 -0.0950 -0.4225 -0.0483
    9MOL   N435 6531   2.010   2.895   3.243 -0.1810 -0.0715  0.2427
    9MOL   H436 6532   1.807   2.233   3.061  1.0260  0.7059 -0.0159
    9MOL   H437 6533   1.945   2.258   3.169  1.6660 -1.6157  1.5946
    9MOL   H438 6534   2.021   2.265   2.946 -0.1901  0.5175 -0.8598
    9MOL   H439 6535   2.082   2.113   3.028 -1.4290 -1.2931  1.8729
    9MOL   H440 6536   1.886   1.989   2.877  0.1787 -0.4087 -1.5055
    9MOL   H441 6537   2.030   2.021   2.820 -0.3967 -0.8591  0.0848
    9MOL   H442 6538   1.866   2.121   2.653 -3.4861 -2.0966  1.7380
    9MOL   H443 6539   1.969   2.239   2.720 -0.7226  0.1167 -1.4023
    9MOL   H444 6540   1.901   2.413   2.773  0.5055  0.5968  0.5416
    9MOL   H445 6541   1.628   2.491   2.855 -0.1416 -0.4033  1.5838
    9MOL   H446 6542   1.737   2.456   2.991 -1.3991  1.6991  1.2373
    9MOL   H447 6543   1.908   2.622   2.878 -0.2687 -2.9997 -2.3972
    9MOL   H448 6544   1.770   2.680   2.790 -0.0760 -1.5532 -0.1077
    9MOL   H449 6545   1.764   2.661   3.088  0.0333  2.3026  0.7187
    9MOL   H450 6546   1.638   2.709   2.994 -0.0222 -2.0287  0.2521
    9MOL   H451 6547   1.918   2.832   2.995  0.4697  2.1486  4.3630
    9MOL   H452 6548   1.776   2.902   2.911  1.5584  0.2334 -0.5187
    9MOL   H453 6549   1.707   2.989   3.109  1.0204  0.7976  0.0684
    9MOL   H454 6550   1.742   2.854   3.211 -0.6656  0.1516 -0.1319
    9MOL   H455 6551   1.876   3.035   3.299 -0.1232  0.3582 -0.4018
    9MOL   H456 6552   1.960   3.073   3.150 -0.0053 -1.3476 -1.3388
    9MOL   H457 6553   2.000   2.826   3.317  0.2653 -0.9989 -0.5584
    9MOL   C458 6554   2.123   2.875   3.173 -0.3214 -0.6359 -0.8024
    9MOL   O459 6555   2.163   2.944   3.085 -0.0850 -0.0239  0.0014
    9MOL   C460 6556   2.214   2.760   3.225  0.3679  0.7651 -0.1420
    9MOL   C461 6557   2.221   2.630   3.134  0.2885 -0.8278 -0.4597
    9MOL   C462 6558   2.273   2.502   3.205 -0.2212 -0.3257 -0.1803
    9MOL   C463 6559   2.388   2.437   3.128 -0.3119 -0.5896 -0.0621
    9MOL   C464 6560   2.403   2.288   3.150 -0.4314 -0.0618 -0.6368
    9MOL   O465 6561   2.304   2.208   3.143  0.4264 -0.5590  0.1402
    9MOL   N466 6562   2.528   2.248   3.187 -0.2353  0.3391  0.1006
    9MOL   C467 6563   2.558   2.121   3.243  0.4538 -0.0561  0.1236
    9MOL   C468 6564   2.677   2.137   3.345  0.0816  0.0803 -0.5063
    9MOL   C469 6565   2.694   1.997   3.417 -0.0304 -0.4604  0.1304
    9MOL   C470 6566   2.632   1.983   3.553  0.0905 -0.2720  0.0353
    9MOL   C471 6567   2.629   1.835   3.598  0.1998 -0.2707 -0.5945
    9MOL   C472 6568   2.550   1.817   3.724 -0.0829 -0.2972 -0.1407
    9MOL   N473 6569   2.554   1.685   3.771  0.0648  0.6294 -0.8069
    9MOL   H474 6570   2.316   2.790   3.249  0.9127  0.6849 -2.2338
    9MOL   H475 6571   2.167   2.720   3.315 -1.4146  1.1677 -0.8835
    9MOL   H476 6572   2.118   2.616   3.103  0.6220 -0.6466 -1.6744
    9MOL   H477 6573   2.269   2.660   3.041 -0.0674  0.0796 -0.3566
    9MOL   H478 6574   2.190   2.432   3.213  1.2922 -2.0647  0.4797
    9MOL   H479 6575   2.301   2.519   3.309  1.5443  1.4360 -0.9281
    9MOL   H480 6576   2.482   2.491   3.132 -0.3389 -0.3588 -1.9224
    9MOL   H481 6577   2.352   2.446   3.025 -1.2637  0.0398  0.3144
    9MOL   H482 6578   2.601   2.318   3.196 -1.3999  1.3585  2.0209
    9MOL   H483 6579   2.472   2.081   3.297  0.7631 -1.4639 -0.4275
    9MOL   H484 6580   2.587   2.050   3.166  0.2794 -0.1123  0.1094
    9MOL   H485 6581   2.768   2.167   3.294 -0.4264  1.6024 -0.5618
    9MOL   H486 6582   2.636   2.219   3.404  0.5282  0.1296 -0.2697
    9MOL   H487 6583   2.800   1.990   3.438 -0.3168  0.5324  2.0482
    9MOL   H488 6584   2.667   1.911   3.356  0.2960 -0.2890 -0.2509
    9MOL   H489 6585   2.694   2.045   3.618  0.8875 -3.9404  2.8934
    9MOL   H490 6586   2.530   2.021   3.550  0.3163  0.2629 -1.6727
    9MOL   H491 6587   2.587   1.778   3.515 -2.5847  0.0889  0.5265
    9MOL   H492 6588   2.728   1.789   3.601 -0.3746 -1.4328  1.7833
    9MOL   H493 6589   2.449   1.858   3.720  0.5383  1.3902  1.1817
    9MOL   H494 6590   2.598   1.878   3.801 -0.1534  2.1555 -1.9891
    9MOL   H495 6591   2.646   1.651   3.798 -0.5154  0.0902  0.5218
    9MOL   C496 6592   2.461   1.592   3.744 -0.2507 -0.5564 -0.3439
    9MOL   O497 6593   2.353   1.619   3.687  0.3079  0.2143  0.1704
    9MOL   C498 6594   2.494   1.444   3.776 -0.2387  0.4023  0.0689
    9MOL   C499 6595   2.374   1.367   3.828 -0.2989  0.3972  0.3135
    9MOL   C500 6596   2.402   1.219   3.844 -0.0738  0.1604 -0.7355
    9MOL   C501 6597   2.278   1.131   3.854 -0.0619 -0.3686 -0.3919
    9MOL   C502 6598   2.211   1.128   3.992  0.3403 -0.8891  0.7517
    9MOL   O503 6599   2.135   1.221   4.029  0.7871 -0.1392 -0.1722
    9MOL   N504 6600   2.246   1.023   4.065 -0.4415 -0.2006 -0.0071
    9MOL   C505 6601   2.201   0.987   4.195  0.3638 -0.7011  1.0814
    9MOL   C506 6602   2.085   0.886   4.199 -0.3173 -0.4634 -0.0996
    9MOL   C507 6603   2.118   0.742   4.178 -0.0955  0.5755  0.2324
    9MOL   C508 6604   1.991   0.661   4.162 -0.5845  0.2901  0.3659
    9MOL   C509 6605   2.003   0.508   4.153  0.2438 -0.3460 -0.0890
    9MOL   C510 6606   2.056   0.436   4.277  0.1133 -0.2337  0.7971
    9MOL   N511 6607   2.041   0.286   4.264 -0.3840  0.4737  0.3496
    9MOL   H512 6608   2.520   1.400   3.680 -0.6225  0.8915 -0.2609
    9MOL   H513 6609   2.582   1.438   3.841 -0.8091  1.2929  0.9423
    9MOL   H514 6610   2.339   1.395   3.928 -1.1503 -1.5985  0.5941
    9MOL   H515 6611   2.294   1.384   3.755 -0.0988 -0.6643 -0.1556
    9MOL   H516 6612   2.454   1.208   3.939  0.2681 -0.0641 -0.9483
    9MOL   H517 6613   2.465   1.182   3.763  2.6380  0.0960  1.3649
    9MOL   H518 6614   2.303   1.026   3.839  0.5297 -0.1604 -0.9057
    9MOL   H519 6615   2.204   1.164   3.782 -1.7336  0.2536  1.5919
    9MOL   H520 6616   2.306   0.959   4.015  1.3026  1.7032 -0.4129
    9MOL   H521 6617   2.288   0.935   4.235 -0.0412  0.0440  2.9566
    9MOL   H522 6618   2.188   1.073   4.261  2.0517  0.9249 -0.6235
    9MOL   H523 6619   2.031   0.906   4.292 -1.4867 -1.9615 -0.4367
    9MOL   H524 6620   2.019   0.918   4.118 -0.0015  0.8711  0.1453
    9MOL   H525 6621   2.186   0.701   4.252 -1.1513 -0.5531  0.5799
    9MOL   H526 6622   2.171   0.730   4.083  1.9950 -1.7972  1.6360
    9MOL   H527 6623   1.932   0.679   4.252 -1.7963  1.3049 -0.6214
    9MOL   H528 6624   1.926   0.710   4.089  0.3633 -0.2002 -0.8226
    9MOL   H529 6625   1.899   0.479   4.139  0.0204  0.2111  0.4007
    9MOL   H530 6626   2.059   0.480   4.064  0.6713  0.7629 -0.1765
    9MOL   H531 6627   2.015   0.475   4.370  0.5707  0.6817  0.6148
    9MOL   H532 6628   2.160   0.468   4.283 -0.4237  1.6704  0.2741
    9MOL   H533 6629   2.111   0.238   4.209 -1.7249  1.3028 -2.1573
    9MOL   C534 6630   1.953   0.210   4.333  0.1729  0.4971 -0.4945
    9MOL   O535 6631   1.884   0.259   4.420 -0.0847  0.1700  0.5587
    9MOL   C536 6632   1.943   0.066   4.302 -0.0357  0.7767 -0.9408
    9MOL   C537 6633   2.007   7.692   4.420  0.2490  0.0759 -0.4902
    9MOL   C538 6634   2.147   0.019   4.486  0.2758 -0.3290 -0.5700
    9MOL   C539 6635   2.267   7.689   4.398  0.3666 -0.2993  0.5636
    9MOL   C540 6636   2.280   0.043   4.255 -1.0004 -0.3141  0.0623
    9MOL   O541 6637   2.307   0.166   4.249  0.0369  0.8795 -0.3048
    9MOL   N542 6638   2.277   7.674   4.148 -0.3136  0.4147  0.4824
    9MOL   C543 6639   2.235   0.010   4.014  0.4088  0.4870 -0.1876
    9MOL   C544 6640   2.353   0.066   3.933  0.6265  0.1649 -0.4818
    9MOL   C545 6641   2.299   0.117   3.800  0.4433  0.8081 -0.1496
    9MOL   C546 6642   2.405   0.156   3.699  0.2897  0.1328  0.2336
    9MOL   C547 6643   2.358   0.230   3.568  0.0309 -0.1256 -0.2292
    9MOL   C548 6644   2.483   0.287   3.497 -0.2566  0.5204  0.3695
    9MOL   N549 6645   2.601   0.198   3.488 -0.6941 -0.6237  0.1364
    9MOL   H550 6646   1.839   0.038   4.293  0.2487 -0.1861 -1.3094
    9MOL   H551 6647   1.988   0.041   4.206 -1.3557 -4.6019 -0.3080
    9MOL   H552 6648   1.946   7.674   4.508  2.5741 -1.7201  0.8279
    9MOL   H553 6649   2.015   7.595   4.370  2.4069  1.0067 -2.0413
    9MOL   H554 6650   2.165   7.670   4.577  1.8731  1.3955  0.2180
    9MOL   H555 6651   2.158   0.123   4.515  2.5806 -0.7840  0.3414
    9MOL   H556 6652   2.259   7.581   4.387  1.2380 -0.3407  0.3156
    9MOL   H557 6653   2.364   0.007   4.442 -0.8253  0.9696  2.5088
    9MOL   H558 6654   2.291   7.577   4.172 -1.5393  0.4464  1.3579
    9MOL   H559 6655   2.197   7.630   3.962 -1.4048  1.6545 -0.9054
    9MOL   H560 6656   2.147   0.075   4.015  1.5614  2.1163 -1.5691
    9MOL   H561 6657   2.410   0.147   3.978  1.2998 -0.3799 -0.3493
    9MOL   H562 6658   2.413   7.684   3.914  1.2017  0.8468 -1.9772
    9MOL   H563 6659   2.239   0.207   3.810  1.7939  1.7688 -0.5622
    9MOL   H564 6660   2.233   0.038   3.764 -0.0332  1.3332 -0.4240
    9MOL   H565 6661   2.475   0.214   3.760 -0.3275  1.3434 -0.1837
    9MOL   H566 6662   2.454   0.061   3.681 -0.6422 -0.2587 -0.2704
    9MOL   H567 6663   2.300   0.166   3.501  0.0402 -0.1025 -0.2592
    9MOL   H568 6664   2.310   0.325   3.588 -0.4618 -0.6245  1.0796
    9MOL   H569 6665   2.513   0.375   3.552 -1.1920  0.5503  0.8475
    9MOL   H570 6666   2.459   0.323   3.397  0.4312  0.0627  0.0338
    9MOL   H571 6667   2.668   0.203   3.563 -1.1017 -0.4826  0.4917
    9MOL   C572 6668   2.646   0.142   3.374  0.4145  0.9982 -0.4107
    9MOL   O573 6669   2.574   0.139   3.271 -0.0570  0.0738 -0.0217
    9MOL   C574 6670   2.786   0.086   3.373 -0.5174  0.4209  0.1378
    9MOL   C575 6671   2.770   7.638   3.359  0.2538  0.0368 -0.0438
    9MOL   C576 6672   2.903   7.565   3.382  0.5232  0.3845  0.1524
    9MOL   C577 6673   3.001   7.578   3.260  0.4877  0.5176 -0.1744
    9MOL   C578 6674   3.140   7.537   3.297 -0.4999  0.0774  0.4302
    9MOL   O579 6675   3.170   7.508   3.416  0.4226 -0.2483  0.2482
    9MOL   N580 6676   3.232   7.524   3.195 -0.4805 -0.1024  1.0779
    9MOL   C581 6677   3.371   7.500   3.219  0.2226 -0.1805  0.2983
    9MOL   C582 6678   3.451   7.584   3.119 -0.3089 -0.5601 -0.4176
    9MOL   C583 6679   3.600   7.594   3.141 -0.0523  0.0180  0.5851
    9MOL   C584 6680   3.675   7.668   3.025  0.4009 -0.2067  0.2722
    9MOL   C585 6681   3.828   7.643   3.040 -0.0295  0.4576  0.3845
    9MOL   C586 6682   3.917   0.019   2.954 -0.1169 -0.2131  0.0304
    9MOL   N587 6683   4.057   7.681   2.959 -0.7898 -0.0380 -0.1919
    9MOL   H588 6684   2.845   0.129   3.292 -0.4817 -1.1303 -0.7060
    9MOL   H589 6685   2.838   0.108   3.466 -1.8632  1.6188  0.6211
    9MOL   H590 6686   2.698   7.602   3.432  1.1261 -1.1548  0.2463
    9MOL   H591 6687   2.737   7.603   3.261  2.9838  0.9513 -1.3598
    9MOL   H592 6688   2.880   7.459   3.386  2.3676 -0.0622 -0.5477
    9MOL   H593 6689   2.946   7.604   3.474  0.1871  1.5459 -0.1694
    9MOL   H594 6690   3.005   7.681   3.226  2.2837  0.0483 -1.4341
    9MOL   H595 6691   2.971   7.513   3.178 -2.5014  1.4670  0.0994
    9MOL   H596 6692   3.211   7.546   3.099 -0.7538 -0.8007  0.9792
    9MOL   H597 6693   3.420   7.524   3.313  0.0479 -2.1282  0.8942
    9MOL   H598 6694   3.398   7.395   3.208 -0.7051 -0.2350 -1.7337
    9MOL   H599 6695   3.430   7.537   3.022  2.2695 -0.1395 -1.2231
    9MOL   H600 6696   3.407   7.683   3.107 -1.9329 -0.9963  1.6373
    9MOL   H601 6697   3.638   7.494   3.160  0.2954  0.2535  1.1585
    9MOL   H602 6698   3.616   7.650   3.233  0.0922  2.7618 -1.0536
    9MOL   H603 6699   3.652   7.616   2.932 -0.5796  0.5308  0.1003
    9MOL   H604 6700   3.637   0.062   3.018  0.3597 -0.0743  2.0634
    9MOL   H605 6701   3.852   7.675   3.141  1.7883 -0.9985  0.4290
    9MOL   H606 6702   3.847   7.536   3.038 -1.1678  0.2391  0.8463
    9MOL   H607 6703   3.911   0.122   2.988 -1.1877 -0.7156  1.4154
    9MOL   H608 6704   3.908   0.010   2.846 -1.6802 -1.1673  0.2292
    9MOL   H609 6705   4.083   7.601   2.904 -1.4171 -1.4682  1.5464
    9MOL   C610 6706   4.162   0.043   3.002 -0.1621  0.0021 -0.0934
    9MOL   O611 6707   4.150   0.152   3.068 -0.3727  0.1516  0.0616
    9MOL   C612 6708   4.301   7.689   2.981  0.1838 -0.0928 -0.5319
    9MOL   C613 6709   4.395   0.008   3.099  0.6449 -0.1393  0.7359
    9MOL   C614 6710   4.542   7.677   3.061  0.3396 -0.4427  0.4220
    9MOL   C615 6711   4.643   0.008   3.169 -0.3038 -0.5221 -0.4048
    9MOL   C616 6712   4.628   7.609   3.281  0.4178  0.7674 -0.3614
    9MOL   O617 6713   4.635   7.487   3.260  0.2633 -0.3819 -0.2204
    9MOL   N618 6714   4.598   7.661   3.406  0.0080  0.1473 -0.0647
    9MOL   C619 6715   4.590   7.580   3.526  0.2133 -0.1201 -0.8198
    9MOL   C620 6716   4.455   7.515   3.537 -0.2327 -0.3451 -0.3972
    9MOL   C621 6717   4.425   7.445   3.671 -0.0776 -0.2281  0.6854
    9MOL   C622 6718   4.279   7.404   3.702 -0.4124 -0.1197 -0.2258
    9MOL   C623 6719   4.237   7.284   3.631  0.7572 -0.0107 -0.4602
    9MOL   C624 6720   4.316   7.147   3.649 -0.0721 -0.0355 -0.3068
    9MOL   N625 6721   4.328   7.114   3.788  0.5105  0.2104  0.2140
    9MOL   H626 6722   4.295   7.580   2.981 -1.8209 -0.0063  0.9986
    9MOL   H627 6723   4.359   0.030   2.903  0.9182  3.4492  2.1050
    9MOL   H628 6724   4.401   0.115   3.119 -0.3326 -0.2917  1.9359
    9MOL   H629 6725   4.360   7.652   3.179 -1.1719 -1.7767 -1.3081
    9MOL   H630 6726   4.573   0.014   2.967 -2.0711 -1.9134 -1.1510
    9MOL   H631 6727   4.537   7.569   3.047  1.1223 -0.3070 -0.8945
    9MOL   H632 6728   4.626   0.105   3.215  2.4492  0.1245 -0.6642
    9MOL   H633 6729   4.742   0.002   3.122 -1.1391 -1.2334 -2.1353
    9MOL   H634 6730   4.570   0.050   3.410 -0.9201  0.0249 -2.4591
    9MOL   H635 6731   4.677   7.514   3.519  1.2386  1.1890 -0.5077
    9MOL   H636 6732   4.624   7.646   3.605 -0.8386 -0.2809 -0.2238
    9MOL   H637 6733   4.378   7.588   3.512 -1.1586 -0.3658  2.2053
    9MOL   H638 6734   4.449   7.444   3.455 -0.9629 -0.2682 -0.4184
    9MOL   H639 6735   4.448   7.519   3.748  0.3413  0.1544  0.1962
    9MOL   H640 6736   4.485   7.355   3.689  0.3576 -0.1623 -0.3756
    9MOL   H641 6737   4.258   7.396   3.809 -0.5869  0.4169 -0.2212
    9MOL   H642 6738   4.221   7.492   3.677 -0.1272 -0.0286 -0.5655
    9MOL   H643 6739   4.130   7.267   3.647  1.2502 -0.9855  2.0290
    9MOL   H644 6740   4.238   7.299   3.523  0.6521  2.4649 -0.1509
    9MOL   H645 6741   4.411   7.159   3.597  0.2482 -1.8009 -0.1449
    9MOL   H646 6742   4.257   7.068   3.603 -1.6986  0.6892  0.4818
    9MOL   H647 6743   4.279   7.171   3.856  2.5997  1.1681  0.9502
    9MOL   C648 6744   4.402   7.010   3.830 -0.6273 -0.4527  0.4691
    9MOL   O649 6745   4.468   6.938   3.749  0.6325  0.1483  0.9033
    9MOL   C650 6746   4.413   6.979   3.985 -1.0745 -0.0533  0.2260
    9MOL   C651 6747   4.478   7.104   4.049  0.5591  0.3538 -0.3207
    9MOL   C652 6748   4.631   7.100   4.039 -0.6817  0.3077  0.6051
    9MOL   C653 6749   4.692   7.238   4.073 -0.6323 -0.0298  0.4816
    9MOL   C654 6750   4.843   7.244   4.101  0.4014  0.0458  0.2901
    9MOL   O655 6751   4.873   7.203   4.218 -0.5294 -0.0568 -0.1730
    9MOL   N656 6752   4.926   7.277   4.005 -0.5867  0.2376 -0.2706
    9MOL   C657 6753   5.067   7.272   4.017  0.5088  0.3241  0.0907
    9MOL   C658 6754   5.126   7.189   3.911 -0.4791 -0.0714 -0.0175
    9MOL   C659 6755   5.279   7.170   3.920  0.0369 -0.1710  0.7972
    9MOL   C660 6756   5.337   7.092   3.804 -0.1442 -0.0278 -0.1911
    9MOL   C661 6757   5.303   6.943   3.812 -0.9849  0.2352  0.2944
    9MOL   C662 6758   5.360   6.865   3.691 -0.5135 -0.1094 -0.4407
    9MOL   N663 6759   5.305   6.734   3.689 -0.6237  0.1153  0.0132
    9MOL   H664 6760   4.320   6.955   4.036 -0.4948  0.7411  1.6871
    9MOL   H665 6761   4.472   6.887   3.985 -2.7547 -1.1581 -1.2827
    9MOL   H666 6762   4.453   7.195   3.996  0.9075 -0.4234 -1.8422
    9MOL   H667 6763   4.454   7.111   4.155  1.5921 -2.8459  0.1959
    9MOL   H668 6764   4.657   7.068   3.938  0.8196 -0.4271  1.2145
    9MOL   H669 6765   4.665   7.018   4.102 -2.0765 -2.0145 -1.5257
    9MOL   H670 6766   4.650   7.271   4.168  1.0703  3.0698  0.2397
    9MOL   H671 6767   4.667   7.307   3.992 -1.9024  0.2663  1.1157
    9MOL   H672 6768   4.891   7.313   3.918 -1.9732  0.4076  0.3564
    9MOL   H673 6769   5.106   7.373   4.016  1.4549 -0.0055  1.5888
    9MOL   H674 6770   5.089   7.241   4.119 -0.5096  2.5017  1.0071
    9MOL   H675 6771   5.079   7.091   3.925  0.8172 -0.0715  4.8890
    9MOL   H676 6772   5.100   7.237   3.816 -1.8954 -2.1077 -0.7178
    9MOL   H677 6773   5.307   7.130   4.017 -0.1632  3.5580  2.5026
    9MOL   H678 6774   5.328   7.267   3.909 -2.0440  0.5485 -3.3975
    9MOL   H679 6775   5.300   7.118   3.705  1.0674  0.3285 -0.5642
    9MOL   H680 6776   5.445   7.104   3.796 -0.2372  0.7234 -0.3305
    9MOL   H681 6777   5.354   6.908   3.901 -0.1245 -0.4801 -0.4663
    9MOL   H682 6778   5.198   6.919   3.822 -0.8405 -1.1900 -1.3172
    9MOL   H683 6779   5.469   6.853   3.698 -0.4082  1.8548  1.9593
    9MOL   H684 6780   5.330   6.925   3.605 -1.5275  1.3616  0.9197
    9MOL   H685 6781   5.227   6.709   3.749 -0.1926 -0.3372  0.3902
    9MOL   C686 6782   5.354   6.637   3.611  0.4270 -1.1033 -0.9126
    9MOL   O687 6783   5.455   6.658   3.536  0.4854  0.2394  0.3186
    9MOL   C688 6784   5.270   6.508   3.617  0.2310  1.2309  0.3870
    9MOL   C689 6785   5.335   6.377   3.562  0.2855  0.5567 -0.0704
    9MOL   C690 6786   5.308   6.335   3.412 -0.4410  0.2771  0.6865
    9MOL   C691 6787   5.391   6.214   3.368  0.3040  0.4095  0.6934
    9MOL   C692 6788   5.332   6.076   3.400 -0.4742 -0.1587  0.6015
    9MOL   O693 6789   5.347   6.025   3.512  0.1272  0.1675  0.3468
    9MOL   N694 6790   5.255   6.013   3.311 -0.0741 -0.0303 -0.1700
    9MOL   C695 6791   5.217   5.876   3.330  0.1718 -0.1654  0.3120
    9MOL   C696 6792   5.314   5.782   3.254  0.2382  0.3435 -0.0832
    9MOL   C697 6793   5.299   5.631   3.295  0.3530  0.5506  0.3662
    9MOL   C698 6794   5.374   5.532   3.214  0.5267  0.5159 -0.8102
    9MOL   C699 6795   5.367   5.397   3.271  0.1611  0.4502 -0.8501
    9MOL   C700 6796   5.444   5.282   3.209 -0.3536  0.1245 -0.7178
    9MOL   N701 6797   5.397   5.255   3.075  0.7288 -0.1345  0.3683
    9MOL   H702 6798   5.249   6.495   3.723  3.1186  1.4686  1.0527
    9MOL   H703 6799   5.175   6.524   3.567 -0.5401  1.4206  1.9016
    9MOL   H704 6800   5.442   6.388   3.577  0.3817  0.1427 -0.4147
    9MOL   H705 6801   5.300   6.299   3.629  1.7849  0.1173  0.2087
    9MOL   H706 6802   5.332   6.421   3.351  0.0045  1.4039  2.4002
    9MOL   H707 6803   5.201   6.318   3.402 -0.5470  0.6960  1.0617
    9MOL   H708 6804   5.491   6.227   3.409  2.6038 -0.5105 -4.2184
    9MOL   H709 6805   5.404   6.226   3.260  1.3379 -3.1279  0.3297
    9MOL   H710 6806   5.226   6.060   3.227  0.3991 -0.1169 -0.3851
    9MOL   H711 6807   5.222   5.853   3.436 -1.4816 -1.5193  0.1170
    9MOL   H712 6808   5.122   5.840   3.291  0.9017 -0.0875 -1.6038
    9MOL   H713 6809   5.301   5.795   3.146 -1.1627 -1.4471 -0.1637
    9MOL   H714 6810   5.412   5.820   3.282 -0.0501  0.9109  0.1537
    9MOL   H715 6811   5.195   5.601   3.310  0.4662  1.0223  2.2500
    9MOL   H716 6812   5.335   5.632   3.398 -3.1438  1.1707  1.6511
    9MOL   H717 6813   5.351   5.535   3.108 -1.1839  0.1723 -0.4584
    9MOL   H718 6814   5.476   5.569   3.207  0.6486  0.2562 -0.4243
    9MOL   H719 6815   5.398   5.415   3.374 -2.9013 -1.6481  0.5274
    9MOL   H720 6816   5.264   5.370   3.295 -0.7810  2.5802 -2.4058
    9MOL   H721 6817   5.443   5.189   3.267  1.2815 -0.2785 -1.3035
    9MOL   H722 6818   5.552   5.300   3.213  0.2629 -3.2626 -0.2026
    9MOL   H723 6819   5.432   5.328   3.014  1.1437 -1.5795 -1.1625
    9MOL   C724 6820   5.301   5.170   3.043  0.4392 -0.2867 -0.5836
    9MOL   O725 6821   5.257   5.094   3.127 -0.0760 -0.2825  0.0397
    9MOL   C726 6822   5.246   5.176   2.900 -0.6771 -0.1152 -0.8969
    9MOL   C727 6823   5.262   5.046   2.826  0.0534  0.0596 -0.4108
    9MOL   C728 6824   5.132   4.955   2.809  0.0641  0.1869  0.1955
    9MOL   C729 6825   5.061   4.900   2.933  0.0969 -0.4259  0.4481
    9MOL   C730 6826   5.136   4.781   2.997  1.5042 -0.3474  0.3584
    9MOL   O731 6827   5.116   4.669   2.948 -0.2165 -0.1997  0.0213
    9MOL   N732 6828   5.213   4.806   3.103  0.3228 -0.3465  0.4037
    9MOL   C733 6829   5.292   4.705   3.173 -0.2064 -0.4653 -0.2623
    9MOL   C734 6830   5.414   4.767   3.240 -0.6619 -0.3823 -0.0065
    9MOL   C735 6831   5.543   4.770   3.154  0.1839 -0.1676 -0.3194
    9MOL   C736 6832   5.668   4.825   3.224 -0.1751  0.0923 -0.2077
    9MOL   C737 6833   5.655   4.981   3.262  0.0770 -0.7053  0.2022
    9MOL   C738 6834   5.782   5.055   3.294 -0.4482  0.0111  0.3802
    9MOL   N739 6835   5.772   5.197   3.306 -0.0832 -0.1746  0.0781
    9MOL   H740 6836   5.142   5.208   2.896 -0.8625 -0.7202 -0.9920
    9MOL   H741 6837   5.308   5.245   2.843 -0.3464  1.3527  1.2251
    9MOL   H742 6838   5.313   5.069   2.733  0.5305 -0.9945 -0.4261
    9MOL   H743 6839   5.332   4.980   2.879  0.7171  0.2414 -1.0573
    9MOL   H744 6840   5.175   4.877   2.746  0.2557  1.5215 -1.3701
    9MOL   H745 6841   5.063   5.003   2.740 -1.6703 -0.6444  1.3056
    9MOL   H746 6842   4.968   4.862   2.890 -0.5286  0.4860  0.9958
    9MOL   H747 6843   5.040   4.980   3.004 -0.7289 -0.2028 -0.0381
    9MOL   H748 6844   5.241   4.901   3.123  0.9545 -0.8771  2.0715
    9MOL   H749 6845   5.225   4.673   3.253  0.5953 -2.0012 -0.1902
    9MOL   H750 6846   5.321   4.618   3.114  1.2964  0.1937 -0.5001
    9MOL   H751 6847   5.388   4.865   3.282  1.0779 -0.3687  1.1007
    9MOL   H752 6848   5.446   4.708   3.326 -0.0843 -0.6795 -0.4253
    9MOL   H753 6849   5.531   4.832   3.065  0.0017  1.5726  0.8807
    9MOL   H754 6850   5.567   4.669   3.123 -2.5531 -1.2868  1.0758
    9MOL   H755 6851   5.692   4.767   3.314 -0.7366  0.4566  0.1770
    9MOL   H756 6852   5.747   4.813   3.150 -1.0971 -1.0564 -1.0232
    9MOL   H757 6853   5.605   5.030   3.178  1.3658 -0.0426 -0.1891
    9MOL   H758 6854   5.585   4.984   3.345  0.5100 -0.0920  0.5479
    9MOL   H759 6855   5.843   5.042   3.205 -0.7706 -0.5343  0.2380
    9MOL   H760 6856   5.836   5.003   3.373 -2.4759  2.2870  3.4228
    9MOL   H761 6857   5.737   5.225   3.396 -2.9330  2.9146 -1.8784
    9MOL   H762 6858   5.862   5.237   3.285 -0.4022  0.9201  0.7542
   10MOL     C1 6859   6.383   2.160   4.539 -0.2099  0.1062  0.3667
   10MOL     O2 6860   6.478   2.104   4.594 -0.5942  0.0592  0.5113
   10MOL     C3 6861   6.406   2.266   4.430  0.5368  0.3617  0.3295
   10MOL     C4 6862   6.343   2.217   4.299  0.8028 -0.0158  0.1503
   10MOL     C5 6863   6.189   2.193   4.300  0.1387 -0.6217 -0.2348
   10MOL     C6 6864   6.109   2.309   4.373 -0.1536 -0.2964  0.5384
   10MOL     C7 6865   6.120   2.441   4.298  0.0382 -0.1362  0.3668
   10MOL     O8 6866   6.127   2.440   4.174  0.0054  0.0481 -0.6068
   10MOL     N9 6867   6.122   2.552   4.369  0.2245 -0.5060  0.0122
   10MOL    C10 6868   6.140   2.679   4.298 -0.0567  0.0073 -0.1005
   10MOL    C11 6869   6.286   2.731   4.275  0.1276  0.5272  0.2006
   10MOL    C12 6870   6.308   2.852   4.186 -0.6421 -0.3147 -0.3712
   10MOL    C13 6871   6.453   2.885   4.149  0.1649 -0.7620 -1.1888
   10MOL    C14 6872   6.460   3.003   4.056 -0.1851  0.4132 -0.1986
   10MOL    C15 6873   6.597   3.073   4.056  0.0230 -0.1088  0.9889
   10MOL    N16 6874   6.627   3.155   4.174 -0.1326  0.6513 -0.9509
   10MOL    H17 6875   6.362   2.364   4.452 -1.2686 -0.6888  1.5842
   10MOL    H18 6876   6.513   2.281   4.416  0.4246 -0.1919 -1.2276
   10MOL    H19 6877   6.382   2.287   4.224 -0.0085 -1.1644 -1.3714
   10MOL    H20 6878   6.393   2.126   4.265  0.8402  0.8439 -2.1878
   10MOL    H21 6879   6.170   2.093   4.340  0.3356 -0.2439  0.8057
   10MOL    H22 6880   6.147   2.192   4.199  1.3395 -2.4887 -0.7441
   10MOL    H23 6881   6.138   2.319   4.478 -0.5082  2.2041  0.4104
   10MOL    H24 6882   6.005   2.277   4.370 -0.5131  0.8106  1.0787
   10MOL    H25 6883   6.112   2.542   4.469 -0.1126 -0.6515 -0.0354
   10MOL    H26 6884   6.095   2.676   4.199  0.5790 -1.3554 -0.3582
   10MOL    H27 6885   6.092   2.754   4.360  2.5149  2.3921 -0.8538
   10MOL    H28 6886   6.327   2.751   4.374  1.0800  2.2193 -0.5038
   10MOL    H29 6887   6.349   2.655   4.228 -0.1675 -0.2979  1.1237
   10MOL    H30 6888   6.250   2.934   4.228  0.2704 -1.3746  3.1572
   10MOL    H31 6889   6.258   2.834   4.091  0.4011  0.7678 -1.1493
   10MOL    H32 6890   6.490   2.913   4.247 -0.3347 -0.7032 -1.0131
   10MOL    H33 6891   6.495   2.796   4.102 -0.8713 -1.6548 -0.4458
   10MOL    H34 6892   6.437   2.980   3.952 -0.4231  0.0478 -0.0647
   10MOL    H35 6893   6.380   3.075   4.078 -2.3812 -2.1674  0.5860
   10MOL    H36 6894   6.603   3.140   3.970 -1.6309 -2.0438 -0.6541
   10MOL    H37 6895   6.672   2.996   4.041  0.2151  0.4063 -0.7319
   10MOL    H38 6896   6.711   3.138   4.228  0.6187 -0.1440 -2.3318
   10MOL    H39 6897   6.277   2.137   4.551 -0.2616 -0.9228 -1.8355
   10MOL    C40 6898   6.549   3.254   4.218 -0.0043  0.1005 -0.3638
   10MOL    O41 6899   6.459   3.309   4.151 -0.6876  0.2906 -0.9573
   10MOL    C42 6900   6.593   3.318   4.351 -0.1809  0.7180 -0.2791
   10MOL    C43 6901   6.471   3.323   4.458 -0.1853  0.9834 -0.2013
   10MOL    C44 6902   6.427   3.184   4.508 -0.3471 -0.7858  0.4936
   10MOL    C45 6903   6.306   3.184   4.601 -0.5230  0.1373  0.2072
   10MOL    C46 6904   6.291   3.048   4.668 -0.5190  0.4447 -0.6604
   10MOL    O47 6905   6.381   3.000   4.734 -0.3006 -0.0620 -0.0489
   10MOL    N48 6906   6.176   2.991   4.645  0.2953  0.5452 -0.0073
   10MOL    C49 6907   6.141   2.858   4.682  0.1910  0.2130  0.7873
   10MOL    C50 6908   6.003   2.807   4.638  0.7510  0.3488 -0.1275
   10MOL    C51 6909   5.952   2.670   4.696  1.0496  0.5171  0.1186
   10MOL    C52 6910   5.817   2.621   4.639  0.1001  0.3504 -0.4157
   10MOL    C53 6911   5.814   2.466   4.671 -0.1590 -0.5022  0.2656
   10MOL    C54 6912   5.681   2.387   4.650 -0.2508 -0.6147 -0.1673
   10MOL    N55 6913   5.653   2.395   4.511  0.3448  0.3844 -0.1672
   10MOL    H56 6914   6.686   3.283   4.395  0.4946  0.2195 -2.0837
   10MOL    H57 6915   6.624   3.417   4.318  1.2884  0.2811 -0.2465
   10MOL    H58 6916   6.498   3.397   4.535  1.0273 -0.8452  1.1679
   10MOL    H59 6917   6.379   3.372   4.426 -1.2348 -1.0588 -0.3915
   10MOL    H60 6918   6.521   3.146   4.547  1.1920 -1.2996 -3.4158
   10MOL    H61 6919   6.405   3.123   4.420 -0.1942 -0.6253  0.3427
   10MOL    H62 6920   6.221   3.210   4.538  0.2348  0.1741 -0.8233
   10MOL    H63 6921   6.321   3.262   4.676 -0.9084  1.6463 -1.2609
   10MOL    H64 6922   6.104   3.043   4.597  0.6386  0.9739 -0.0570
   10MOL    H65 6923   6.214   2.785   4.645 -1.0448 -1.2945  1.2479
   10MOL    H66 6924   6.142   2.860   4.791  1.2958 -1.5742  0.8279
   10MOL    H67 6925   5.934   2.879   4.683  1.8717  1.0259  0.5247
   10MOL    H68 6926   5.992   2.804   4.530  0.2477 -0.6685 -0.0614
   10MOL    H69 6927   5.961   2.657   4.804  0.7860  0.1913  0.1006
   10MOL    H70 6928   6.020   2.594   4.658 -1.6691 -1.6373 -0.5584
   10MOL    H71 6929   5.728   2.662   4.687  1.0768  0.4826  1.3051
   10MOL    H72 6930   5.806   2.645   4.533  1.1428 -0.2327 -0.6621
   10MOL    H73 6931   5.893   2.409   4.621 -1.2381 -4.2417  2.5521
   10MOL    H74 6932   5.837   2.452   4.777 -1.0384 -2.2201  0.2550
   10MOL    H75 6933   5.603   2.442   4.703  0.1392  0.2995 -0.5290
   10MOL    H76 6934   5.679   2.284   4.687  1.4874 -0.7482 -0.4155
   10MOL    H77 6935   5.666   2.487   4.470 -1.1353  0.1378 -1.2129
   10MOL    C78 6936   5.623   2.305   4.421 -0.4796  0.5355  0.4174
   10MOL    O79 6937   5.584   2.195   4.459 -0.3939  0.2007 -0.8340
   10MOL    C80 6938   5.646   2.338   4.270  0.3592  0.3266 -0.1708
   10MOL    C81 6939   5.736   2.222   4.209 -0.8444  0.6940  0.6762
   10MOL    C82 6940   5.767   2.255   4.059  0.0487  0.2104 -0.2761
   10MOL    C83 6941   5.817   2.399   4.030  0.0086 -0.4549  0.1295
   10MOL    C84 6942   5.901   2.406   3.902  0.6302  0.0183 -0.1242
   10MOL    O85 6943   5.852   2.359   3.797  0.5795 -0.2724 -0.3450
   10MOL    N86 6944   6.028   2.456   3.914 -0.3154 -1.2819  0.0392
   10MOL    C87 6945   6.126   2.477   3.804  0.0640 -1.0236 -0.0557
   10MOL    C88 6946   6.238   2.566   3.863  0.2982  0.1122 -0.1108
   10MOL    C89 6947   6.364   2.563   3.774  0.0140 -0.1525  0.8686
   10MOL    C90 6948   6.486   2.638   3.835  0.5213 -0.6704  0.9789
   10MOL    C91 6949   6.593   2.670   3.734  1.2067  0.6268  0.1854
   10MOL    C92 6950   6.721   2.739   3.785  0.3254  0.8361 -0.1671
   10MOL    N93 6951   6.792   2.648   3.872  0.1202 -0.1414 -0.0882
   10MOL    H94 6952   5.556   2.335   4.209 -0.2918 -0.5201  0.8052
   10MOL    H95 6953   5.694   2.434   4.251  2.8035 -0.6522  0.8534
   10MOL    H96 6954   5.820   2.218   4.278  0.7956 -0.8759 -1.3698
   10MOL    H97 6955   5.688   2.124   4.214  1.9409 -0.6501  2.4243
   10MOL    H98 6956   5.677   2.239   3.998  0.3473  2.2734 -1.3011
   10MOL    H99 6957   5.843   2.183   4.029 -0.4634 -0.4233 -0.0721
   10MOL   H100 6958   5.873   2.440   4.114 -0.9432 -1.0721  1.0649
   10MOL   H101 6959   5.729   2.464   4.024  1.2108  1.0668 -1.7965
   10MOL   H102 6960   6.063   2.489   4.003 -2.3763 -0.0794  0.4609
   10MOL   H103 6961   6.167   2.381   3.771  0.7570 -1.1039  0.9932
   10MOL   H104 6962   6.085   2.531   3.719  0.5750  0.6831  0.7717
   10MOL   H105 6963   6.193   2.664   3.879 -0.8175 -0.1740 -1.3820
   10MOL   H106 6964   6.248   2.528   3.964 -0.4126  0.6073  0.1495
   10MOL   H107 6965   6.348   2.596   3.671  0.1362 -1.4001  0.4394
   10MOL   H108 6966   6.396   2.459   3.777 -0.1505 -0.2482 -0.3676
   10MOL   H109 6967   6.450   2.732   3.877  1.6463 -0.8467  2.3821
   10MOL   H110 6968   6.536   2.579   3.912  2.6242  1.1143  1.0307
   10MOL   H111 6969   6.626   2.580   3.682  2.8471  0.6287  1.1697
   10MOL   H112 6970   6.570   2.742   3.656 -0.6536 -1.5420 -1.3383
   10MOL   H113 6971   6.687   2.821   3.848 -0.0548 -0.0890  0.8322
   10MOL   H114 6972   6.787   2.771   3.705  0.1812 -0.0368 -0.6442
   10MOL   H115 6973   6.812   2.560   3.827 -2.0253 -0.7565  0.0965
   10MOL   C116 6974   6.815   2.667   4.004  0.4244 -0.1707  0.7199
   10MOL   O117 6975   6.792   2.773   4.059 -0.4158  0.0173 -0.7255
   10MOL   C118 6976   6.897   2.559   4.079  0.0736  0.1423 -0.4051
   10MOL   C119 6977   6.818   2.493   4.197 -0.2880  0.3566  0.2856
   10MOL   C120 6978   6.679   2.428   4.171  0.5038  0.0852 -0.2376
   10MOL   C121 6979   6.657   2.346   4.046 -0.6058  0.3252 -0.3741
   10MOL   C122 6980   6.752   2.226   4.047 -0.0265 -0.0596 -0.4031
   10MOL   O123 6981   6.766   2.158   4.154  0.1497  0.1024 -0.4644
   10MOL   N124 6982   6.827   2.199   3.934 -0.1700 -0.1246 -0.0556
   10MOL   C125 6983   6.919   2.089   3.921 -0.1290  0.3230  0.0544
   10MOL   C126 6984   6.848   1.962   3.868  0.5749 -0.4083 -0.3529
   10MOL   C127 6985   6.793   1.974   3.720 -0.1179 -0.0704  0.5469
   10MOL   C128 6986   6.712   1.844   3.688 -0.5455  0.0252  0.0086
   10MOL   C129 6987   6.636   1.877   3.562 -0.0360  0.7155  0.0171
   10MOL   C130 6988   6.563   1.758   3.497  0.2899 -0.2800  0.0689
   10MOL   N131 6989   6.475   1.819   3.395 -0.6996 -0.4140  0.0430
   10MOL   H132 6990   6.920   2.478   4.010  0.2604 -1.9480  2.0479
   10MOL   H133 6991   6.992   2.603   4.109  1.1824 -1.3931 -1.5734
   10MOL   H134 6992   6.873   2.413   4.247 -0.9059 -0.2557 -0.0113
   10MOL   H135 6993   6.806   2.578   4.265 -0.4428  1.2251 -0.8183
   10MOL   H136 6994   6.615   2.516   4.172 -0.2825 -0.4887  0.6777
   10MOL   H137 6995   6.661   2.369   4.261  1.4192 -0.6298 -0.5217
   10MOL   H138 6996   6.700   2.402   3.963 -0.5837  0.8754  0.0076
   10MOL   H139 6997   6.555   2.318   4.019 -0.5717  0.5594 -0.7521
   10MOL   H140 6998   6.815   2.256   3.852 -2.3588 -1.3836 -0.6691
   10MOL   H141 6999   7.001   2.112   3.852  0.9090 -2.0295  0.4530
   10MOL   H142 7000   6.969   2.080   4.017 -1.0749  1.3537  0.6506
   10MOL   H143 7001   6.913   1.875   3.869 -0.7679 -1.4312 -0.5144
   10MOL   H144 7002   6.769   1.935   3.938  1.0542 -1.1496 -0.0988
   10MOL   H145 7003   6.879   1.983   3.654  0.5395 -1.2911  1.2142
   10MOL   H146 7004   6.725   2.059   3.712 -2.2856 -1.6474  1.6232
   10MOL   H147 7005   6.786   1.768   3.659 -1.2719  0.4755 -3.2096
   10MOL   H148 7006   6.656   1.811   3.775  2.1697 -1.1231  1.4066
   10MOL   H149 7007   6.556   1.947   3.585  0.6554  0.9031  1.8619
   10MOL   H150 7008   6.707   1.913   3.488 -1.6617  0.0021 -1.9481
   10MOL   H151 7009   6.501   1.699   3.563 -0.5004  0.8355  0.3445
   10MOL   H152 7010   6.636   1.690   3.452  0.0392 -1.6537  1.7144
   10MOL   H153 7011   6.517   1.853   3.309  1.0401 -0.2078  0.9435
   10MOL   C154 7012   6.345   1.847   3.411  0.3175  0.1157 -0.2337
   10MOL   O155 7013   6.285   1.848   3.520 -0.0508  0.2152  0.8179
   10MOL   C156 7014   6.274   1.873   3.275  0.0897  0.8444 -0.0654
   10MOL   C157 7015   6.137   1.806   3.265  0.2875 -0.0628 -0.2623
   10MOL   C158 7016   6.018   1.889   3.306 -0.5635 -0.1693  0.8219
   10MOL   C159 7017   5.973   1.870   3.454  0.1470 -0.3043  0.2157
   10MOL   C160 7018   5.915   1.732   3.486 -0.0100  0.4790 -0.0092
   10MOL   O161 7019   5.840   1.680   3.406  0.3205  0.4909  0.3606
   10MOL   N162 7020   5.945   1.688   3.603  0.0025  0.3448 -0.0084
   10MOL   C163 7021   5.895   1.565   3.652 -0.0993  0.6257 -0.7245
   10MOL   C164 7022   5.967   1.440   3.596  0.1586 -0.2107 -0.5316
   10MOL   C165 7023   5.945   1.312   3.683 -0.5674  0.5045  0.2738
   10MOL   C166 7024   5.813   1.233   3.657 -0.2464 -0.4442 -0.4422
   10MOL   C167 7025   5.802   1.093   3.719  0.0505  0.1699  0.3398
   10MOL   C168 7026   5.666   1.017   3.691  0.3392 -0.5464 -0.0641
   10MOL   N169 7027   5.651   0.970   3.559 -0.3443  0.4215  0.2393
   10MOL   H170 7028   6.279   1.981   3.289  1.5300  0.9730 -1.3800
   10MOL   H171 7029   6.338   1.845   3.191  0.3129  0.1193  0.3424
   10MOL   H172 7030   6.121   1.771   3.163  0.7119 -1.7052  0.2131
   10MOL   H173 7031   6.141   1.711   3.319  0.4137 -0.5209 -1.0558
   10MOL   H174 7032   5.924   1.872   3.255  0.9402 -0.2909 -2.0095
   10MOL   H175 7033   6.048   1.991   3.281 -1.1614 -0.4311 -1.0194
   10MOL   H176 7034   5.887   1.937   3.459 -1.3411 -2.0693 -0.8666
   10MOL   H177 7035   6.041   1.914   3.527 -0.5663 -0.2451  0.8463
   10MOL   H178 7036   5.978   1.757   3.668 -1.0508 -0.1538  1.0717
   10MOL   H179 7037   5.930   1.584   3.753  1.6737 -0.2264 -1.1524
   10MOL   H180 7038   5.787   1.555   3.658 -0.0536  0.9265  0.7487
   10MOL   H181 7039   5.936   1.411   3.496  0.2150  1.2007 -0.9662
   10MOL   H182 7040   6.075   1.453   3.589 -0.0910  3.2032  1.0979
   10MOL   H183 7041   5.938   1.331   3.790 -1.2031 -0.9878  0.5138
   10MOL   H184 7042   6.028   1.245   3.662 -0.6543  0.2105  0.8447
   10MOL   H185 7043   5.729   1.296   3.682 -1.0581 -1.9347  0.6755
   10MOL   H186 7044   5.804   1.210   3.550  1.0562  1.9954 -1.1094
   10MOL   H187 7045   5.881   1.027   3.682  0.3327  0.8983 -0.3811
   10MOL   H188 7046   5.814   1.104   3.826  2.0829 -0.7761  0.2342
   10MOL   H189 7047   5.582   1.081   3.717  1.1865  0.6209 -0.1718
   10MOL   H190 7048   5.651   0.938   3.765 -4.3231  1.5833  1.4261
   10MOL   H191 7049   5.706   1.018   3.490 -0.7104  0.9024  0.2795
   10MOL   C192 7050   5.573   0.868   3.518  0.8021  0.2891  0.4666
   10MOL   O193 7051   5.495   0.808   3.598 -0.4609 -0.4556  0.9404
   10MOL   C194 7052   5.594   0.818   3.372 -0.5494  0.5758 -0.4630
   10MOL   C195 7053   5.542   0.678   3.333 -0.4065 -0.4414  0.1145
   10MOL   C196 7054   5.396   0.699   3.310  0.2660  0.5384 -0.1523
   10MOL   C197 7055   5.320   0.580   3.234 -0.4712  0.7981 -0.0149
   10MOL   C198 7056   5.333   0.585   3.079  0.2819  0.6949 -0.4800
   10MOL   O199 7057   5.379   0.687   3.023  0.2208  0.2204 -0.1164
   10MOL   N200 7058   5.305   0.467   3.022 -0.1043  0.3778  0.4046
   10MOL   C201 7059   5.321   0.436   2.879 -0.2601  0.3668 -1.0156
   10MOL   C202 7060   5.411   0.311   2.861 -0.1976 -0.4629 -0.5681
   10MOL   C203 7061   5.352   0.190   2.940 -0.2540  0.5850  0.6013
   10MOL   C204 7062   5.448   0.069   2.924 -0.1620  0.0825  0.6782
   10MOL   C205 7063   5.580   0.084   3.000 -0.1658  0.3537  0.6122
   10MOL   C206 7064   5.677   7.673   2.971  0.1092 -0.0301  0.0311
   10MOL   N207 7065   5.626   7.547   3.023  0.1611  0.4035  0.0584
   10MOL   H208 7066   5.575   0.898   3.300  1.9526  1.4225 -0.2379
   10MOL   H209 7067   5.703   0.819   3.371 -0.5373 -0.5313 -1.7367
   10MOL   H210 7068   5.587   0.644   3.241 -1.1459  1.7554 -1.0958
   10MOL   H211 7069   5.561   0.606   3.413  0.2100 -0.7422 -0.3030
   10MOL   H212 7070   5.384   0.792   3.254  0.6775  0.3597 -0.5412
   10MOL   H213 7071   5.344   0.713   3.405 -0.3724 -1.0660 -0.2402
   10MOL   H214 7072   5.213   0.577   3.254 -0.5798  0.3994 -0.6471
   10MOL   H215 7073   5.367   0.495   3.283 -1.2111 -0.1481 -0.9261
   10MOL   H216 7074   5.279   0.395   3.088  1.8035 -0.6944  0.0371
   10MOL   H217 7075   5.221   0.401   2.854  0.9968 -2.0522 -2.8790
   10MOL   H218 7076   5.353   0.518   2.814 -1.1853  1.9353  0.4796
   10MOL   H219 7077   5.414   0.275   2.758 -2.7324  2.3074 -1.6713
   10MOL   H220 7078   5.514   0.332   2.890  0.2521 -2.2585 -0.7644
   10MOL   H221 7079   5.256   0.164   2.896 -0.3765  2.1812 -0.1091
   10MOL   H222 7080   5.333   0.202   3.047  0.7069 -2.7120  1.1890
   10MOL   H223 7081   5.398   7.689   2.965  4.6957 -2.8599  0.6812
   10MOL   H224 7082   5.454   0.051   2.816 -2.9461  0.0257  0.4907
   10MOL   H225 7083   5.631   0.171   2.958  0.7829 -0.5111 -0.0585
   10MOL   H226 7084   5.558   0.106   3.104 -0.5193 -0.4007  0.6949
   10MOL   H227 7085   5.768   7.706   3.022 -1.2543  1.8001  1.3074
   10MOL   H228 7086   5.702   7.669   2.865  1.9227  1.5036  0.3807
   10MOL   H229 7087   5.642   7.521   3.119  2.0141  1.3327  0.0064
   10MOL   C230 7088   5.579   7.444   2.951  0.4586  0.0716 -0.6853
   10MOL   O231 7089   5.572   7.462   2.828 -0.4906 -0.3920  0.0864
   10MOL   C232 7090   5.503   7.328   3.027  0.9961  1.2536 -0.8102
   10MOL   C233 7091   5.371   7.274   2.961 -0.5886 -0.1142 -0.9640
   10MOL   C234 7092   5.403   7.193   2.830 -0.0903  0.2740 -0.0858
   10MOL   C235 7093   5.296   7.206   2.724  0.1303 -0.4896 -0.2242
   10MOL   C236 7094   5.154   7.156   2.761 -0.0174  0.0902  0.7194
   10MOL   O237 7095   5.122   7.117   2.871  0.3167  0.2247  0.0740
   10MOL   N238 7096   5.060   7.172   2.669 -0.3924  0.4053 -0.4669
   10MOL   C239 7097   4.915   7.157   2.689 -0.1964  0.6865  1.5228
   10MOL   C240 7098   4.838   7.287   2.728 -0.4625  0.3136 -0.3914
   10MOL   C241 7099   4.689   7.265   2.754  0.3792 -0.0248  1.1567
   10MOL   C242 7100   4.609   7.386   2.789  0.1765 -0.1855 -0.1095
   10MOL   C243 7101   4.459   7.351   2.818 -0.4674  0.3070 -0.2374
   10MOL   C244 7102   4.376   7.336   2.692 -0.3604 -0.1634  0.2343
   10MOL   N245 7103   4.244   7.297   2.725  0.0817 -0.6686 -0.4895
   10MOL   H246 7104   5.578   7.248   3.025  0.0209  0.3313 -0.8843
   10MOL   H247 7105   5.479   7.352   3.131  0.2633 -0.0873 -0.6510
   10MOL   H248 7106   5.327   7.214   3.040  2.0096  0.0425  0.6839
   10MOL   H249 7107   5.307   7.359   2.938 -2.4964 -1.3062 -0.0736
   10MOL   H250 7108   5.406   7.087   2.855  2.1943  0.2669 -0.3329
   10MOL   H251 7109   5.496   7.223   2.783 -0.0217  0.3600  0.1040
   10MOL   H252 7110   5.339   7.169   2.632 -0.6608 -0.4644 -0.6131
   10MOL   H253 7111   5.289   7.314   2.708 -1.0632 -0.7103 -1.2646
   10MOL   H254 7112   5.078   7.216   2.580 -0.2013  2.1800  0.4384
   10MOL   H255 7113   4.877   7.121   2.594  0.3995 -0.7972  1.8332
   10MOL   H256 7114   4.893   7.074   2.756  0.2921 -0.6294  0.0741
   10MOL   H257 7115   4.888   7.323   2.818  1.7743 -0.3654 -1.3399
   10MOL   H258 7116   4.848   7.359   2.647  0.7284  1.0698  0.4105
   10MOL   H259 7117   4.677   7.196   2.838 -0.3125 -0.5537  0.6198
   10MOL   H260 7118   4.642   7.205   2.676 -0.6170  1.8966  0.2481
   10MOL   H261 7119   4.664   7.431   2.872 -1.0492  2.2192 -0.5368
   10MOL   H262 7120   4.616   7.457   2.707 -0.7077 -2.1635 -1.9442
   10MOL   H263 7121   4.445   7.262   2.880  1.3943  0.2982  0.1921
   10MOL   H264 7122   4.413   7.425   2.883 -1.2092  0.4911 -0.9589
   10MOL   H265 7123   4.418   7.255   2.631 -0.0151 -1.0154  1.5783
   10MOL   H266 7124   4.379   7.437   2.652 -1.8804 -1.3491 -3.1099
   10MOL   H267 7125   4.212   7.201   2.721 -1.8189 -0.0779 -0.0630
   10MOL   C268 7126   4.156   7.391   2.763 -0.3612 -0.3904 -0.4074
   10MOL   O269 7127   4.180   7.510   2.747 -0.4263 -0.2417  0.5170
   10MOL   C270 7128   4.021   7.338   2.802  1.0414  0.1276  0.7788
   10MOL   C271 7129   3.903   7.427   2.759  1.1722 -0.2677 -0.1557
   10MOL   C272 7130   3.841   7.400   2.624  0.1351  0.0686 -1.2907
   10MOL   C273 7131   3.712   7.470   2.592 -0.0007  0.5610 -0.5811
   10MOL   C274 7132   3.612   7.371   2.536 -0.5120  0.7481  0.3010
   10MOL   O275 7133   3.627   7.318   2.429  1.2733 -0.4409 -0.5978
   10MOL   N276 7134   3.515   7.323   2.616  0.2072 -0.8515  0.2872
   10MOL   C277 7135   3.408   7.226   2.586  0.2862 -0.1777 -0.2039
   10MOL   C278 7136   3.448   7.080   2.619  0.4546  0.0739 -0.1528
   10MOL   C279 7137   3.328   6.984   2.600  0.3014  0.0564 -0.5230
   10MOL   C280 7138   3.356   6.834   2.629 -0.8614 -0.4864 -0.2655
   10MOL   C281 7139   3.259   6.736   2.577 -0.0005  0.2576 -0.2444
   10MOL   C282 7140   3.142   6.701   2.664  0.2592 -0.4126 -0.1563
   10MOL   N283 7141   3.042   6.620   2.596 -0.5095 -0.5057 -0.1823
   10MOL   H284 7142   4.014   7.237   2.762  0.4640  0.9815 -1.3722
   10MOL   H285 7143   4.024   7.334   2.911 -2.5390  0.0615  0.9411
   10MOL   H286 7144   3.827   7.426   2.838 -0.0550 -0.1861 -1.3076
   10MOL   H287 7145   3.939   7.529   2.747 -2.2184  0.7603 -2.4511
   10MOL   H288 7146   3.827   7.292   2.616 -0.2580 -0.1173  1.3226
   10MOL   H289 7147   3.912   7.424   2.546  1.1911  0.2853 -0.2827
   10MOL   H290 7148   3.724   7.547   2.515  0.5924  1.5325  0.4554
   10MOL   H291 7149   3.680   7.528   2.678 -0.6232  0.9916 -1.0953
   10MOL   H292 7150   3.514   7.370   2.705  2.6992  1.3800 -0.8276
   10MOL   H293 7151   3.329   7.256   2.655  1.0000  0.8815  0.1630
   10MOL   H294 7152   3.370   7.241   2.485 -0.4839  1.4123  0.3044
   10MOL   H295 7153   3.525   7.049   2.549  1.1846  1.6732 -0.0771
   10MOL   H296 7154   3.498   7.087   2.716 -1.4453 -0.0209  0.8573
   10MOL   H297 7155   3.318   6.994   2.492 -0.0022 -2.7458 -0.7964
   10MOL   H298 7156   3.233   7.004   2.649  0.4984  2.9000 -1.2206
   10MOL   H299 7157   3.454   6.822   2.582 -0.3664 -0.2242  0.6662
   10MOL   H300 7158   3.367   6.824   2.737  1.6895 -0.3095 -0.4645
   10MOL   H301 7159   3.233   6.770   2.477  0.0249 -1.2257 -0.7570
   10MOL   H302 7160   3.317   6.646   2.558 -0.0334 -0.1534  1.5674
   10MOL   H303 7161   3.094   6.797   2.685 -1.2008 -1.5006  1.6442
   10MOL   H304 7162   3.166   6.652   2.758 -0.0291  0.1998  0.2454
   10MOL   H305 7163   3.049   6.520   2.609  0.0973 -0.2749  1.3311
   10MOL   C306 7164   2.961   6.672   2.505  1.4215 -0.2510 -0.2454
   10MOL   O307 7165   2.955   6.789   2.477  0.3557 -0.1209 -0.0784
   10MOL   C308 7166   2.877   6.577   2.423  0.2961  0.0340 -0.2044
   10MOL   C309 7167   2.821   6.626   2.287 -0.5558 -0.0523  0.4718
   10MOL   C310 7168   2.807   6.514   2.170  0.2033 -0.3172 -0.4831
   10MOL   C311 7169   2.940   6.461   2.119  0.4124  0.1873  0.2977
   10MOL   C312 7170   3.024   6.550   2.036  0.7204  0.0704  0.4217
   10MOL   O313 7171   3.016   6.671   2.040 -0.2908 -0.2447  0.4413
   10MOL   N314 7172   3.104   6.483   1.956  0.5028  0.5387  0.1994
   10MOL   C315 7173   3.212   6.534   1.871 -0.6552  0.2874 -0.2534
   10MOL   C316 7174   3.357   6.482   1.905 -0.5733 -0.0299 -0.0564
   10MOL   C317 7175   3.460   6.559   1.824  0.1424  0.3069 -0.1385
   10MOL   C318 7176   3.431   6.571   1.664 -0.3941 -0.0595  0.0512
   10MOL   C319 7177   3.552   6.584   1.576  0.4875  0.7221 -0.6778
   10MOL   C320 7178   3.520   6.598   1.427  0.5671 -0.0911 -0.3546
   10MOL   N321 7179   3.435   6.711   1.396 -0.3366 -0.2783 -0.8735
   10MOL   H322 7180   2.946   6.493   2.412  2.1229  1.7688 -2.5180
   10MOL   H323 7181   2.786   6.542   2.471 -0.7915  2.3217 -0.5267
   10MOL   H324 7182   2.726   6.678   2.301  0.6261  2.4380 -0.6155
   10MOL   H325 7183   2.877   6.714   2.259  0.1537  0.1795  2.5360
   10MOL   H326 7184   2.750   6.566   2.093  1.1334  0.5293 -0.6206
   10MOL   H327 7185   2.755   6.427   2.209 -0.2256  0.7381  1.3784
   10MOL   H328 7186   2.917   6.372   2.060 -2.8434  1.4336 -0.4271
   10MOL   H329 7187   3.000   6.434   2.206  0.1149  2.3526  1.2062
   10MOL   H330 7188   3.094   6.383   1.952 -2.7037  0.6902  2.5543
   10MOL   H331 7189   3.188   6.498   1.771 -1.5963  1.1727 -0.3610
   10MOL   H332 7190   3.204   6.643   1.868  2.0272  0.5230 -0.2940
   10MOL   H333 7191   3.383   6.509   2.007 -0.1159 -0.1116 -0.1496
   10MOL   H334 7192   3.376   6.376   1.885 -2.1244 -0.6409  1.6025
   10MOL   H335 7193   3.555   6.508   1.835 -0.1137  0.3288  2.3006
   10MOL   H336 7194   3.476   6.663   1.854 -1.2265  0.8575 -1.2467
   10MOL   H337 7195   3.365   6.497   1.620 -0.7104  0.7014 -0.7515
   10MOL   H338 7196   3.369   6.660   1.655 -0.3434 -0.1699 -1.4339
   10MOL   H339 7197   3.604   6.672   1.613 -1.0370  1.6479 -0.6977
   10MOL   H340 7198   3.616   6.497   1.591  0.8885  1.1418  0.0475
   10MOL   H341 7199   3.476   6.511   1.377 -1.0144  0.9846 -0.8903
   10MOL   H342 7200   3.616   6.617   1.379  1.3611 -0.6954  0.9727
   10MOL   H343 7201   3.486   6.799   1.399  0.4979 -0.7960  1.4024
   10MOL   C344 7202   3.302   6.720   1.388 -0.1068 -0.3984  0.3221
   10MOL   O345 7203   3.220   6.629   1.395 -0.1763  0.1838  0.3044
   10MOL   C346 7204   3.242   6.856   1.359  0.5748  0.3459  0.0111
   10MOL   C347 7205   3.157   6.858   1.234  0.7188 -0.3854  0.1486
   10MOL   C348 7206   3.126   6.989   1.169  0.3282  0.2333  0.2316
   10MOL   C349 7207   3.067   7.096   1.270  0.2985 -0.2087  0.1076
   10MOL   C350 7208   3.057   7.234   1.202  0.4583 -0.0692  0.1486
   10MOL   O351 7209   3.006   7.232   1.090 -0.5832 -0.0723  0.1423
   10MOL   N352 7210   3.091   7.343   1.272 -0.3643 -0.5184  0.3914
   10MOL   C353 7211   3.044   7.486   1.249 -0.7191 -0.3120 -0.3291
   10MOL   C354 7212   2.900   7.506   1.223 -0.9794 -0.1972  0.7820
   10MOL   C355 7213   2.866   7.646   1.170  1.0404  0.0836 -0.4850
   10MOL   C356 7214   2.728   7.642   1.100  0.2504  0.1437  0.6962
   10MOL   C357 7215   2.691   0.071   1.071  0.3340 -0.1785  0.4417
   10MOL   C358 7216   2.556   0.089   1.004  0.1831 -0.0218 -0.2177
   10MOL   N359 7217   2.540   0.218   0.931 -0.2714 -0.5330  0.3426
   10MOL   H360 7218   3.189   6.884   1.450 -1.9973  0.3259 -1.4309
   10MOL   H361 7219   3.321   6.931   1.353 -1.1783  2.1313 -1.0261
   10MOL   H362 7220   3.189   6.788   1.156  0.7920 -0.1489 -0.0344
   10MOL   H363 7221   3.061   6.812   1.256  0.1020  0.7811 -0.0761
   10MOL   H364 7222   3.062   6.976   1.082  1.4692 -0.4312 -0.5155
   10MOL   H365 7223   3.219   7.023   1.124  1.1925 -0.9954  1.0568
   10MOL   H366 7224   3.137   7.112   1.352  0.9512  0.7865 -0.6247
   10MOL   H367 7225   2.963   7.081   1.299  0.7395 -0.3801  1.6144
   10MOL   H368 7226   3.136   7.319   1.359  1.3782 -2.4847 -1.0104
   10MOL   H369 7227   3.076   7.540   1.338 -3.8304  0.0808  0.6140
   10MOL   H370 7228   3.102   7.512   1.161  1.9041 -3.3610  0.3890
   10MOL   H371 7229   2.864   7.434   1.150 -1.1356  0.6894 -0.0273
   10MOL   H372 7230   2.841   7.483   1.312  0.1512  1.2093  1.9409
   10MOL   H373 7231   2.949   7.696   1.120  2.7055 -1.5011  0.6326
   10MOL   H374 7232   2.851   0.005   1.255 -1.6400  0.3813 -1.1438
   10MOL   H375 7233   2.727   7.587   1.005 -0.0680  1.0446  0.1721
   10MOL   H376 7234   2.654   7.594   1.163 -1.1100  0.4643 -0.6125
   10MOL   H377 7235   2.686   0.131   1.162 -0.7638  2.8409 -1.5257
   10MOL   H378 7236   2.765   0.118   1.006 -0.9655 -0.3010 -1.1549
   10MOL   H379 7237   2.469   0.066   1.064  0.2612  0.2835  0.0144
   10MOL   H380 7238   2.553   0.016   0.923 -1.5740 -0.3364  0.1195
   10MOL   H381 7239   2.574   0.217   0.836  0.9430  1.9611  0.7171
   10MOL   C382 7240   2.496   0.329   0.986 -0.2073  0.4153 -0.4279
   10MOL   O383 7241   2.451   0.333   1.099  0.5232  0.5137  0.1141
   10MOL   C384 7242   2.506   0.469   0.909 -0.4871  0.1290 -0.2986
   10MOL   C385 7243   2.451   0.454   0.761 -0.6927 -0.3979  0.5783
   10MOL   C386 7244   2.303   0.407   0.744 -1.0109  0.3852  0.6552
   10MOL   C387 7245   2.244   0.416   0.600 -0.0722 -0.0328 -0.4391
   10MOL   C388 7246   2.292   0.303   0.510 -0.4027 -0.9228  0.3379
   10MOL   O389 7247   2.355   0.210   0.562 -0.3945  0.0704  0.4183
   10MOL   N390 7248   2.269   0.313   0.377  0.4528 -0.2505  0.4586
   10MOL   C391 7249   2.297   0.203   0.295 -0.0028  0.2271 -0.2015
   10MOL   C392 7250   2.233   0.203   0.164  0.1630 -0.5866 -0.2182
   10MOL   C393 7251   2.305   0.116   0.060  0.5495  0.1960 -0.0543
   10MOL   C394 7252   2.259   0.148   7.623  0.6983  0.4269 -0.0708
   10MOL   C395 7253   2.319   0.049   7.528  0.3810  0.3221  0.4782
   10MOL   C396 7254   2.380   0.111   7.400 -0.6488  0.3932  0.3192
   10MOL   N397 7255   2.284   0.171   7.318 -0.3950 -0.2797  0.5204
   10MOL   H398 7256   2.435   0.538   0.954  0.9559  0.1973  1.9848
   10MOL   H399 7257   2.610   0.502   0.917  0.5004 -2.9919  0.6214
   10MOL   H400 7258   2.457   0.554   0.719 -2.2278  0.1695  1.6946
   10MOL   H401 7259   2.527   0.401   0.703  0.5091 -1.0854  2.7113
   10MOL   H402 7260   2.239   0.473   0.803  1.2001  0.8074  2.6769
   10MOL   H403 7261   2.289   0.307   0.785 -1.7955  0.7412  1.2834
   10MOL   H404 7262   2.273   0.509   0.549 -1.3072  0.3178 -0.5048
   10MOL   H405 7263   2.136   0.429   0.609  0.0608  0.7997  0.0758
   10MOL   H406 7264   2.236   0.400   0.337  0.2648 -1.9449 -3.2115
   10MOL   H407 7265   2.403   0.213   0.271 -0.6868  0.5247 -3.2568
   10MOL   H408 7266   2.288   0.104   0.339 -0.4396  0.5876  0.5493
   10MOL   H409 7267   2.128   0.182   0.184  0.1201  0.1509  0.3619
   10MOL   H410 7268   2.232   0.308   0.134  0.0475  0.0617  1.9854
   10MOL   H411 7269   2.275   0.012   0.075  0.7650 -0.0990 -1.6189
   10MOL   H412 7270   2.411   0.141   0.065  0.4761  0.1917  2.4139
   10MOL   H413 7271   2.153   0.170   7.611  0.6346  0.0192 -0.2722
   10MOL   H414 7272   2.303   0.243   7.594  0.6236  0.2321 -0.8426
   10MOL   H415 7273   2.408   0.011   7.577  0.9125  1.6568  0.5838
   10MOL   H416 7274   2.246   7.679   7.506  0.5440  0.5764 -1.0690
   10MOL   H417 7275   2.427   0.032   7.341 -0.7049  0.5722  0.0348
   10MOL   H418 7276   2.454   0.188   7.422  2.3225 -2.0825 -0.5710
   10MOL   H419 7277   2.212   0.212   7.376 -1.2976  0.5957 -1.2005
   10MOL   C420 7278   2.288   0.186   7.180  0.0753  0.6194 -0.1759
   10MOL   O421 7279   2.384   0.142   7.113 -0.2008 -0.1938 -0.1472
   10MOL   C422 7280   2.170   0.258   7.115  0.4149  0.1655 -0.6775
   10MOL   C423 7281   2.105   0.167   7.001  1.0259 -0.3684 -0.4201
   10MOL   C424 7282   2.157   0.189   6.857  0.2122 -0.3749  0.1706
   10MOL   C425 7283   2.099   0.091   6.752  0.0034 -0.1308  0.3195
   10MOL   C426 7284   2.141   7.653   6.756  0.0331 -0.1876 -0.0849
   10MOL   O427 7285   2.253   7.619   6.735  0.2094  0.6578 -0.2293
   10MOL   N428 7286   2.047   7.567   6.785 -0.1891 -0.3822  0.1662
   10MOL   C429 7287   2.057   7.421   6.791 -0.2877 -0.0796  0.0064
   10MOL   C430 7288   2.042   7.377   6.938  0.4301  0.5188  0.0800
   10MOL   C431 7289   2.003   7.234   6.956  0.0640 -0.4171 -0.0760
   10MOL   C432 7290   1.983   7.183   7.101 -0.1194 -0.6771 -0.4387
   10MOL   C433 7291   2.111   7.190   7.187 -0.0463  0.5740 -0.1548
   10MOL   C434 7292   2.079   7.154   7.335  0.5941  0.2507 -0.0871
   10MOL   N435 7293   2.197   7.155   7.416  0.0106 -0.0867 -0.2935
   10MOL   H436 7294   2.090   0.273   7.187  0.4934  1.2413 -0.7900
   10MOL   H437 7295   2.203   0.352   7.070  0.4000  0.3044 -0.3945
   10MOL   H438 7296   2.126   0.064   7.030  0.4809 -0.2157  0.5622
   10MOL   H439 7297   1.997   0.172   7.018  1.0864 -0.8276  0.1198
   10MOL   H440 7298   2.266   0.187   6.855  0.3320 -0.9993  3.3925
   10MOL   H441 7299   2.124   0.291   6.838  0.3432 -0.2621  0.5420
   10MOL   H442 7300   2.147   0.122   6.659  0.6771 -1.0021  0.3665
   10MOL   H443 7301   1.990   0.091   6.748 -0.0666  1.9243  1.4899
   10MOL   H444 7302   1.956   7.606   6.805 -0.4640 -0.9443  0.0355
   10MOL   H445 7303   1.970   7.387   6.735 -0.3303 -2.3384  1.3704
   10MOL   H446 7304   2.146   7.386   6.738 -2.0855 -1.4187 -2.2195
   10MOL   H447 7305   2.135   7.403   6.989 -0.1703  2.4453  0.2376
   10MOL   H448 7306   1.967   7.444   6.980  1.3400  0.8302  1.2352
   10MOL   H449 7307   2.059   7.172   6.887 -0.4692  0.3322 -1.2070
   10MOL   H450 7308   1.908   7.231   6.902  1.8730  2.1998 -3.6197
   10MOL   H451 7309   1.893   7.220   7.149 -1.5578 -1.0728 -2.7431
   10MOL   H452 7310   1.951   7.079   7.097 -1.1073 -0.3316 -1.7270
   10MOL   H453 7311   2.186   7.121   7.149 -0.7032  0.0100 -0.4332
   10MOL   H454 7312   2.153   7.290   7.176 -0.3721  0.5736 -1.4931
   10MOL   H455 7313   2.014   7.067   7.331  0.2960  0.5134 -1.1760
   10MOL   H456 7314   2.026   7.239   7.378  1.8714  0.1478  1.7596
   10MOL   H457 7315   2.272   7.215   7.384 -1.4425  0.4225 -2.8111
   10MOL   C458 7316   2.217   7.079   7.524  0.4039 -0.3256  0.0739
   10MOL   O459 7317   2.130   7.015   7.590 -0.2124 -0.6898 -0.0675
   10MOL   C460 7318   2.357   7.101   7.581  0.0467  0.2735 -0.4944
   10MOL   C461 7319   2.346   7.175   0.006 -0.8421  0.5465  0.1286
   10MOL   C462 7320   2.381   7.323   0.005  1.1620  0.1137  0.1365
   10MOL   C463 7321   2.369   7.395   0.137  0.0678 -0.3186 -0.1278
   10MOL   C464 7322   2.222   7.421   0.192  0.2121 -0.3546 -0.0545
   10MOL   O465 7323   2.122   7.386   0.130  0.1644 -0.5315 -0.6545
   10MOL   N466 7324   2.217   7.497   0.302  0.0447 -0.2791 -0.3955
   10MOL   C467 7325   2.100   7.546   0.382 -0.2905 -0.3682 -0.3341
   10MOL   C468 7326   2.123   7.548   0.533 -0.5356 -0.4638  0.1304
   10MOL   C469 7327   2.010   7.590   0.626 -0.8277 -0.6170  0.7452
   10MOL   C470 7328   2.037   0.026   0.667 -0.1087  0.1082 -0.0671
   10MOL   C471 7329   1.912   0.087   0.725 -0.3082 -0.3771 -0.5850
   10MOL   C472 7330   1.884   0.047   0.875  0.1273 -0.1985  0.5543
   10MOL   N473 7331   1.979   0.101   0.966  0.4276 -0.0880 -0.5464
   10MOL   H474 7332   2.387   6.997   7.599 -1.0689  0.1099  0.4498
   10MOL   H475 7333   2.418   7.153   7.507  1.5611 -0.3541  0.2847
   10MOL   H476 7334   2.244   7.165   0.042 -2.0133  2.4122 -2.4840
   10MOL   H477 7335   2.407   7.132   0.086 -1.3239  0.4472  0.4496
   10MOL   H478 7336   2.317   7.371   7.639 -0.4923  0.1838  1.5634
   10MOL   H479 7337   2.483   7.331   7.676  1.2095 -0.9053  0.0306
   10MOL   H480 7338   2.409   7.496   0.123  0.1542 -0.1683  1.1904
   10MOL   H481 7339   2.438   7.345   0.204  0.3967  0.4060  0.0881
   10MOL   H482 7340   2.310   7.523   0.332  0.8095 -2.1543 -1.0605
   10MOL   H483 7341   2.087   7.650   0.350  2.5978 -0.0277 -0.5509
   10MOL   H484 7342   2.014   7.485   0.356 -2.5064  2.1205  0.8571
   10MOL   H485 7343   2.151   7.445   0.550 -1.3320 -0.8061 -0.5625
   10MOL   H486 7344   2.204   7.613   0.565 -2.4310  1.2722  1.5146
   10MOL   H487 7345   1.999   7.526   0.713  0.0721 -0.7391  0.7684
   10MOL   H488 7346   1.913   7.574   0.579  0.2716 -2.6019 -0.9183
   10MOL   H489 7347   2.119   0.034   0.738  1.2014 -3.6759 -1.0339
   10MOL   H490 7348   2.069   0.070   0.572 -1.0828 -1.6332 -1.2173
   10MOL   H491 7349   1.914   0.195   0.709 -0.5762 -0.4030 -0.8059
   10MOL   H492 7350   1.824   0.065   0.665  1.2725 -1.3861 -2.5845
   10MOL   H493 7351   1.890   7.646   0.884 -1.2482 -0.1957  1.6689
   10MOL   H494 7352   1.791   0.087   0.915 -0.0921 -1.0250  0.8874
   10MOL   H495 7353   2.042   0.167   0.923  3.6342 -2.1300  0.8616
   10MOL   C496 7354   1.960   0.105   1.103 -0.5151 -0.3498  0.3175
   10MOL   O497 7355   1.872   0.046   1.158 -0.2048  0.4161  0.1380
   10MOL   C498 7356   2.055   0.208   1.174  0.3949 -0.6736  0.6856
   10MOL   C499 7357   2.190   0.160   1.219  0.2105  0.1464 -0.5680
   10MOL   C500 7358   2.191   0.043   1.311 -0.1094 -0.1463  0.0798
   10MOL   C501 7359   2.331   7.686   1.326 -0.0832 -0.3036 -0.5120
   10MOL   C502 7360   2.436   0.047   1.416 -0.6469 -0.0867 -0.5199
   10MOL   O503 7361   2.435   0.017   1.535 -0.5072 -0.2681 -0.1472
   10MOL   N504 7362   2.514   0.148   1.368 -0.8476  0.8719  0.0288
   10MOL   C505 7363   2.605   0.231   1.449  0.4516 -0.0397  0.3188
   10MOL   C506 7364   2.604   0.368   1.381  0.0313 -0.4907  0.1169
   10MOL   C507 7365   2.680   0.479   1.459 -0.4772  0.5234 -0.4161
   10MOL   C508 7366   2.673   0.609   1.383  0.0684  0.6422  0.2711
   10MOL   C509 7367   2.779   0.712   1.418  0.1703  0.1012 -0.2410
   10MOL   C510 7368   2.774   0.839   1.324 -0.1998 -0.5109 -0.3811
   10MOL   N511 7369   2.858   0.948   1.360  0.2405 -0.0491 -0.8209
   10MOL   H512 7370   2.057   0.305   1.124 -0.0056 -0.8309  0.3556
   10MOL   H513 7371   1.992   0.231   1.260 -0.7569 -0.5416 -0.1786
   10MOL   H514 7372   2.256   0.141   1.134 -0.0024 -1.2874 -0.4080
   10MOL   H515 7373   2.239   0.245   1.267  0.4924 -0.9734  1.1402
   10MOL   H516 7374   2.136   7.679   1.251  2.0899  0.4390 -2.7381
   10MOL   H517 7375   2.143   0.064   1.406 -1.1207  0.9613 -0.6679
   10MOL   H518 7376   2.365   7.683   1.222  2.1935  2.5317  0.0793
   10MOL   H519 7377   2.320   7.589   1.375  2.3762  0.7328  2.2446
   10MOL   H520 7378   2.516   0.163   1.268  1.4168  0.5174 -0.0042
   10MOL   H521 7379   2.558   0.249   1.545 -1.5924 -0.1849 -0.6399
   10MOL   H522 7380   2.706   0.193   1.468  0.5457  0.9747  1.9600
   10MOL   H523 7381   2.666   0.343   1.295  1.6347 -2.1867  1.7169
   10MOL   H524 7382   2.506   0.404   1.349  0.3396 -0.8539 -1.2446
   10MOL   H525 7383   2.782   0.442   1.465 -0.5600  0.4809  0.9477
   10MOL   H526 7384   2.640   0.488   1.560 -0.5024  0.6998 -0.4424
   10MOL   H527 7385   2.681   0.588   1.276 -1.4510  3.1012 -0.3566
   10MOL   H528 7386   2.578   0.661   1.393  1.2315  2.8504  0.2280
   10MOL   H529 7387   2.769   0.740   1.523  2.0485 -3.3973  0.9328
   10MOL   H530 7388   2.877   0.669   1.400  0.4224 -0.1240  1.5336
   10MOL   H531 7389   2.670   0.873   1.328 -0.2950 -0.9048  0.6262
   10MOL   H532 7390   2.800   0.816   1.221 -1.0864 -0.2915 -0.6609
   10MOL   H533 7391   2.818   1.002   1.435  2.2811 -1.0038  1.0053
   10MOL   C534 7392   2.992   0.972   1.331  0.0122 -0.6283  0.3613
   10MOL   O535 7393   3.060   0.900   1.264 -0.2694 -1.1615  0.3863
   10MOL   C536 7394   3.049   1.113   1.375  0.4202  0.2367  0.6123
   10MOL   C537 7395   3.081   1.216   1.262  0.1299  0.1478 -0.3813
   10MOL   C538 7396   2.977   1.221   1.152  1.0091 -0.0320 -0.2964
   10MOL   C539 7397   2.846   1.285   1.195  0.0007 -0.1687 -0.7404
   10MOL   C540 7398   2.755   1.320   1.077  0.4125 -0.5702  0.1907
   10MOL   O541 7399   2.783   1.298   0.956 -0.5776  0.5893 -0.6147
   10MOL   N542 7400   2.630   1.370   1.100 -0.4648 -0.2503 -0.3394
   10MOL   C543 7401   2.572   1.389   1.235  0.0626  0.3052 -0.0724
   10MOL   C544 7402   2.622   1.520   1.309  0.0183 -0.3363 -0.1771
   10MOL   C545 7403   2.620   1.515   1.455 -0.7614  0.4322 -0.8849
   10MOL   C546 7404   2.751   1.458   1.521 -0.3259 -0.3738 -0.2166
   10MOL   C547 7405   2.744   1.445   1.673 -0.3447 -0.5150  0.3493
   10MOL   C548 7406   2.712   1.303   1.719  0.3327  0.3322 -0.3735
   10MOL   N549 7407   2.589   1.243   1.661 -0.0388 -0.4731  0.0925
   10MOL   H550 7408   2.966   1.161   1.427 -0.3435  0.9286 -1.1846
   10MOL   H551 7409   3.127   1.113   1.450  0.6048  0.0611  0.4170
   10MOL   H552 7410   3.098   1.307   1.319  0.5399 -0.2144  0.0826
   10MOL   H553 7411   3.177   1.185   1.221  1.0477 -0.1318  1.8965
   10MOL   H554 7412   2.951   1.126   1.107  2.5321  0.0710 -1.4630
   10MOL   H555 7413   3.022   1.281   1.072  0.7051 -0.6434 -0.9249
   10MOL   H556 7414   2.884   1.367   1.256  0.3552 -1.4078  0.7345
   10MOL   H557 7415   2.796   1.224   1.270  1.2949 -0.2612  0.0723
   10MOL   H558 7416   2.577   1.410   1.024 -0.5851  0.7929  0.2731
   10MOL   H559 7417   2.463   1.388   1.240  0.1321 -1.3790  2.3570
   10MOL   H560 7418   2.598   1.296   1.286  0.2722 -1.2632 -2.9199
   10MOL   H561 7419   2.723   1.548   1.282 -0.3287  2.0677  0.8650
   10MOL   H562 7420   2.566   1.608   1.277 -0.9463 -0.8106  0.1843
   10MOL   H563 7421   2.552   1.437   1.487 -0.8488  1.5859  1.8509
   10MOL   H564 7422   2.587   1.608   1.501  3.5239  2.3553 -1.4725
   10MOL   H565 7423   2.794   1.371   1.472  3.9851  1.6004 -0.2274
   10MOL   H566 7424   2.826   1.533   1.495 -0.4743  0.0984  0.7075
   10MOL   H567 7425   2.844   1.467   1.711 -0.8533  0.7847  0.9901
   10MOL   H568 7426   2.679   1.521   1.717  0.9762 -0.6377  2.6070
   10MOL   H569 7427   2.712   1.288   1.827  1.3702 -0.4414 -0.4799
   10MOL   H570 7428   2.797   1.241   1.691 -0.4345  0.1975 -2.5349
   10MOL   H571 7429   2.498   1.283   1.682  0.2531  0.9529 -1.3041
   10MOL   C572 7430   2.589   1.137   1.577  0.8769  0.5207 -0.3352
   10MOL   O573 7431   2.691   1.075   1.543 -0.2275  0.6074 -1.0618
   10MOL   C574 7432   2.447   1.097   1.531 -0.1556 -0.2466  0.1871
   10MOL   C575 7433   2.418   0.948   1.537  1.0187 -0.2718  0.0923
   10MOL   C576 7434   2.403   0.887   1.677 -0.4027  0.5065 -0.2022
   10MOL   C577 7435   2.541   0.850   1.761  0.5092 -0.2203  0.0712
   10MOL   C578 7436   2.531   0.741   1.870  0.2036  0.2122 -0.6763
   10MOL   O579 7437   2.444   0.649   1.862  0.6061  0.0452 -0.0036
   10MOL   N580 7438   2.611   0.757   1.975 -0.6961  0.2207  0.5458
   10MOL   C581 7439   2.604   0.678   2.101  0.5260  0.1546 -0.3510
   10MOL   C582 7440   2.742   0.637   2.161 -0.5496  0.3344  0.1369
   10MOL   C583 7441   2.842   0.752   2.155 -0.7060 -0.4248 -0.7776
   10MOL   C584 7442   2.809   0.854   2.268 -0.1198  0.0947  0.1928
   10MOL   C585 7443   2.930   0.947   2.292  0.7950  0.2289 -0.0024
   10MOL   C586 7444   2.925   1.065   2.193 -0.6921  0.3401  0.0354
   10MOL   N587 7445   2.799   1.138   2.178  0.4863  0.4370 -0.4452
   10MOL   H588 7446   2.372   1.143   1.595 -0.7025 -0.3312 -0.3809
   10MOL   H589 7447   2.435   1.146   1.434  0.2651  1.6144  1.0497
   10MOL   H590 7448   2.325   0.927   1.484  2.5433 -1.2169 -2.2878
   10MOL   H591 7449   2.483   0.883   1.477  1.8781 -2.1267  2.8857
   10MOL   H592 7450   2.348   0.793   1.665  1.4528 -0.5098 -0.9994
   10MOL   H593 7451   2.335   0.941   1.742  0.4232  2.0328 -0.5787
   10MOL   H594 7452   2.565   0.942   1.814  1.5729  0.6713 -1.9146
   10MOL   H595 7453   2.630   0.837   1.699 -2.0806  2.6235 -4.4981
   10MOL   H596 7454   2.681   0.830   1.965  1.3133 -1.9582 -1.8886
   10MOL   H597 7455   2.552   0.737   2.177  1.4276 -0.3569  0.6631
   10MOL   H598 7456   2.548   0.585   2.097  0.4063  0.1315  1.5797
   10MOL   H599 7457   2.729   0.598   2.262 -2.6976  0.6257  0.0043
   10MOL   H600 7458   2.782   0.554   2.102 -0.9522  0.2383 -0.0003
   10MOL   H601 7459   2.850   0.800   2.058 -0.1096  2.1322  0.4901
   10MOL   H602 7460   2.944   0.718   2.175 -0.0923  1.9462  0.3809
   10MOL   H603 7461   2.717   0.906   2.241 -0.1336 -1.2214 -2.4377
   10MOL   H604 7462   2.768   0.811   2.360 -1.0820  1.8576  0.6191
   10MOL   H605 7463   2.920   0.986   2.394 -0.6196  0.7999 -0.3394
   10MOL   H606 7464   3.030   0.909   2.275  0.6781 -0.7718  1.4196
   10MOL   H607 7465   2.945   1.030   2.092  0.7407 -0.8782  0.7154
   10MOL   H608 7466   3.000   1.130   2.238  1.2147 -1.6408 -0.1740
   10MOL   H609 7467   2.758   1.184   2.259 -1.3643 -0.3316 -0.9173
   10MOL   C610 7468   2.709   1.138   2.082 -0.4302  0.2191 -0.2369
   10MOL   O611 7469   2.728   1.086   1.972 -0.9018  0.1563 -0.3713
   10MOL   C612 7470   2.581   1.221   2.103  0.2708 -0.2127 -0.0126
   10MOL   C613 7471   2.458   1.172   2.015  0.2126  0.1026  0.0795
   10MOL   C614 7472   2.369   1.295   1.990 -0.2058  0.5728 -0.1619
   10MOL   C615 7473   2.220   1.264   1.991  1.0300  0.2168  0.1817
   10MOL   C616 7474   2.146   1.392   1.952  0.2254 -0.0834 -0.4694
   10MOL   O617 7475   2.147   1.431   1.835  0.3417  0.0335  0.2251
   10MOL   N618 7476   2.078   1.462   2.044  0.3425  0.2564  0.4986
   10MOL   C619 7477   1.992   1.580   2.009 -0.2691 -0.5596  0.3444
   10MOL   C620 7478   1.853   1.547   2.060  0.9843 -0.0325  0.1999
   10MOL   C621 7479   1.770   1.442   1.986  0.2810  0.1514  0.6282
   10MOL   C622 7480   1.699   1.495   1.856 -0.6791  0.2052  0.0897
   10MOL   C623 7481   1.642   1.385   1.767  0.3444 -0.0666  0.5275
   10MOL   C624 7482   1.580   1.430   1.633 -0.2019  0.3588  0.0264
   10MOL   N625 7483   1.679   1.471   1.532  0.7234  0.1013 -0.8486
   10MOL   H626 7484   2.560   1.246   2.207  0.5942 -1.0115  0.2454
   10MOL   H627 7485   2.614   1.312   2.054 -2.3137 -0.9760 -3.3554
   10MOL   H628 7486   2.487   1.135   1.917 -0.4511  2.0777 -0.8850
   10MOL   H629 7487   2.405   1.089   2.064  0.1232  0.3889  0.4677
   10MOL   H630 7488   2.404   1.337   1.896  0.5464  1.1918  0.3877
   10MOL   H631 7489   2.392   1.376   2.059  0.8279  0.7186 -0.6591
   10MOL   H632 7490   2.205   1.236   2.095  3.8840 -0.7345  0.3775
   10MOL   H633 7491   2.189   1.180   1.929  2.5120 -0.0190 -0.2373
   10MOL   H634 7492   2.084   1.440   2.142  0.5936  2.6559  1.0686
   10MOL   H635 7493   2.034   1.664   2.065  2.3472 -2.1551  0.8843
   10MOL   H636 7494   1.995   1.600   1.902  4.3676  1.6563  0.7612
   10MOL   H637 7495   1.856   1.518   2.165  0.1557  0.2511  0.3074
   10MOL   H638 7496   1.797   1.640   2.071  0.4232 -0.7602  4.3065
   10MOL   H639 7497   1.696   1.399   2.053 -0.4775 -1.3304 -1.1132
   10MOL   H640 7498   1.824   1.353   1.953 -2.0767 -1.4558  1.0623
   10MOL   H641 7499   1.625   1.569   1.885  1.2422  2.4562 -0.5948
   10MOL   H642 7500   1.769   1.563   1.807 -1.1778  2.5931  2.5577
   10MOL   H643 7501   1.715   1.309   1.739  1.0391  0.6282  0.4399
   10MOL   H644 7502   1.567   1.333   1.827 -2.0995  1.8822 -0.7404
   10MOL   H645 7503   1.517   1.517   1.651  1.1205  1.6526 -1.4273
   10MOL   H646 7504   1.518   1.348   1.596  3.0133 -2.1611 -0.1187
   10MOL   H647 7505   1.734   1.553   1.555  1.1304  0.3581 -2.6386
   10MOL   C648 7506   1.702   1.402   1.415  0.3629 -0.3071 -0.3026
   10MOL   O649 7507   1.638   1.297   1.385  0.2537  0.0565  0.2942
   10MOL   C650 7508   1.793   1.470   1.318 -0.1136  0.2953  0.5053
   10MOL   C651 7509   1.860   1.383   1.211  0.0313 -0.6011  0.1938
   10MOL   C652 7510   1.993   1.317   1.266 -0.3398 -0.1268  0.1963
   10MOL   C653 7511   2.055   1.200   1.187  0.0081  0.0820 -0.4323
   10MOL   C654 7512   2.196   1.173   1.224  0.1050  0.1228  0.2122
   10MOL   O655 7513   2.252   1.231   1.313 -0.3843  0.0518  0.3042
   10MOL   N656 7514   2.253   1.077   1.149 -0.2795 -0.0234  0.0489
   10MOL   C657 7515   2.393   1.033   1.163  0.0148  0.7339 -0.2527
   10MOL   C658 7516   2.440   0.970   1.030  0.0164 -0.3178  0.3014
   10MOL   C659 7517   2.586   0.915   1.037  0.4364  0.6441 -1.1618
   10MOL   C660 7518   2.640   0.869   0.906  0.5636 -0.5831 -0.0629
   10MOL   C661 7519   2.685   0.985   0.822  0.3427  0.1469 -0.5877
   10MOL   C662 7520   2.682   0.972   0.671  0.2391  0.0181 -0.6168
   10MOL   N663 7521   2.543   0.967   0.627 -0.0910 -0.4657  0.1877
   10MOL   H664 7522   1.760   1.564   1.272  1.1427 -0.2200 -1.4989
   10MOL   H665 7523   1.880   1.509   1.370 -0.2300 -0.6719  1.4175
   10MOL   H666 7524   1.800   1.301   1.173  0.8381  0.0393 -2.5710
   10MOL   H667 7525   1.872   1.448   1.124 -2.3620 -0.3582  0.0343
   10MOL   H668 7526   1.983   1.301   1.373 -1.1262 -0.6814  0.0447
   10MOL   H669 7527   2.066   1.398   1.261 -2.8711  2.1601 -1.8115
   10MOL   H670 7528   2.060   1.227   1.082 -1.7319  0.8174 -0.3398
   10MOL   H671 7529   1.988   1.116   1.201  2.1937 -1.8487 -1.2762
   10MOL   H672 7530   2.205   1.036   1.070  2.7425 -0.0595 -1.8665
   10MOL   H673 7531   2.463   1.111   1.194 -0.1185  0.8894 -0.3419
   10MOL   H674 7532   2.391   0.959   1.243 -1.7503 -0.1469 -1.0954
   10MOL   H675 7533   2.357   0.902   1.007 -0.5263 -0.7118  3.2463
   10MOL   H676 7534   2.420   1.049   0.958  1.5688  1.2870  1.6091
   10MOL   H677 7535   2.584   0.826   1.100 -2.6453  1.5579  0.1074
   10MOL   H678 7536   2.657   0.979   1.089 -0.0627  0.2428  0.0270
   10MOL   H679 7537   2.731   0.811   0.922  1.3528  1.0572  1.5749
   10MOL   H680 7538   2.571   0.805   0.850  2.0170 -2.3826  0.1513
   10MOL   H681 7539   2.637   1.067   0.876 -0.4740 -1.0633  0.5673
   10MOL   H682 7540   2.789   1.008   0.841  0.5004 -0.9590 -0.0885
   10MOL   H683 7541   2.740   0.883   0.646 -0.1279 -0.0061 -1.3829
   10MOL   H684 7542   2.727   1.058   0.623 -1.3938  0.7787 -0.8001
   10MOL   H685 7543   2.487   1.047   0.653  0.4579  0.3214 -1.0464
   10MOL   C686 7544   2.491   0.873   0.544  0.4580 -0.1257 -0.5235
   10MOL   O687 7545   2.552   0.768   0.508  0.3172 -0.6181 -0.1045
   10MOL   C688 7546   2.349   0.910   0.497 -0.4115  0.2310 -1.0076
   10MOL   C689 7547   2.243   0.823   0.565  0.0620  0.6291  0.0035
   10MOL   C690 7548   2.210   0.870   0.710 -0.4233 -0.5540  0.2574
   10MOL   C691 7549   2.100   0.786   0.778  0.1696  0.0681  0.6113
   10MOL   C692 7550   2.110   0.811   0.924  0.0176  0.6821 -0.0594
   10MOL   O693 7551   2.110   0.927   0.960 -0.3203 -0.2884  0.1256
   10MOL   N694 7552   2.118   0.705   1.005 -0.1064 -0.1311  0.5085
   10MOL   C695 7553   2.136   0.720   1.146 -0.0630 -0.7240  0.2067
   10MOL   C696 7554   2.142   0.584   1.216 -0.3665  1.3218 -0.2860
   10MOL   C697 7555   2.169   0.605   1.375 -0.0879 -0.2389 -0.3472
   10MOL   C698 7556   2.194   0.474   1.449 -0.0829 -0.1086  0.1557
   10MOL   C699 7557   2.252   0.491   1.596  0.3499 -0.2267 -0.5716
   10MOL   C700 7558   2.253   0.367   1.671  0.2299 -0.9603 -0.3360
   10MOL   N701 7559   2.295   0.395   1.813 -0.4061 -0.3721  0.4447
   10MOL   H702 7560   2.325   1.015   0.509 -1.9501 -0.4511  2.6767
   10MOL   H703 7561   2.348   0.886   0.390 -0.1652 -2.9877 -0.3416
   10MOL   H704 7562   2.150   0.822   0.507  0.7668  0.5174 -1.1445
   10MOL   H705 7563   2.273   0.718   0.567  0.5475  0.7786  0.8342
   10MOL   H706 7564   2.173   0.972   0.701  0.7669 -0.3486 -3.1081
   10MOL   H707 7565   2.302   0.887   0.766 -0.3507  0.6654 -0.2148
   10MOL   H708 7566   2.116   0.682   0.750  1.4303  0.4797 -0.2727
   10MOL   H709 7567   2.003   0.827   0.750  0.5278  0.8025  0.4048
   10MOL   H710 7568   2.126   0.614   0.962 -2.3871  0.8695 -2.2132
   10MOL   H711 7569   2.224   0.783   1.160  0.8166 -1.4702 -1.8345
   10MOL   H712 7570   2.049   0.769   1.190  0.2095 -1.1230  1.2112
   10MOL   H713 7571   2.050   0.528   1.199  1.6929 -2.1776 -0.3909
   10MOL   H714 7572   2.224   0.525   1.174 -0.8714  0.6181 -0.2962
   10MOL   H715 7573   2.106   0.679   1.424 -1.2296 -1.7838  0.5656
   10MOL   H716 7574   2.267   0.650   1.369 -0.7530  1.2893  0.0327
   10MOL   H717 7575   2.100   0.421   1.434 -0.8215  0.7927  1.4116
   10MOL   H718 7576   2.267   0.412   1.397  1.1964  0.9888  0.5909
   10MOL   H719 7577   2.357   0.523   1.597  0.7762 -1.1946 -5.0276
   10MOL   H720 7578   2.197   0.573   1.643 -0.9787 -0.4706 -1.6811
   10MOL   H721 7579   2.317   0.289   1.630 -0.5951 -2.2067  0.7057
   10MOL   H722 7580   2.151   0.328   1.667  0.2751 -1.1295  0.0659
   10MOL   H723 7581   2.323   0.489   1.837 -1.9724  0.6621 -1.6365
   10MOL   C724 7582   2.327   0.292   1.893 -0.5508 -0.5448  0.9476
   10MOL   O725 7583   2.297   0.171   1.868  0.5039  0.0400  0.3371
   10MOL   C726 7584   2.406   0.329   2.019  0.5296  0.2297  0.4854
   10MOL   C727 7585   2.560   0.306   2.012 -0.9056 -0.4995 -0.0842
   10MOL   C728 7586   2.609   0.163   1.982 -0.5850  0.6142 -0.0074
   10MOL   C729 7587   2.760   0.155   1.958 -0.1275  0.3667  0.5664
   10MOL   C730 7588   2.820   0.220   1.836 -0.2968 -0.2117  0.3925
   10MOL   O731 7589   2.823   0.161   1.726  0.0600  0.0286  0.2436
   10MOL   N732 7590   2.891   0.330   1.866  0.6710 -0.6330 -0.5177
   10MOL   C733 7591   2.944   0.423   1.773  0.5779 -0.3860  0.2704
   10MOL   C734 7592   2.946   0.566   1.837 -0.1189  0.3689  0.7056
   10MOL   C735 7593   2.994   0.677   1.738 -0.5258  0.5527  0.4903
   10MOL   C736 7594   2.953   0.808   1.786 -0.5795  0.0797 -0.2289
   10MOL   C737 7595   3.018   0.928   1.719 -0.4527  0.1604  0.5394
   10MOL   C738 7596   3.020   1.059   1.795  0.1265  0.1750  0.0210
   10MOL   N739 7597   3.095   1.163   1.721 -0.3433  0.1415  0.3627
   10MOL   H740 7598   2.400   0.436   2.038  3.0886  0.3250  0.9160
   10MOL   H741 7599   2.361   0.275   2.102  0.5767  0.6897  0.8136
   10MOL   H742 7600   2.606   0.381   1.948 -1.1394  0.6664  1.1193
   10MOL   H743 7601   2.595   0.332   2.111 -1.3172 -0.5900  0.0864
   10MOL   H744 7602   2.569   0.122   1.890 -1.4755 -0.0492  0.6584
   10MOL   H745 7603   2.591   0.103   2.072  2.1589 -1.6348 -0.9108
   10MOL   H746 7604   2.768   0.046   1.952  0.3086  0.4048  0.4812
   10MOL   H747 7605   2.817   0.188   2.044 -1.0281  1.1965  0.8521
   10MOL   H748 7606   2.889   0.372   1.958 -2.6903 -0.5028 -0.5859
   10MOL   H749 7607   3.029   0.396   1.712  0.0806 -0.8709 -0.2134
   10MOL   H750 7608   2.872   0.433   1.691 -0.1927  0.0580  0.9855
   10MOL   H751 7609   2.847   0.586   1.877  1.0744  0.0077  4.0173
   10MOL   H752 7610   3.012   0.568   1.924  0.6621  1.7447  0.0906
   10MOL   H753 7611   2.967   0.654   1.635  2.5197 -0.6438 -0.0779
   10MOL   H754 7612   3.102   0.667   1.746 -0.6936 -1.0574  0.8461
   10MOL   H755 7613   2.846   0.823   1.777 -0.9644 -1.2845  1.8786
   10MOL   H756 7614   2.979   0.819   1.891 -1.8219  2.1145 -0.0990
   10MOL   H757 7615   3.118   0.894   1.695 -0.3952 -0.5458  1.7796
   10MOL   H758 7616   2.972   0.958   1.624  2.0969  3.1185  0.1640
   10MOL   H759 7617   3.064   1.043   1.894 -0.8703 -0.1502  0.4237
   10MOL   H760 7618   2.917   1.084   1.819  0.5172  0.2839  1.6298
   10MOL   H761 7619   3.039   1.198   1.645 -0.9243 -0.4988  0.4909
   10MOL   H762 7620   3.126   1.252   1.758 -1.7354  0.2888  1.1840
   11MOL     C1 7621   6.871   4.281   4.460 -0.4079 -0.3603  0.5400
   11MOL     O2 7622   6.770   4.313   4.519  0.2069  0.6660  0.4756
   11MOL     C3 7623   6.875   4.263   4.311 -0.0555 -0.1103 -0.1856
   11MOL     C4 7624   6.734   4.247   4.243 -0.7455 -0.3932 -0.6073
   11MOL     C5 7625   6.644   4.374   4.223  1.1837 -0.0387  0.1528
   11MOL     C6 7626   6.501   4.359   4.152 -0.2667  0.4218  0.5198
   11MOL     C7 7627   6.520   4.347   4.000  0.1883 -0.1701 -0.0621
   11MOL     O8 7628   6.606   4.419   3.942  0.3284  0.4169  0.4082
   11MOL     N9 7629   6.441   4.260   3.940 -0.3163  0.1456  0.2696
   11MOL    C10 7630   6.469   4.185   3.817  0.0924 -0.1085  0.5473
   11MOL    C11 7631   6.365   4.209   3.708  0.2528 -0.3174 -0.3605
   11MOL    C12 7632   6.344   4.358   3.670 -0.2448 -0.2066  0.4811
   11MOL    C13 7633   6.260   4.379   3.538  0.3919 -0.3781 -0.1315
   11MOL    C14 7634   6.243   4.534   3.507  0.5087 -0.2562 -0.0666
   11MOL    C15 7635   6.149   4.576   3.396  0.3040  0.0150  0.3249
   11MOL    N16 7636   6.162   4.721   3.377 -0.1036 -0.1418 -0.5951
   11MOL    H17 7637   6.926   4.352   4.274 -3.6201  2.1324  0.0004
   11MOL    H18 7638   6.944   4.184   4.282 -1.0084  0.1076 -3.2747
   11MOL    H19 7639   6.741   4.194   4.148 -0.6415  0.8873 -1.3195
   11MOL    H20 7640   6.683   4.171   4.303  2.0256 -0.2680  2.0206
   11MOL    H21 7641   6.696   4.458   4.175 -0.9845 -0.1023 -2.4269
   11MOL    H22 7642   6.621   4.421   4.319  0.2307 -1.9477  0.8878
   11MOL    H23 7643   6.436   4.446   4.151 -1.2054 -0.2693  0.7231
   11MOL    H24 7644   6.430   4.287   4.194 -2.4319  1.6230 -0.9826
   11MOL    H25 7645   6.370   4.215   3.995 -0.4382  0.4914  0.3980
   11MOL    H26 7646   6.567   4.212   3.778 -0.4020  2.8358  1.1759
   11MOL    H27 7647   6.459   4.078   3.836 -0.0543 -0.0136  1.0097
   11MOL    H28 7648   6.400   4.163   3.616  0.2055  1.0757 -1.0911
   11MOL    H29 7649   6.274   4.153   3.731  0.2606 -0.3254 -0.3486
   11MOL    H30 7650   6.443   4.402   3.666 -0.5477  0.3133 -2.2382
   11MOL    H31 7651   6.284   4.404   3.749  1.9818  2.0360  0.9298
   11MOL    H32 7652   6.303   4.316   3.461  1.1697 -0.5906  0.4710
   11MOL    H33 7653   6.157   4.345   3.547  0.2578 -0.0872 -0.5515
   11MOL    H34 7654   6.224   4.593   3.597 -2.4130  0.5923 -1.1682
   11MOL    H35 7655   6.344   4.562   3.478 -0.0670  0.4609 -1.4324
   11MOL    H36 7656   6.044   4.559   3.422  1.0274  0.1823  3.5887
   11MOL    H37 7657   6.177   4.530   3.302  2.3273  1.4118  0.2239
   11MOL    H38 7658   6.170   4.777   3.461  1.3301 -0.3629 -0.5780
   11MOL    H39 7659   6.963   4.259   4.515 -0.9880 -0.7599  1.3660
   11MOL    C40 7660   6.209   4.784   3.270  0.1549  0.1200 -0.4928
   11MOL    O41 7661   6.212   4.725   3.160  0.1459  0.4197  0.0186
   11MOL    C42 7662   6.259   4.929   3.279  0.5586  0.2447  0.4552
   11MOL    C43 7663   6.185   5.030   3.176 -0.4693 -0.6592 -0.2320
   11MOL    C44 7664   6.274   5.157   3.166 -0.0216 -0.0960  0.3023
   11MOL    C45 7665   6.301   5.231   3.306  0.7597  0.3417 -0.3024
   11MOL    C46 7666   6.175   5.284   3.373 -0.9539  0.0968  0.2228
   11MOL    O47 7667   6.088   5.329   3.299  0.1278 -0.2265  0.0462
   11MOL    N48 7668   6.167   5.271   3.507  0.5875 -0.1696 -0.6321
   11MOL    C49 7669   6.278   5.280   3.605  0.2811 -0.0982 -0.4783
   11MOL    C50 7670   6.221   5.306   3.746 -0.3005  0.5035  0.1056
   11MOL    C51 7671   6.333   5.348   3.849 -0.4384  0.2158  0.3176
   11MOL    C52 7672   6.304   5.326   3.997 -0.0563 -0.5927 -0.1336
   11MOL    C53 7673   6.421   5.378   4.083 -0.4316 -0.1933  0.3296
   11MOL    C54 7674   6.401   5.381   4.233 -0.0919 -0.3167 -0.2155
   11MOL    N55 7675   6.495   5.478   4.299  0.2868 -0.0149  0.3049
   11MOL    H56 7676   6.236   4.957   3.382  1.6943 -2.1595  1.4058
   11MOL    H57 7677   6.367   4.943   3.278  0.9776 -2.6644 -1.3336
   11MOL    H58 7678   6.159   4.983   3.082  1.4518 -0.5437 -0.8609
   11MOL    H59 7679   6.087   5.051   3.218 -1.5426  1.1419 -3.4870
   11MOL    H60 7680   6.228   5.223   3.092 -0.4637  0.5563  1.1412
   11MOL    H61 7681   6.372   5.131   3.126 -0.1602  0.0598 -0.1488
   11MOL    H62 7682   6.365   5.318   3.293  0.2094  0.8009  0.0258
   11MOL    H63 7683   6.355   5.167   3.375  2.9025  0.9710 -1.3666
   11MOL    H64 7684   6.081   5.313   3.541  0.5203 -1.0864  0.3780
   11MOL    H65 7685   6.346   5.195   3.610  0.0850 -0.2707 -0.7397
   11MOL    H66 7686   6.345   5.365   3.591  2.2991 -1.7414 -1.0246
   11MOL    H67 7687   6.146   5.386   3.746  1.3409  2.0725 -0.9608
   11MOL    H68 7688   6.183   5.210   3.780 -1.9456  1.3825  0.8439
   11MOL    H69 7689   6.356   5.452   3.823  0.9115 -0.6069 -1.9284
   11MOL    H70 7690   6.418   5.284   3.828 -1.3444 -1.1212  0.7127
   11MOL    H71 7691   6.210   5.368   4.032  0.1625 -0.6554  0.5491
   11MOL    H72 7692   6.295   5.218   4.008 -0.2402 -0.2987  3.1995
   11MOL    H73 7693   6.509   5.315   4.066  0.4854  1.3194 -0.6065
   11MOL    H74 7694   6.448   5.476   4.045  2.9269 -1.8359 -1.8187
   11MOL    H75 7695   6.399   5.283   4.279  2.0206 -0.8628 -1.2220
   11MOL    H76 7696   6.303   5.421   4.257 -0.3677 -0.7546 -0.6187
   11MOL    H77 7697   6.490   5.568   4.255  0.2523 -0.1136  0.1073
   11MOL    C78 7698   6.578   5.451   4.401 -0.5117  0.0324 -0.4255
   11MOL    O79 7699   6.595   5.336   4.444 -0.0332  0.3372  0.2337
   11MOL    C80 7700   6.659   5.565   4.461 -0.1465 -0.0359  0.0122
   11MOL    C81 7701   6.669   5.561   4.609 -0.0712  0.1063  0.7925
   11MOL    C82 7702   6.686   5.705   4.668 -0.0062 -0.3842  0.0244
   11MOL    C83 7703   6.685   5.709   4.821 -0.1409  0.4920 -0.6658
   11MOL    C84 7704   6.822   5.662   4.872 -0.5057 -0.9525 -0.0393
   11MOL    O85 7705   6.855   5.545   4.874  0.1546 -0.2448 -0.6114
   11MOL    N86 7706   6.905   5.756   4.919  0.1773  0.7701  0.6456
   11MOL    C87 7707   7.034   5.729   4.987 -0.8690 -0.3869  0.0476
   11MOL    C88 7708   7.089   5.845   5.063 -0.2703  0.2017  0.1411
   11MOL    C89 7709   7.160   5.959   4.986  0.2866 -0.2187 -0.0628
   11MOL    C90 7710   7.311   5.949   4.969 -0.3235  0.6243  0.4593
   11MOL    C91 7711   7.359   6.031   4.847  0.1674 -0.4199 -0.5254
   11MOL    C92 7712   7.511   6.025   4.817 -0.5330 -0.0569  0.6640
   11MOL    N93 7713   7.557   6.055   4.678  0.8225  0.5353 -0.1283
   11MOL    H94 7714   6.762   5.551   4.430  0.0728 -1.0128  1.1563
   11MOL    H95 7715   6.619   5.661   4.427 -1.4889  0.2494  2.2532
   11MOL    H96 7716   6.573   5.521   4.643 -0.1392  0.0185  0.4972
   11MOL    H97 7717   6.754   5.497   4.632  0.8295  0.9138 -0.2213
   11MOL    H98 7718   6.612   5.773   4.627  1.7392  2.2700  1.1453
   11MOL    H99 7719   6.780   5.746   4.632  1.0687 -0.7959  2.2598
   11MOL   H100 7720   6.632   5.624   4.864 -0.5626  1.4965  0.8336
   11MOL   H101 7721   6.663   5.804   4.868 -0.0382  0.1862  0.0152
   11MOL   H102 7722   6.870   5.850   4.915 -0.1906  0.7075  2.1868
   11MOL   H103 7723   7.001   5.649   5.053 -0.9850  1.0515  1.8071
   11MOL   H104 7724   7.103   5.696   4.909 -2.2790 -1.4551 -0.7736
   11MOL   H105 7725   7.012   5.887   5.128 -1.7628  0.4996 -1.7796
   11MOL   H106 7726   7.155   5.803   5.139  0.4766  0.9975 -0.0652
   11MOL   H107 7727   7.146   6.049   5.047  1.8008  0.0606 -0.1038
   11MOL   H108 7728   7.111   5.977   4.891 -1.7788  2.9056  1.4699
   11MOL   H109 7729   7.370   5.973   5.057  1.3224 -2.1525  0.1926
   11MOL   H110 7730   7.332   5.843   4.952  0.9116  0.7434  1.1583
   11MOL   H111 7731   7.302   5.996   4.761  0.8997  2.0888 -2.0896
   11MOL   H112 7732   7.320   6.133   4.856 -1.7668 -1.1664 -0.4296
   11MOL   H113 7733   7.538   5.922   4.837  1.0916  0.7159  2.6921
   11MOL   H114 7734   7.570   6.085   4.887 -0.4822  0.9024 -0.1819
   11MOL   H115 7735   7.570   5.982   4.610  2.3834  1.9275 -1.3722
   11MOL   C116 7736   7.591   6.174   4.627  0.4905  0.5119 -0.6333
   11MOL   O117 7737   7.575   6.276   4.692 -0.0807  0.0243  0.0415
   11MOL   C118 7738   7.647   6.188   4.491 -0.0156  0.5665 -0.4806
   11MOL   C119 7739   0.096   6.199   4.490  0.2894  0.2896 -0.0922
   11MOL   C120 7740   0.183   6.072   4.513 -0.0578 -0.2315  0.3443
   11MOL   C121 7741   0.186   5.967   4.402 -0.1397 -0.3875  0.1698
   11MOL   C122 7742   0.060   5.873   4.399  0.1790  0.2499 -0.1681
   11MOL   O123 7743   7.691   5.868   4.492 -0.2768 -0.5018 -0.5932
   11MOL   N124 7744   0.049   5.780   4.300 -0.0684  0.2320 -0.8376
   11MOL   C125 7745   7.668   5.670   4.296 -0.1450  0.3323  0.3274
   11MOL   C126 7746   7.585   5.671   4.158 -0.4510  0.4084  0.6921
   11MOL   C127 7747   7.496   5.548   4.145 -0.9173  0.1222 -0.3097
   11MOL   C128 7748   7.426   5.519   4.010 -0.2356 -0.6011 -0.4568
   11MOL   C129 7749   7.309   5.423   4.021  0.7394  0.5314  0.7207
   11MOL   C130 7750   7.252   5.374   3.883  0.4992  0.2841 -0.3052
   11MOL   N131 7751   7.228   5.483   3.791 -0.0884 -0.0156 -0.1922
   11MOL   H132 7752   7.609   6.106   4.431  1.2963  0.0504 -0.6346
   11MOL   H133 7753   7.601   6.278   4.452 -0.9935  0.3757  0.2219
   11MOL   H134 7754   0.123   6.238   4.392  0.2705 -0.9519 -0.5998
   11MOL   H135 7755   0.135   6.274   4.559 -0.2593  1.5852 -1.1457
   11MOL   H136 7756   0.139   6.039   4.607 -2.2251  3.9953  0.9119
   11MOL   H137 7757   0.288   6.092   4.536 -0.0212 -0.2819  0.2242
   11MOL   H138 7758   0.270   5.908   4.439 -0.1593  0.3798  1.4638
   11MOL   H139 7759   0.219   5.992   4.302  1.8446 -0.6820  0.7345
   11MOL   H140 7760   0.094   5.803   4.213 -0.5633 -2.3718 -1.8220
   11MOL   H141 7761   0.011   5.574   4.308 -1.4026 -0.5414 -1.0626
   11MOL   H142 7762   7.598   5.678   4.378 -1.7628  0.2417 -1.0149
   11MOL   H143 7763   7.526   5.763   4.160 -0.6055  0.3232  0.2695
   11MOL   H144 7764   7.653   5.678   4.072 -1.4938  0.5203 -0.1399
   11MOL   H145 7765   7.418   5.562   4.220 -2.8585  1.9879 -2.6128
   11MOL   H146 7766   7.564   5.463   4.156  0.4401  1.3426  0.8235
   11MOL   H147 7767   7.402   5.613   3.961 -0.1281  1.0029  2.5007
   11MOL   H148 7768   7.507   5.484   3.947  1.5546  0.5899  1.1504
   11MOL   H149 7769   7.344   5.332   4.070  0.6890  0.7328  1.1276
   11MOL   H150 7770   7.229   5.473   4.075  0.0211  0.6486 -0.4221
   11MOL   H151 7771   7.167   5.306   3.892 -1.2417  2.5337  0.4466
   11MOL   H152 7772   7.325   5.311   3.832 -0.5903 -0.9478 -0.3800
   11MOL   H153 7773   7.275   5.570   3.811  1.7387 -0.9323 -0.4433
   11MOL   C154 7774   7.138   5.487   3.698  0.0650 -0.5536 -0.0674
   11MOL   O155 7775   7.089   5.383   3.658 -0.1149  0.0837 -0.6916
   11MOL   C156 7776   7.122   5.624   3.635  0.4208 -0.2739  0.7565
   11MOL   C157 7777   7.148   5.602   3.484 -0.7707  0.3245 -0.1630
   11MOL   C158 7778   7.136   5.729   3.396  0.4758 -0.3149 -0.0145
   11MOL   C159 7779   7.275   5.802   3.382  0.5623 -0.8708  0.3312
   11MOL   C160 7780   7.247   5.932   3.311 -0.2405  0.2642 -0.4918
   11MOL   O161 7781   7.145   5.942   3.236  0.2103 -0.3852  0.6524
   11MOL   N162 7782   7.324   6.030   3.343 -0.6809  0.5873  0.6519
   11MOL   C163 7783   7.301   6.163   3.274  0.1522  0.1096  0.4184
   11MOL   C164 7784   7.248   6.274   3.370 -0.2878  0.4467 -0.2302
   11MOL   C165 7785   7.347   6.324   3.483 -0.1896  0.2028 -0.1663
   11MOL   C166 7786   7.276   6.401   3.598  0.1669  0.6984  0.0158
   11MOL   C167 7787   7.377   6.474   3.685  0.4681 -0.6032 -1.0832
   11MOL   C168 7788   7.323   6.557   3.806  0.3967  0.3134 -0.2107
   11MOL   N169 7789   7.414   6.663   3.842 -0.4818  0.1039 -0.0829
   11MOL   H170 7790   7.017   5.647   3.650  0.3283  1.2698 -1.8364
   11MOL   H171 7791   7.180   5.700   3.686  0.5855  0.0052  0.1626
   11MOL   H172 7792   7.252   5.570   3.489 -0.5785  1.0172  0.3749
   11MOL   H173 7793   7.078   5.528   3.444  0.8896 -2.8920  2.6010
   11MOL   H174 7794   7.051   5.791   3.424  0.0507 -0.9730  0.1432
   11MOL   H175 7795   7.118   5.686   3.297  0.5811  1.0953 -0.6733
   11MOL   H176 7796   7.349   5.746   3.326  2.8319  2.0402  0.3269
   11MOL   H177 7797   7.313   5.828   3.481  0.2809  1.5950 -0.1774
   11MOL   H178 7798   7.403   6.017   3.405 -0.8344  0.9887  0.9393
   11MOL   H179 7799   7.395   6.201   3.235  0.1220  0.0595  0.2976
   11MOL   H180 7800   7.240   6.161   3.184  0.4316 -1.2686  0.2463
   11MOL   H181 7801   7.213   6.360   3.313 -0.0290  0.2021 -0.7539
   11MOL   H182 7802   7.154   6.240   3.414  1.7318 -4.0982  0.8636
   11MOL   H183 7803   7.414   6.395   3.436 -0.4010 -1.5478 -3.2488
   11MOL   H184 7804   7.412   6.248   3.526  1.0347  1.3031 -0.0414
   11MOL   H185 7805   7.193   6.463   3.564 -0.9114  0.2116  1.7117
   11MOL   H186 7806   7.228   6.327   3.662 -0.2196  0.6688 -0.3049
   11MOL   H187 7807   7.463   6.414   3.716  0.3311  0.2323  1.0175
   11MOL   H188 7808   7.417   6.547   3.615 -0.2478 -0.2884 -1.1576
   11MOL   H189 7809   7.324   6.486   3.888  1.5527 -0.3840 -0.8030
   11MOL   H190 7810   7.218   6.584   3.804  1.1090  3.3296  0.1574
   11MOL   H191 7811   7.459   6.725   3.776  0.6956 -0.7165 -0.0569
   11MOL   C192 7812   7.434   6.716   3.969 -0.2582 -0.0319  0.1224
   11MOL   O193 7813   7.385   6.666   4.069  0.7239  0.2755  0.6711
   11MOL   C194 7814   7.532   6.829   3.982 -0.2156 -0.0051  0.6256
   11MOL   C195 7815   7.595   6.858   4.127  0.0267  0.4441 -0.2005
   11MOL   C196 7816   0.016   6.781   4.170  0.1652  0.0683 -0.0116
   11MOL   C197 7817   7.704   6.631   4.212  0.3998 -0.0762  0.1436
   11MOL   C198 7818   7.643   6.608   4.350  0.3720 -0.6867  0.2952
   11MOL   O199 7819   7.708   6.620   4.451 -0.2491 -0.1927 -0.4198
   11MOL   N200 7820   7.519   6.560   4.343  0.5459 -0.3382  0.2530
   11MOL   C201 7821   7.438   6.527   4.461 -0.7608  0.2818  0.0364
   11MOL   C202 7822   7.316   6.445   4.427 -0.1448  0.5426 -0.6462
   11MOL   C203 7823   7.227   6.408   4.552 -0.5157 -0.1060  0.0756
   11MOL   C204 7824   7.115   6.305   4.516  0.0308 -0.2734 -0.7660
   11MOL   C205 7825   7.004   6.327   4.616 -0.0173  0.4407  0.3931
   11MOL   C206 7826   6.898   6.208   4.615  0.1220 -0.1680 -1.0537
   11MOL   N207 7827   6.790   6.240   4.715 -0.0864 -0.1919  0.9644
   11MOL   H208 7828   7.617   6.800   3.919  0.1507 -0.1980  1.2004
   11MOL   H209 7829   7.498   6.922   3.936  0.8552  0.5182  0.8657
   11MOL   H210 7830   7.620   6.963   4.143 -1.0198  0.9360 -1.6779
   11MOL   H211 7831   7.518   6.855   4.204  0.9819  1.8452  0.8441
   11MOL   H212 7832   0.055   6.829   4.260  0.5264 -0.3193  0.0403
   11MOL   H213 7833   0.089   6.794   4.090  1.0503  2.0925  1.0743
   11MOL   H214 7834   0.089   6.575   4.206  1.1316  1.0225  1.0857
   11MOL   H215 7835   7.638   6.575   4.145  2.9931 -2.9890 -0.0799
   11MOL   H216 7836   7.469   6.553   4.256  3.0136  0.3318 -1.2730
   11MOL   H217 7837   7.499   6.477   4.536  0.8072 -1.4922 -2.3445
   11MOL   H218 7838   7.420   6.626   4.503  2.4586  1.1383 -0.4895
   11MOL   H219 7839   7.268   6.504   4.350 -1.2837  1.7844  0.9775
   11MOL   H220 7840   7.348   6.349   4.387 -0.7034 -0.7143  1.8203
   11MOL   H221 7841   7.185   6.496   4.601 -0.4253  0.4038 -0.7486
   11MOL   H222 7842   7.308   6.360   4.607 -1.0521 -2.1186 -0.8663
   11MOL   H223 7843   7.075   6.312   4.415  0.6994  0.8894 -0.9582
   11MOL   H224 7844   7.141   6.199   4.518  3.6418  0.5584  0.7784
   11MOL   H225 7845   7.046   6.343   4.716 -0.1060 -0.4103  0.5652
   11MOL   H226 7846   6.954   6.423   4.602  1.8416  1.1538 -1.5170
   11MOL   H227 7847   6.946   6.114   4.641 -0.9126 -0.0843  1.2714
   11MOL   H228 7848   6.850   6.201   4.517 -1.1516 -1.9498 -0.3200
   11MOL   H229 7849   6.736   6.325   4.702  1.9100  0.9036 -0.4488
   11MOL   C230 7850   6.771   6.162   4.820 -0.2992  0.7573  0.4433
   11MOL   O231 7851   6.832   6.058   4.841  0.0380 -0.0125  0.1506
   11MOL   C232 7852   6.658   6.205   4.911 -0.1808  0.2345  0.3179
   11MOL   C233 7853   6.699   6.231   5.063  1.2209 -0.0647 -0.2475
   11MOL   C234 7854   6.739   6.105   5.136  0.0838  0.2701 -0.3640
   11MOL   C235 7855   6.767   6.136   5.285 -0.2984 -0.0707 -0.1058
   11MOL   C236 7856   6.825   6.018   5.361 -0.0345  0.5943 -0.1539
   11MOL   O237 7857   6.750   5.931   5.402  0.2123  0.0805 -0.1531
   11MOL   N238 7858   6.958   6.014   5.380  0.1215 -0.4089 -0.6491
   11MOL   C239 7859   7.031   5.913   5.455  0.0778 -0.5839  0.7703
   11MOL   C240 7860   7.176   5.950   5.488 -0.7288  0.5549 -0.6774
   11MOL   C241 7861   7.172   6.057   5.599 -0.0865  0.6740 -0.3441
   11MOL   C242 7862   7.317   6.107   5.639  0.3829  0.3627 -0.0136
   11MOL   C243 7863   7.323   6.212   5.746  0.1711  0.4872  0.0900
   11MOL   C244 7864   7.464   6.229   5.796 -0.7849  0.0227 -0.0869
   11MOL   N245 7865   7.467   6.355   5.873  0.7779  0.1229 -0.4252
   11MOL   H246 7866   6.597   6.278   4.857  1.1213  0.6370 -0.6261
   11MOL   H247 7867   6.587   6.123   4.922  0.4736 -0.7314 -2.2013
   11MOL   H248 7868   6.777   6.306   5.074  0.8169  0.0398  2.2841
   11MOL   H249 7869   6.618   6.278   5.119  2.1806 -0.2103  1.3024
   11MOL   H250 7870   6.829   6.064   5.090  0.5305  0.1732  0.5805
   11MOL   H251 7871   6.679   6.014   5.129  1.4534 -0.7054  0.2515
   11MOL   H252 7872   6.676   6.171   5.333 -1.2116 -0.2238 -1.6653
   11MOL   H253 7873   6.842   6.214   5.274 -0.3339  0.3877  2.6055
   11MOL   H254 7874   7.004   6.092   5.333  0.2861 -0.2964 -0.3019
   11MOL   H255 7875   6.982   5.874   5.544  0.4311 -2.3629  0.2074
   11MOL   H256 7876   7.040   5.832   5.383  2.2813  0.2878  0.0184
   11MOL   H257 7877   7.227   5.857   5.513  2.0153  1.4388 -2.7712
   11MOL   H258 7878   7.217   5.990   5.396 -2.7642  0.8039 -1.4990
   11MOL   H259 7879   7.123   6.027   5.692  1.2525 -2.4217 -0.5641
   11MOL   H260 7880   7.121   6.148   5.568  0.8311  1.0049 -0.8944
   11MOL   H261 7881   7.382   6.025   5.668  1.1203  0.6198 -0.9321
   11MOL   H262 7882   7.367   6.141   5.548 -0.8343  1.1050 -0.4179
   11MOL   H263 7883   7.278   6.305   5.712  2.5506  2.6215  2.5591
   11MOL   H264 7884   7.256   6.187   5.829  0.2831  0.3763  0.1484
   11MOL   H265 7885   7.534   6.237   5.713 -2.3264 -0.1216 -1.4292
   11MOL   H266 7886   7.489   6.148   5.865 -1.5905 -0.4944 -0.3936
   11MOL   H267 7887   7.385   6.406   5.902  1.5533  1.2150 -0.0926
   11MOL   C268 7888   7.583   6.421   5.908  0.2590 -0.1534 -0.4259
   11MOL   O269 7889   7.695   6.381   5.870 -0.7421 -0.4366  0.1118
   11MOL   C270 7890   7.573   6.532   6.009  0.2403 -0.1067  0.8389
   11MOL   C271 7891   7.700   6.547   6.098 -0.2450  0.0785  0.2904
   11MOL   C272 7892   7.679   6.639   6.221 -1.4260 -0.2921  0.0059
   11MOL   C273 7893   7.567   6.601   6.317  0.1111 -0.9662  0.0527
   11MOL   C274 7894   7.567   6.455   6.365 -0.0968  0.5624  0.0238
   11MOL   O275 7895   7.657   6.414   6.440  0.0801 -0.3678  0.0702
   11MOL   N276 7896   7.465   6.383   6.317 -0.3750  0.1519 -0.3251
   11MOL   C277 7897   7.468   6.232   6.305  0.3494 -0.6911 -0.9287
   11MOL   C278 7898   7.368   6.179   6.203 -0.0038  0.8319  0.1797
   11MOL   C279 7899   7.388   6.030   6.170  0.3027 -1.1688  0.2598
   11MOL   C280 7900   7.265   5.976   6.098 -0.0517 -0.0606  0.0101
   11MOL   C281 7901   7.313   5.847   6.029 -0.1469  0.4448 -0.2322
   11MOL   C282 7902   7.187   5.776   5.963 -0.5615 -0.3202  0.9002
   11MOL   N283 7903   7.222   5.644   5.902 -0.2523  0.3646 -0.1728
   11MOL   H284 7904   7.534   6.622   5.961  2.1757 -0.4752 -1.4916
   11MOL   H285 7905   7.503   6.488   6.080  1.1013 -3.6135 -0.3873
   11MOL   H286 7906   0.029   6.447   6.116 -1.6046 -0.6953 -1.1247
   11MOL   H287 7907   0.068   6.594   6.035 -0.6346  1.5116  0.8585
   11MOL   H288 7908   7.665   6.740   6.182  2.6209  0.7840  1.1806
   11MOL   H289 7909   0.063   6.642   6.279 -0.9039 -0.3073 -0.8115
   11MOL   H290 7910   7.473   6.635   6.271  0.7276  0.2382 -0.3477
   11MOL   H291 7911   7.576   6.664   6.406  3.0097 -0.4253 -0.5642
   11MOL   H292 7912   7.403   6.433   6.255 -2.0305 -0.6160  0.6972
   11MOL   H293 7913   7.570   6.206   6.278  0.2485  0.3189 -2.3037
   11MOL   H294 7914   7.448   6.184   6.401 -3.3221  1.1393 -0.6778
   11MOL   H295 7915   7.267   6.194   6.241 -0.6265  0.5265 -1.3360
   11MOL   H296 7916   7.358   6.243   6.115  0.6723 -0.2686 -0.7071
   11MOL   H297 7917   7.410   5.974   6.261  1.1300  0.5964  1.1677
   11MOL   H298 7918   7.477   6.023   6.108 -1.4942 -0.6904 -2.4684
   11MOL   H299 7919   7.189   5.939   6.167  1.2415  0.3694  1.7280
   11MOL   H300 7920   7.235   6.047   6.022  0.0850 -0.3745 -0.3383
   11MOL   H301 7921   7.402   5.857   5.967  0.4507  0.6369  0.6479
   11MOL   H302 7922   7.346   5.784   6.111 -0.1770  1.1749  0.3472
   11MOL   H303 7923   7.131   5.847   5.902 -0.9104  0.4980  2.1461
   11MOL   H304 7924   7.120   5.755   6.046 -1.1658 -1.2401  0.1820
   11MOL   H305 7925   7.256   5.569   5.960 -1.2512 -1.3153 -1.6935
   11MOL   C306 7926   7.193   5.615   5.772 -0.0862 -0.0321 -0.0679
   11MOL   O307 7927   7.135   5.692   5.699  0.2887  0.0340  0.3316
   11MOL   C308 7928   7.239   5.481   5.717  0.2212 -0.1150  0.5527
   11MOL   C309 7929   7.351   5.487   5.610  0.7499 -0.0719  0.2018
   11MOL   C310 7930   7.496   5.528   5.661  0.6413 -0.4493 -0.2227
   11MOL   C311 7931   7.509   5.667   5.734 -0.0277 -0.6163  0.3892
   11MOL   C312 7932   7.650   5.728   5.750  0.3108 -0.4230  0.6068
   11MOL   O313 7933   0.039   5.649   5.726  0.3053 -0.1511  0.0086
   11MOL   N314 7934   7.662   5.858   5.788  0.2446  0.2023 -0.3560
   11MOL   C315 7935   0.079   5.925   5.821  0.4163  0.2409  0.2713
   11MOL   C316 7936   0.057   5.989   5.962 -0.1167 -0.3827  0.5695
   11MOL   C317 7937   0.172   6.038   6.037  0.0951  0.5557  0.4249
   11MOL   C318 7938   0.123   6.104   6.169 -0.6361  0.2136 -0.3753
   11MOL   C319 7939   0.245   6.147   6.261  0.3281 -1.0415 -0.4477
   11MOL   C320 7940   0.197   6.205   6.391  0.2216  0.3669  0.4971
   11MOL   N321 7941   0.303   6.187   6.485  0.4229 -0.5377 -0.2885
   11MOL   H322 7942   7.270   5.406   5.789  2.4873  0.5347  0.3176
   11MOL   H323 7943   7.146   5.444   5.675 -1.7773  2.0171  2.9366
   11MOL   H324 7944   7.358   5.388   5.564  1.8335 -0.5994  1.4868
   11MOL   H325 7945   7.314   5.557   5.536  0.2027 -1.4284 -0.8354
   11MOL   H326 7946   7.565   5.535   5.577 -2.0308  0.7614 -2.3511
   11MOL   H327 7947   7.535   5.454   5.731 -0.6538 -2.5232 -1.6534
   11MOL   H328 7948   7.469   5.656   5.835 -0.9869  1.7805  0.3123
   11MOL   H329 7949   7.445   5.743   5.690  2.2635  1.5937  0.7435
   11MOL   H330 7950   7.582   5.919   5.789  0.4676  0.5233  2.9623
   11MOL   H331 7951   0.158   5.850   5.825  2.2177  2.0918 -0.1320
   11MOL   H332 7952   0.104   5.988   5.736  1.7020  0.9588  1.1834
   11MOL   H333 7953   7.689   6.067   5.958  0.8139  0.5895  1.3592
   11MOL   H334 7954   0.009   5.921   6.032 -2.6954 -1.2277 -1.9312
   11MOL   H335 7955   0.238   6.106   5.984  0.3259  0.9962  1.2546
   11MOL   H336 7956   0.231   5.952   6.067 -1.7188 -1.5105 -1.8066
   11MOL   H337 7957   0.073   6.197   6.144  1.6582  1.7256  0.4303
   11MOL   H338 7958   0.051   6.040   6.220 -0.0839  0.6447  0.9860
   11MOL   H339 7959   0.303   6.056   6.279 -0.1191 -1.4662 -1.1508
   11MOL   H340 7960   0.308   6.219   6.210  0.5458 -0.1088  1.0813
   11MOL   H341 7961   0.101   6.162   6.422 -0.1684  1.0905  0.3103
   11MOL   H342 7962   0.172   6.311   6.379  0.8615  0.7000  1.8976
   11MOL   H343 7963   0.352   6.271   6.513  0.2762 -1.0267  1.5154
   11MOL   C344 7964   0.323   6.083   6.563 -0.7181  0.0826  0.3046
   11MOL   O345 7965   0.256   5.975   6.561  0.5994  0.2046  0.6969
   11MOL   C346 7966   0.440   6.096   6.663  0.3358  0.3839  0.2226
   11MOL   C347 7967   0.448   6.004   6.793 -0.2672 -0.0417 -0.2542
   11MOL   C348 7968   0.579   6.047   6.870  0.0830  0.7215 -0.3118
   11MOL   C349 7969   0.589   5.976   7.006 -0.0258 -0.0975  0.1610
   11MOL   C350 7970   0.652   5.834   6.998  0.4386  0.1261 -0.3359
   11MOL   O351 7971   0.753   5.818   6.935  0.0517  0.4335  0.1098
   11MOL   N352 7972   0.610   5.729   7.066 -0.2062  0.4873  0.1677
   11MOL   C353 7973   0.678   5.600   7.067 -0.0714 -0.0456 -0.2401
   11MOL   C354 7974   0.577   5.487   7.054  0.0022 -0.4161  0.2847
   11MOL   C355 7975   0.636   5.353   7.107  0.2399  0.3186 -0.0758
   11MOL   C356 7976   0.535   5.236   7.071 -0.7900 -0.6966  0.5798
   11MOL   C357 7977   0.572   5.096   7.111 -0.0629 -0.4312  0.2757
   11MOL   C358 7978   0.714   5.051   7.080  0.2832  0.0745 -0.7070
   11MOL   N359 7979   0.749   5.066   6.936 -0.7010  0.4123  0.9855
   11MOL   H360 7980   0.537   6.089   6.615 -1.6593  0.2659 -3.9548
   11MOL   H361 7981   0.430   6.200   6.696  0.9158  1.0725 -1.7325
   11MOL   H362 7982   0.364   6.019   6.861 -0.3567 -2.1338  0.1340
   11MOL   H363 7983   0.459   5.903   6.755 -1.4603  0.2125 -1.2988
   11MOL   H364 7984   0.583   6.156   6.875  1.4696  0.6431  0.4319
   11MOL   H365 7985   0.665   6.031   6.805  0.3729  1.4529 -0.1223
   11MOL   H366 7986   0.487   5.962   7.042 -0.1685 -2.3437 -1.0015
   11MOL   H367 7987   0.649   6.034   7.075  1.0834  0.7302 -1.4644
   11MOL   H368 7988   0.519   5.736   7.109 -1.5206 -0.5624 -2.2843
   11MOL   H369 7989   0.753   5.590   6.988  2.5842 -1.0242  2.3282
   11MOL   H370 7990   0.715   5.592   7.169  0.1496 -1.1281 -0.4040
   11MOL   H371 7991   0.484   5.494   7.110 -0.5000 -4.0891  0.0673
   11MOL   H372 7992   0.556   5.487   6.947 -2.4760  0.1981  0.7365
   11MOL   H373 7993   0.646   5.368   7.214 -2.8188  3.0847 -0.0734
   11MOL   H374 7994   0.735   5.348   7.063 -0.2892  1.1775 -1.3962
   11MOL   H375 7995   0.443   5.258   7.125  0.4412 -0.6941  2.7023
   11MOL   H376 7996   0.517   5.240   6.963  2.3863  0.2550  0.0553
   11MOL   H377 7997   0.560   5.089   7.220  1.2246 -1.6584  0.3479
   11MOL   H378 7998   0.502   5.028   7.064 -0.6322 -0.5739  1.3037
   11MOL   H379 7999   0.735   4.948   7.111  0.9812  1.0193  2.1043
   11MOL   H380 8000   0.784   5.109   7.139 -0.6634  0.6824 -0.1861
   11MOL   H381 8001   0.677   5.105   6.877 -0.9492 -2.8170 -0.9718
   11MOL   C382 8002   0.866   5.037   6.873 -0.1624 -0.0253 -0.8354
   11MOL   O383 8003   0.954   4.969   6.927 -0.1118  0.6552  0.1956
   11MOL   C384 8004   0.892   5.104   6.740 -0.0184  0.8528  0.2195
   11MOL   C385 8005   0.768   5.132   6.655  0.1573 -1.0070  0.1978
   11MOL   C386 8006   0.698   5.266   6.686  0.2055 -0.4172 -0.0634
   11MOL   C387 8007   0.544   5.273   6.658 -0.4904 -0.2340  0.1531
   11MOL   C388 8008   0.527   5.269   6.505  0.7701 -0.3323 -0.3332
   11MOL   O389 8009   0.539   5.165   6.443  0.3334  0.0067 -0.1199
   11MOL   N390 8010   0.491   5.388   6.447  0.4564 -0.2840  0.0768
   11MOL   C391 8011   0.501   5.405   6.303  0.5254 -0.0282  0.4188
   11MOL   C392 8012   0.645   5.396   6.246 -0.1724  0.2586  0.9727
   11MOL   C393 8013   0.642   5.424   6.089 -0.6939  0.2179  0.7626
   11MOL   C394 8014   0.780   5.403   6.024  0.4407  0.2522 -0.0051
   11MOL   C395 8015   0.831   5.253   6.013 -0.0147  0.5128  0.3651
   11MOL   C396 8016   0.942   5.241   5.906 -0.5985 -0.5790 -0.1448
   11MOL   N397 8017   1.072   5.301   5.960  0.0713  0.5375  0.1855
   11MOL   H398 8018   0.947   5.197   6.754  2.0784 -0.6619  2.5340
   11MOL   H399 8019   0.959   5.042   6.680 -0.7007 -0.7133  1.0570
   11MOL   H400 8020   0.796   5.131   6.550  2.1720 -1.1003  0.7015
   11MOL   H401 8021   0.699   5.050   6.673  0.5773 -0.9839  2.0261
   11MOL   H402 8022   0.744   5.351   6.636 -0.6425 -0.2831 -0.6139
   11MOL   H403 8023   0.698   5.281   6.794 -0.1189 -2.6258  0.2829
   11MOL   H404 8024   0.513   5.364   6.710  0.1318  0.8492 -1.3181
   11MOL   H405 8025   0.498   5.181   6.696 -1.2113  0.1658  0.2703
   11MOL   H406 8026   0.461   5.468   6.501  1.9706 -1.0274  2.0694
   11MOL   H407 8027   0.449   5.329   6.244  0.2059  0.3665  0.1918
   11MOL   H408 8028   0.455   5.496   6.265  1.6810  0.0368 -0.8565
   11MOL   H409 8029   0.706   5.475   6.290 -1.7465  1.3394  1.3000
   11MOL   H410 8030   0.692   5.301   6.270  2.2789  0.6673 -1.9760
   11MOL   H411 8031   0.622   5.531   6.076  1.3524  0.3657 -1.6890
   11MOL   H412 8032   0.552   5.398   6.034  0.4241  0.0562 -1.0293
   11MOL   H413 8033   0.783   5.456   5.929  0.3789  1.4407  0.6589
   11MOL   H414 8034   0.860   5.449   6.081 -0.2232  1.2062  0.1622
   11MOL   H415 8035   0.868   5.209   6.106 -2.6601  0.3733  1.3709
   11MOL   H416 8036   0.749   5.191   5.979 -1.5005  2.0168  1.1081
   11MOL   H417 8037   0.919   5.297   5.815  2.8646  2.7666  0.8832
   11MOL   H418 8038   0.948   5.138   5.870 -0.4603 -0.5792 -0.1223
   11MOL   H419 8039   1.081   5.319   6.058  0.4584  1.5738 -0.0434
   11MOL   C420 8040   1.181   5.297   5.893 -0.7438  0.2420 -0.9987
   11MOL   O421 8041   1.192   5.264   5.780 -0.2312  0.0934  0.2186
   11MOL   C422 8042   1.299   5.355   5.974  0.1389 -0.6075 -0.0439
   11MOL   C423 8043   1.348   5.491   5.916  0.4032  0.0033  0.5359
   11MOL   C424 8044   1.399   5.582   6.031 -0.5564  0.2277  0.3431
   11MOL   C425 8045   1.460   5.718   5.983  0.6319 -0.0656 -0.3551
   11MOL   C426 8046   1.595   5.697   5.918 -0.0046  0.2306 -0.5516
   11MOL   O427 8047   1.680   5.614   5.961 -0.3251 -0.2065 -0.1074
   11MOL   N428 8048   1.633   5.773   5.812  0.5127  0.4140 -0.1224
   11MOL   C429 8049   1.766   5.760   5.749  0.3594 -0.2313  0.2007
   11MOL   C430 8050   1.783   5.636   5.656  0.5318  0.8949 -0.8831
   11MOL   C431 8051   1.909   5.637   5.566  0.1421  0.3863 -0.2807
   11MOL   C432 8052   2.034   5.584   5.633  1.2072 -0.0883 -0.6998
   11MOL   C433 8053   2.150   5.547   5.536 -0.1880  0.1423 -0.0996
   11MOL   C434 8054   2.245   5.666   5.502 -0.0987  0.9602 -0.4198
   11MOL   N435 8055   2.334   5.645   5.385 -0.3894  0.1051  0.3774
   11MOL   H436 8056   1.270   5.370   6.078 -3.7506  0.0769 -1.1477
   11MOL   H437 8057   1.378   5.280   5.969 -0.5532 -1.2963 -0.8253
   11MOL   H438 8058   1.418   5.490   5.833  1.3410 -1.0363  1.3238
   11MOL   H439 8059   1.255   5.530   5.875  0.6171  0.7050  0.7212
   11MOL   H440 8060   1.483   5.532   6.079 -1.3669 -0.9102  0.6007
   11MOL   H441 8061   1.320   5.598   6.105 -0.6907 -2.5619  0.8617
   11MOL   H442 8062   1.471   5.772   6.078 -0.6712 -0.5537  0.0928
   11MOL   H443 8063   1.385   5.774   5.927 -0.1063  1.1614  1.7729
   11MOL   H444 8064   1.562   5.824   5.761  1.3629  2.1678  0.4389
   11MOL   H445 8065   1.781   5.855   5.697 -1.3111  1.2260  2.2678
   11MOL   H446 8066   1.841   5.753   5.828 -0.6882 -1.5978  1.0950
   11MOL   H447 8067   1.776   5.540   5.709 -1.3935  1.5290  0.0721
   11MOL   H448 8068   1.695   5.629   5.592  1.1461  0.9269 -1.7391
   11MOL   H449 8069   1.914   5.745   5.550  0.6471  0.1298 -1.9735
   11MOL   H450 8070   1.881   5.587   5.473  1.8133 -0.1319 -0.5164
   11MOL   H451 8071   2.060   5.641   5.722  0.3480  0.0269 -0.5192
   11MOL   H452 8072   2.012   5.483   5.670  1.7924 -0.4915 -1.4423
   11MOL   H453 8073   2.208   5.464   5.577 -1.4987 -0.6320  0.2330
   11MOL   H454 8074   2.098   5.507   5.449 -0.0178 -1.6156  0.5794
   11MOL   H455 8075   2.299   5.683   5.595 -1.1231 -0.0990  0.3881
   11MOL   H456 8076   2.180   5.753   5.492 -2.3930 -0.4623  1.7014
   11MOL   H457 8077   2.414   5.585   5.399 -0.3531  0.1199  0.2235
   11MOL   C458 8078   2.320   5.701   5.264  0.1120  0.0236 -0.1832
   11MOL   O459 8079   2.222   5.775   5.234  0.4874  0.4616 -0.1964
   11MOL   C460 8080   2.447   5.683   5.172  0.2851 -0.0962  0.3826
   11MOL   C461 8081   2.438   5.568   5.070  0.6709  0.3989  0.3858
   11MOL   C462 8082   2.447   5.428   5.135  1.0340 -0.8907 -0.1389
   11MOL   C463 8083   2.576   5.390   5.213  0.8656  0.1196  0.0859
   11MOL   C464 8084   2.557   5.374   5.365 -0.7895 -0.2823  0.1402
   11MOL   O465 8085   2.565   5.477   5.434 -0.3031  0.0744 -0.0305
   11MOL   N466 8086   2.554   5.252   5.411  0.3690 -0.2919 -0.2895
   11MOL   C467 8087   2.581   5.221   5.548 -0.0610  0.7052 -0.5976
   11MOL   C468 8088   2.731   5.208   5.571  0.2581  0.0711 -0.7883
   11MOL   C469 8089   2.760   5.157   5.703 -0.4480 -0.1475 -0.6426
   11MOL   C470 8090   2.907   5.120   5.723  0.0681  0.4469  0.2573
   11MOL   C471 8091   3.006   5.239   5.740 -0.2612  0.7881 -0.3961
   11MOL   C472 8092   3.147   5.181   5.768 -0.0114  1.0553  0.7095
   11MOL   N473 8093   3.182   5.081   5.663  0.7827  0.3635 -0.5940
   11MOL   H474 8094   2.468   5.773   5.113  3.4368 -0.9107  0.1670
   11MOL   H475 8095   2.530   5.666   5.241  2.0430  1.4356 -1.2740
   11MOL   H476 8096   2.343   5.585   5.019  0.2638  2.0256  1.6388
   11MOL   H477 8097   2.523   5.575   5.003 -0.6849  2.1187 -1.2288
   11MOL   H478 8098   2.443   5.358   5.052  0.2369  0.0358 -0.8887
   11MOL   H479 8099   2.357   5.408   5.192 -0.0067  0.4594 -1.2907
   11MOL   H480 8100   2.655   5.462   5.193 -1.2762  2.0774 -1.7935
   11MOL   H481 8101   2.606   5.294   5.172  0.7610  0.1224  0.0005
   11MOL   H482 8102   2.574   5.181   5.342 -0.7917  0.9946 -1.9842
   11MOL   H483 8103   2.541   5.300   5.612 -1.9113 -0.9856  0.4121
   11MOL   H484 8104   2.528   5.127   5.561 -1.0614  1.4396  0.8465
   11MOL   H485 8105   2.779   5.146   5.495  0.8227  0.5972 -0.8626
   11MOL   H486 8106   2.766   5.310   5.554  3.1649 -1.0659 -2.0821
   11MOL   H487 8107   2.698   5.068   5.715 -0.3479 -0.3446 -1.5358
   11MOL   H488 8108   2.739   5.236   5.775 -1.1703  0.9197 -2.0115
   11MOL   H489 8109   2.916   5.079   5.823 -0.3812  0.3774  0.2721
   11MOL   H490 8110   2.940   5.040   5.656 -1.9029 -1.7552  1.8336
   11MOL   H491 8111   3.014   5.296   5.648 -1.2385  0.9332 -0.4005
   11MOL   H492 8112   2.985   5.308   5.822  0.7725 -0.6437  1.1158
   11MOL   H493 8113   3.150   5.122   5.859 -0.4970 -1.2777 -0.7579
   11MOL   H494 8114   3.218   5.263   5.770  1.2237  0.0199 -0.3825
   11MOL   H495 8115   3.186   4.985   5.693  0.1204  0.5485  0.1229
   11MOL   C496 8116   3.218   5.109   5.542 -1.0417  0.1958 -0.1009
   11MOL   O497 8117   3.215   5.227   5.497  0.2939 -0.3823 -0.1102
   11MOL   C498 8118   3.253   4.981   5.461 -0.2920  0.0197  0.6729
   11MOL   C499 8119   3.367   5.007   5.363 -0.3374 -0.0750 -0.1472
   11MOL   C500 8120   3.510   4.975   5.425 -0.1554 -0.0130 -0.3351
   11MOL   C501 8121   3.631   5.002   5.339 -0.1703 -0.1268  0.1443
   11MOL   C502 8122   3.640   4.897   5.223 -0.2737  0.5560 -0.0560
   11MOL   O503 8123   3.670   4.779   5.243 -0.1386 -0.1779 -0.1607
   11MOL   N504 8124   3.610   4.953   5.104 -0.2547 -0.0572 -0.6964
   11MOL   C505 8125   3.630   4.907   4.971 -0.6035  0.1986  0.2138
   11MOL   C506 8126   3.507   4.828   4.928  0.1566 -0.0431  0.1844
   11MOL   C507 8127   3.526   4.774   4.783  0.2086  0.2810 -0.2222
   11MOL   C508 8128   3.390   4.751   4.712 -0.2768  0.6538  0.1337
   11MOL   C509 8129   3.429   4.725   4.560  0.1783 -0.4944  0.0166
   11MOL   C510 8130   3.315   4.685   4.463  0.0385  0.2322 -0.6883
   11MOL   N511 8131   3.242   4.567   4.514  0.1853  0.5395 -0.2965
   11MOL   H512 8132   3.272   4.899   5.530  0.9347 -3.0039 -3.0672
   11MOL   H513 8133   3.168   4.951   5.400  0.8921  1.9957 -2.0860
   11MOL   H514 8134   3.350   4.943   5.276 -0.2084  0.9602 -0.9417
   11MOL   H515 8135   3.355   5.111   5.332 -0.1405 -0.7994 -2.8290
   11MOL   H516 8136   3.505   4.880   5.479 -0.0848  0.7672  1.0616
   11MOL   H517 8137   3.517   5.038   5.513 -3.0791  0.3046 -0.2870
   11MOL   H518 8138   3.722   4.987   5.398 -0.7497 -3.1116  0.3449
   11MOL   H519 8139   3.626   5.104   5.300 -0.7569 -0.1860  0.0620
   11MOL   H520 8140   3.578   5.048   5.115 -1.5366 -0.6979  1.3471
   11MOL   H521 8141   3.672   4.984   4.907  0.3734  0.3389  1.0131
   11MOL   H522 8142   3.709   4.831   4.974  0.5777  1.2611 -2.3721
   11MOL   H523 8143   3.485   4.746   4.996  1.6412 -0.4036  0.2487
   11MOL   H524 8144   3.429   4.904   4.924  0.3325  0.2752  2.5425
   11MOL   H525 8145   3.590   4.686   4.782 -2.5309 -1.7821 -0.8025
   11MOL   H526 8146   3.569   4.852   4.719 -0.3736 -0.6081 -1.7392
   11MOL   H527 8147   3.352   4.659   4.757 -1.7633 -0.0063 -2.4044
   11MOL   H528 8148   3.331   4.843   4.722 -0.0969  0.8508 -0.6502
   11MOL   H529 8149   3.468   4.823   4.533 -1.5576 -0.6728 -3.2902
   11MOL   H530 8150   3.511   4.654   4.551  0.4030 -0.6491  2.8727
   11MOL   H531 8151   3.340   4.670   4.358  1.2761  1.0868 -0.5260
   11MOL   H532 8152   3.245   4.769   4.459  1.2494  1.2584 -0.8846
   11MOL   H533 8153   3.291   4.503   4.575 -0.6607 -0.0424 -0.2125
   11MOL   C534 8154   3.116   4.535   4.485 -0.4976  0.3511 -0.4747
   11MOL   O535 8155   3.056   4.585   4.394 -1.0066 -0.2247 -0.6778
   11MOL   C536 8156   3.057   4.422   4.580  0.7933  0.4891  0.9079
   11MOL   C537 8157   2.901   4.442   4.592  0.7461  0.0442  0.4357
   11MOL   C538 8158   2.824   4.412   4.458  0.0992  0.3320 -0.1079
   11MOL   C539 8159   2.665   4.408   4.496 -0.3870  0.4801  0.7874
   11MOL   C540 8160   2.588   4.356   4.368 -0.0294  0.0821 -0.5985
   11MOL   O541 8161   2.616   4.252   4.316  0.2928  0.1725  0.8555
   11MOL   N542 8162   2.491   4.429   4.327 -0.1724  0.5569 -0.2363
   11MOL   C543 8163   2.421   4.420   4.197 -0.2172  0.0224  0.0541
   11MOL   C544 8164   2.326   4.540   4.173 -0.1805  0.3838  0.1880
   11MOL   C545 8165   2.238   4.515   4.052  0.2080  0.0421  0.5317
   11MOL   C546 8166   2.171   4.646   4.003 -0.1593 -0.3550 -0.3341
   11MOL   C547 8167   2.078   4.628   3.878 -0.3259 -0.1643  0.1602
   11MOL   C548 8168   2.146   4.630   3.739 -0.1176  0.1803  0.5307
   11MOL   N549 8169   2.248   4.530   3.709  0.0493 -0.2745 -0.1715
   11MOL   H550 8170   3.075   4.321   4.543 -0.2431  0.0882  1.5083
   11MOL   H551 8171   3.097   4.417   4.681  1.2161  0.1150  0.7218
   11MOL   H552 8172   2.863   4.383   4.675  0.2903  2.0064  1.6589
   11MOL   H553 8173   2.880   4.544   4.622 -0.1316  0.6037 -1.9338
   11MOL   H554 8174   2.843   4.315   4.413  2.5187  0.2313  1.1004
   11MOL   H555 8175   2.838   4.487   4.380 -3.7900  0.6121 -0.6599
   11MOL   H556 8176   2.639   4.512   4.512  0.3238  0.7127  0.4475
   11MOL   H557 8177   2.645   4.344   4.582  0.6507  1.9020  2.1108
   11MOL   H558 8178   2.483   4.519   4.373 -0.7222  0.2508  0.2603
   11MOL   H559 8179   2.494   4.395   4.121 -0.3273  2.7465 -1.0145
   11MOL   H560 8180   2.348   4.339   4.208 -0.5280  0.3830  0.7202
   11MOL   H561 8181   2.282   4.549   4.272 -0.3004 -0.6120  0.2338
   11MOL   H562 8182   2.384   4.631   4.161  1.1376 -0.4069  0.5198
   11MOL   H563 8183   2.169   4.434   4.077  0.3109 -0.9705 -2.3031
   11MOL   H564 8184   2.309   4.477   3.978  1.0490 -2.1746  2.4254
   11MOL   H565 8185   2.112   4.691   4.083  0.8567 -1.1915  0.9074
   11MOL   H566 8186   2.253   4.712   3.973  0.1888 -0.5476  0.1827
   11MOL   H567 8187   1.998   4.553   3.884 -1.1231  0.6689  0.0720
   11MOL   H568 8188   2.017   4.718   3.877  0.0600  0.1065 -1.5236
   11MOL   H569 8189   2.200   4.725   3.739 -0.0009  0.1186 -0.8696
   11MOL   H570 8190   2.065   4.625   3.667  0.3015 -1.7436  0.1839
   11MOL   H571 8191   2.343   4.562   3.699  0.7997 -2.6132 -0.9041
   11MOL   C572 8192   2.224   4.403   3.685  0.4657  0.2719  0.2110
   11MOL   O573 8193   2.108   4.356   3.678  0.0647 -0.4770 -0.5116
   11MOL   C574 8194   2.343   4.311   3.651  0.4218 -0.2762 -0.1028
   11MOL   C575 8195   2.369   4.195   3.745  0.4969  0.5003  1.0521
   11MOL   C576 8196   2.368   4.229   3.892 -0.2549 -0.6116  0.1661
   11MOL   C577 8197   2.408   4.113   3.984 -0.9476  0.1774  0.1583
   11MOL   C578 8198   2.555   4.069   3.966 -0.6490 -0.0172 -0.4211
   11MOL   O579 8199   2.587   4.000   3.866  0.2967 -0.4135 -0.2565
   11MOL   N580 8200   2.647   4.108   4.058  0.5191 -0.4691 -0.2876
   11MOL   C581 8201   2.793   4.082   4.043 -0.6685  0.1167 -0.0111
   11MOL   C582 8202   2.858   4.178   4.138  0.0283  0.1736  0.2881
   11MOL   C583 8203   3.007   4.189   4.120 -0.6137  0.4472  0.1904
   11MOL   C584 8204   3.068   4.278   4.220 -0.6559 -0.0993  0.3788
   11MOL   C585 8205   3.218   4.273   4.230 -0.3820  0.2691 -0.1768
   11MOL   C586 8206   3.301   4.374   4.144  0.2386  0.2124  0.5169
   11MOL   N587 8207   3.437   4.377   4.189 -0.2693  0.4930  0.6524
   11MOL   H588 8208   2.324   4.265   3.554 -0.7527 -2.1306  0.9586
   11MOL   H589 8209   2.432   4.370   3.631  0.1385  0.5158  0.9188
   11MOL   H590 8210   2.287   4.126   3.724 -0.3993  1.2663  1.9914
   11MOL   H591 8211   2.459   4.142   3.713  0.7243  0.8176  1.1661
   11MOL   H592 8212   2.273   4.260   3.933  0.6955  2.5566  0.0572
   11MOL   H593 8213   2.431   4.317   3.898 -2.4458  1.0151 -0.1417
   11MOL   H594 8214   2.338   4.034   3.955 -0.6035 -0.2454  0.4717
   11MOL   H595 8215   2.385   4.139   4.087  0.5296 -0.4967  0.6742
   11MOL   H596 8216   2.627   4.164   4.140 -0.6623 -1.9964  0.5035
   11MOL   H597 8217   2.824   3.979   4.061  0.1919  0.0251 -1.9224
   11MOL   H598 8218   2.826   4.104   3.942  1.6546 -1.9009  0.2716
   11MOL   H599 8219   2.806   4.273   4.134 -1.0221 -0.0094  6.1735
   11MOL   H600 8220   2.832   4.151   4.240 -0.8906  0.4719  0.1359
   11MOL   H601 8221   3.024   4.216   4.016  1.2949 -2.5226 -0.3415
   11MOL   H602 8222   3.053   4.090   4.114 -2.8750 -0.5216 -2.2349
   11MOL   H603 8223   3.024   4.377   4.230  1.4940  0.8725  0.5165
   11MOL   H604 8224   3.041   4.245   4.320  0.5518 -1.6576  0.2035
   11MOL   H605 8225   3.248   4.284   4.335 -1.0643  2.0953 -0.1528
   11MOL   H606 8226   3.245   4.171   4.201 -0.1425 -0.0188  1.0101
   11MOL   H607 8227   3.270   4.479   4.145 -2.9011 -0.6147  3.1403
   11MOL   H608 8228   3.296   4.336   4.042  2.3916 -0.7844  0.7532
   11MOL   H609 8229   3.470   4.301   4.246  2.2695  0.8851 -0.2269
   11MOL   C610 8230   3.538   4.447   4.146 -0.0899  0.3304 -0.0903
   11MOL   O611 8231   3.535   4.522   4.048  0.0960  0.0236  0.2628
   11MOL   C612 8232   3.667   4.429   4.222 -0.3812 -0.0189  0.4334
   11MOL   C613 8233   3.787   4.406   4.126 -0.7450 -0.1708 -0.2389
   11MOL   C614 8234   3.794   4.266   4.057  0.9385 -0.1508 -0.1133
   11MOL   C615 8235   3.722   4.238   3.927  0.9600 -0.2681 -0.6399
   11MOL   C616 8236   3.604   4.144   3.951 -0.8386  0.6999 -0.2460
   11MOL   O617 8237   3.608   4.037   4.015  0.3349  0.0271  0.1142
   11MOL   N618 8238   3.496   4.190   3.897 -0.6188 -0.5804  0.0158
   11MOL   C619 8239   3.380   4.106   3.870  0.0991  0.0425  0.1442
   11MOL   C620 8240   3.274   4.188   3.792  0.0430 -0.2053  0.0441
   11MOL   C621 8241   3.147   4.100   3.774  0.8337 -0.0950 -0.3158
   11MOL   C622 8242   3.035   4.171   3.705  0.0484  0.2664  0.2675
   11MOL   C623 8243   2.917   4.071   3.676 -0.7280  0.0034  0.5202
   11MOL   C624 8244   2.782   4.119   3.616 -0.1327 -0.5257  0.1745
   11MOL   N625 8245   2.686   4.015   3.609  0.0326  0.7339 -0.1249
   11MOL   H626 8246   3.668   4.514   4.291  3.1136  1.8886 -1.8201
   11MOL   H627 8247   3.660   4.346   4.291 -1.2632 -1.7322 -1.6661
   11MOL   H628 8248   3.781   4.483   4.049 -1.7026  0.8859  0.8719
   11MOL   H629 8249   3.884   4.421   4.173 -0.9412 -1.0336  0.4544
   11MOL   H630 8250   3.766   4.186   4.126 -0.3114  1.0587  0.8251
   11MOL   H631 8251   3.901   4.254   4.039  1.0991  0.8101  0.1950
   11MOL   H632 8252   3.786   4.179   3.862 -0.1931 -0.8507 -1.2452
   11MOL   H633 8253   3.712   4.331   3.870  0.3353  1.9160  2.8402
   11MOL   H634 8254   3.495   4.284   3.859 -2.6899 -0.3993  0.4429
   11MOL   H635 8255   3.405   4.029   3.797 -0.9840 -0.4580  0.2973
   11MOL   H636 8256   3.335   4.061   3.958  2.1129  0.5553  1.4738
   11MOL   H637 8257   3.238   4.281   3.836 -0.6236 -0.5612  0.2635
   11MOL   H638 8258   3.314   4.221   3.696 -0.6470  0.9789  0.1501
   11MOL   H639 8259   3.112   4.060   3.869 -0.7210  1.7965 -0.0466
   11MOL   H640 8260   3.164   4.009   3.717  0.8912 -0.2995  0.0322
   11MOL   H641 8261   3.005   4.256   3.766 -0.5341 -0.3349  0.8222
   11MOL   H642 8262   3.079   4.208   3.612 -1.9413  1.5833 -0.2087
   11MOL   H643 8263   2.963   4.001   3.606  0.8437  1.7989 -0.3041
   11MOL   H644 8264   2.912   4.014   3.768  2.7021 -1.6001 -0.1959
   11MOL   H645 8265   2.784   4.175   3.522 -1.2175  1.9499  1.5599
   11MOL   H646 8266   2.739   4.181   3.694  2.0540  1.1473  0.1173
   11MOL   H647 8267   2.624   4.001   3.688 -0.1761 -0.1867 -0.4495
   11MOL   C648 8268   2.653   3.935   3.503 -0.4152 -0.0386 -0.3847
   11MOL   O649 8269   2.717   3.934   3.397 -0.4074  0.1817  0.0157
   11MOL   C650 8270   2.527   3.850   3.528 -0.0585 -0.1484  0.4087
   11MOL   C651 8271   2.527   3.718   3.448 -0.0492  0.2315  0.0181
   11MOL   C652 8272   2.657   3.627   3.457 -0.4869 -0.0318  0.1969
   11MOL   C653 8273   2.630   3.502   3.372 -0.4902  0.1655  0.0208
   11MOL   C654 8274   2.740   3.403   3.395  1.2517  0.1097  0.4422
   11MOL   O655 8275   2.813   3.405   3.491 -0.1271  0.2172 -0.3183
   11MOL   N656 8276   2.756   3.326   3.291 -0.4762 -0.5956 -0.0319
   11MOL   C657 8277   2.868   3.237   3.255  0.1227 -0.4440  0.3887
   11MOL   C658 8278   2.898   3.249   3.106 -0.6536  0.0796  0.6227
   11MOL   C659 8279   3.042   3.209   3.059  0.0225  0.0766 -0.6614
   11MOL   C660 8280   3.071   3.259   2.919 -0.0126  0.0396 -0.5337
   11MOL   C661 8281   2.982   3.164   2.825 -0.0051 -0.2935  0.8999
   11MOL   C662 8282   2.930   3.234   2.694  0.6159 -0.7269 -0.4005
   11MOL   N663 8283   2.840   3.135   2.634 -0.3153 -0.0503  1.2040
   11MOL   H664 8284   2.510   3.826   3.633 -0.5269 -1.5160  0.0313
   11MOL   H665 8285   2.439   3.908   3.502 -0.4392  0.3801  2.8534
   11MOL   H666 8286   2.441   3.659   3.479 -0.6268  0.5910 -0.8696
   11MOL   H667 8287   2.502   3.741   3.344 -0.5702 -0.8039 -0.0878
   11MOL   H668 8288   2.672   3.610   3.564  0.1099 -1.3657 -0.0857
   11MOL   H669 8289   2.748   3.683   3.436  1.3370 -2.9614  0.0965
   11MOL   H670 8290   2.615   3.525   3.266  0.2108 -0.9966 -0.3392
   11MOL   H671 8291   2.535   3.464   3.410  0.4361  0.2118  2.4358
   11MOL   H672 8292   2.688   3.334   3.217 -1.6576  0.2788  1.1106
   11MOL   H673 8293   2.953   3.266   3.317  0.2295 -0.9742  0.4965
   11MOL   H674 8294   2.846   3.133   3.279 -1.5960 -0.4469 -1.1642
   11MOL   H675 8295   2.823   3.197   3.047  0.2752  0.2335 -0.7041
   11MOL   H676 8296   2.885   3.356   3.090 -1.9211 -0.1923 -0.2343
   11MOL   H677 8297   3.064   3.102   3.057  1.0931  0.2589  0.5475
   11MOL   H678 8298   3.124   3.245   3.121  1.5177 -2.4494 -1.1313
   11MOL   H679 8299   3.038   3.358   2.887 -0.7322  0.6951  2.0986
   11MOL   H680 8300   3.178   3.246   2.901  0.4207  2.7785 -0.1028
   11MOL   H681 8301   3.045   3.083   2.787  0.2954  0.7452 -0.8249
   11MOL   H682 8302   2.897   3.109   2.866 -0.0357  0.4296  1.8087
   11MOL   H683 8303   3.006   3.261   2.621  0.1309  1.6113 -0.0939
   11MOL   H684 8304   2.874   3.325   2.720  1.3390 -1.1772  2.9357
   11MOL   H685 8305   2.873   3.040   2.636  0.6103  0.2409  0.0596
   11MOL   C686 8306   2.721   3.155   2.578  0.3314  0.6570  0.6478
   11MOL   O687 8307   2.671   3.267   2.565 -0.4776 -0.3282  0.5263
   11MOL   C688 8308   2.661   3.033   2.515  0.3521  0.5673  0.2892
   11MOL   C689 8309   2.507   3.037   2.507  0.2617  0.9754 -0.3956
   11MOL   C690 8310   2.460   3.100   2.379  0.5418  0.1091  0.3900
   11MOL   C691 8311   2.313   3.092   2.348  0.1469 -1.0892 -0.2583
   11MOL   C692 8312   2.258   2.950   2.325  0.1171 -0.6135  0.3967
   11MOL   O693 8313   2.328   2.861   2.289  0.3055 -0.2113 -0.1764
   11MOL   N694 8314   2.128   2.928   2.335  0.0983  0.4395 -0.2441
   11MOL   C695 8315   2.076   2.794   2.325 -1.0355  0.0457  0.4602
   11MOL   C696 8316   1.934   2.784   2.371 -0.4189 -0.6853 -0.1445
   11MOL   C697 8317   1.881   2.643   2.367 -0.1236 -0.8505 -0.2543
   11MOL   C698 8318   1.741   2.632   2.426 -0.0717  0.8254 -0.0043
   11MOL   C699 8319   1.706   2.482   2.470  0.2922 -0.5285  0.5397
   11MOL   C700 8320   1.557   2.465   2.515 -1.0012 -0.2465 -0.3991
   11MOL   N701 8321   1.542   2.333   2.567 -0.2307 -0.3855  0.3446
   11MOL   H702 8322   2.707   3.014   2.418 -0.8558  0.0180 -0.1877
   11MOL   H703 8323   2.677   2.941   2.572 -0.5101 -0.4803 -1.1145
   11MOL   H704 8324   2.472   2.933   2.513 -0.5444  1.2807  0.3033
   11MOL   H705 8325   2.475   3.095   2.593  0.2874  0.2864  0.0846
   11MOL   H706 8326   2.509   3.059   2.291  0.1673 -1.9027  1.1037
   11MOL   H707 8327   2.486   3.206   2.388  0.1219  0.4008 -1.4990
   11MOL   H708 8328   2.290   3.161   2.266  0.5106  0.4646  0.9349
   11MOL   H709 8329   2.266   3.140   2.433 -0.4747 -1.3339 -0.4595
   11MOL   H710 8330   2.077   3.004   2.376  1.8391  2.2439 -1.3488
   11MOL   H711 8331   2.085   2.773   2.218  0.0752 -0.1856  0.5888
   11MOL   H712 8332   2.130   2.714   2.376  0.0049  1.6548  1.9625
   11MOL   H713 8333   1.925   2.832   2.469 -0.4755 -2.1865  0.5893
   11MOL   H714 8334   1.870   2.844   2.306 -1.1184 -2.2348 -0.8934
   11MOL   H715 8335   1.939   2.570   2.424 -2.2167 -0.8966  1.9046
   11MOL   H716 8336   1.879   2.607   2.264  1.3926 -1.3265 -0.1304
   11MOL   H717 8337   1.725   2.694   2.514  0.8584  1.0664  0.0039
   11MOL   H718 8338   1.674   2.667   2.347  0.7927 -0.2612 -1.2376
   11MOL   H719 8339   1.729   2.416   2.386  0.6736 -1.2224  1.1928
   11MOL   H720 8340   1.776   2.455   2.548  2.7236  0.5418 -1.1997
   11MOL   H721 8341   1.484   2.474   2.434 -1.0725 -1.5047 -0.4757
   11MOL   H722 8342   1.539   2.542   2.590  1.5661  1.3677 -1.3556
   11MOL   H723 8343   1.606   2.309   2.642  2.0557  1.8597 -0.8092
   11MOL   C724 8344   1.445   2.239   2.556 -0.1214 -0.2918 -0.2921
   11MOL   O725 8345   1.348   2.269   2.477 -0.7246  0.5427 -0.2161
   11MOL   C726 8346   1.460   2.105   2.625  0.4650  0.1203 -0.4153
   11MOL   C727 8347   1.396   1.982   2.559  0.4253 -0.6389 -0.4788
   11MOL   C728 8348   1.455   1.854   2.619 -0.0924  0.5212 -0.5544
   11MOL   C729 8349   1.392   1.739   2.535  0.6124 -0.2773 -0.2468
   11MOL   C730 8350   1.443   1.593   2.576  0.8789 -0.1265 -0.0673
   11MOL   O731 8351   1.489   1.525   2.485  0.3325 -0.0158 -0.2572
   11MOL   N732 8352   1.415   1.546   2.699  0.6552  0.1231 -0.7541
   11MOL   C733 8353   1.441   1.409   2.742  0.1538  0.1779 -0.6166
   11MOL   C734 8354   1.326   1.327   2.760  0.2624  0.5835  0.2645
   11MOL   C735 8355   1.367   1.184   2.809  0.4552 -0.5164 -0.7602
   11MOL   C736 8356   1.236   1.102   2.835  0.2495  0.7414 -0.1465
   11MOL   C737 8357   1.245   0.946   2.841 -0.0219 -0.4600  0.5978
   11MOL   C738 8358   1.114   0.875   2.840 -0.0857  0.2089  0.2007
   11MOL   N739 8359   1.112   0.746   2.896  0.8756  0.0682 -0.0389
   11MOL   H740 8360   1.568   2.087   2.633  0.3660 -1.1478 -1.7887
   11MOL   H741 8361   1.426   2.105   2.728 -1.6369  2.0721 -1.0848
   11MOL   H742 8362   1.292   1.989   2.590  0.5992  0.7552 -0.1703
   11MOL   H743 8363   1.408   1.992   2.451 -0.2132  0.4436 -0.4570
   11MOL   H744 8364   1.456   1.855   2.728 -0.1319  1.5255 -0.5673
   11MOL   H745 8365   1.560   1.847   2.589 -0.5764 -0.8163 -2.0227
   11MOL   H746 8366   1.402   1.755   2.428 -0.4941  3.5065  0.1426
   11MOL   H747 8367   1.286   1.738   2.561  0.7238 -0.1126  0.2265
   11MOL   H748 8368   1.373   1.605   2.769 -0.2670 -0.3625 -0.8993
   11MOL   H749 8369   1.524   1.368   2.684  0.0129  0.0449 -0.7222
   11MOL   H750 8370   1.480   1.408   2.844 -0.4178  0.6906 -0.3924
   11MOL   H751 8371   1.252   1.362   2.832  0.9973  0.3279  1.1549
   11MOL   H752 8372   1.270   1.322   2.666  1.8165 -0.2237 -0.6423
   11MOL   H753 8373   1.417   1.188   2.906  0.4110 -1.7951 -0.6856
   11MOL   H754 8374   1.438   1.135   2.742  0.9546 -0.3804 -0.3351
   11MOL   H755 8375   1.167   1.142   2.910  0.3340  0.3207  0.1541
   11MOL   H756 8376   1.179   1.127   2.745  0.6452  3.3313  0.2812
   11MOL   H757 8377   1.300   0.905   2.756  0.7069 -1.1946  1.4119
   11MOL   H758 8378   1.298   0.905   2.927 -3.4877 -3.3676  1.4852
   11MOL   H759 8379   1.067   0.867   2.742 -0.6179 -0.1614  0.4798
   11MOL   H760 8380   1.041   0.934   2.897  0.7943  0.2963  1.2553
   11MOL   H761 8381   1.025   0.703   2.868  1.9008 -1.8073 -0.4286
   11MOL   H762 8382   1.186   0.700   2.845 -0.0734 -0.2500 -1.1721
   12MOL     C1 8383   7.039   6.810   4.429  0.7145 -0.1428 -0.0732
   12MOL     O2 8384   7.070   6.888   4.336 -0.1167  0.2124 -0.1067
   12MOL     C3 8385   6.977   6.672   4.408  0.8134 -0.5531 -0.5075
   12MOL     C4 8386   6.959   6.646   4.254 -0.1174  0.1202 -0.4348
   12MOL     C5 8387   6.874   6.516   4.227  0.0855  0.4320 -0.3908
   12MOL     C6 8388   6.730   6.528   4.269  0.2230 -0.0259  0.8938
   12MOL     C7 8389   6.644   6.413   4.211 -0.1443 -0.5160  0.4165
   12MOL     O8 8390   6.629   6.404   4.091  0.2225 -0.2154 -0.2648
   12MOL     N9 8391   6.586   6.336   4.300 -0.4086  0.5056 -0.5660
   12MOL    C10 8392   6.506   6.223   4.267  0.7143  0.8293 -0.8113
   12MOL    C11 8393   6.370   6.220   4.349 -0.2328  0.2606  0.4241
   12MOL    C12 8394   6.402   6.186   4.493 -0.3239 -0.1303  0.0890
   12MOL    C13 8395   6.277   6.212   4.576 -0.1452  0.3361 -0.2788
   12MOL    C14 8396   6.291   6.248   4.721 -0.1053  0.1177 -0.3912
   12MOL    C15 8397   6.167   6.225   4.814 -0.2248  0.5711 -0.2644
   12MOL    N16 8398   6.175   6.277   4.947 -0.2760 -0.2517 -0.4767
   12MOL    H17 8399   7.041   6.599   4.458 -1.5481 -1.9626  0.5441
   12MOL    H18 8400   6.885   6.666   4.466  0.0439  0.3021 -1.6210
   12MOL    H19 8401   6.911   6.728   4.201  0.4294  0.8721  0.2132
   12MOL    H20 8402   7.060   6.635   4.216 -0.2567 -0.3742 -0.6695
   12MOL    H21 8403   6.918   6.424   4.264  1.3319  0.3430 -2.0382
   12MOL    H22 8404   6.878   6.492   4.121 -2.0737 -1.7846 -0.0041
   12MOL    H23 8405   6.694   6.615   4.214  1.5848  0.4672  0.7630
   12MOL    H24 8406   6.721   6.552   4.375 -2.3595  0.6102  0.5475
   12MOL    H25 8407   6.596   6.370   4.394  2.3142 -3.4727  0.7409
   12MOL    H26 8408   6.486   6.216   4.160  0.2358 -1.5040 -0.6066
   12MOL    H27 8409   6.571   6.139   4.295 -0.5331  0.4851  1.1442
   12MOL    H28 8410   6.309   6.310   4.344 -1.3864 -0.6082 -1.6607
   12MOL    H29 8411   6.309   6.137   4.315  0.4756 -0.2885  0.4716
   12MOL    H30 8412   6.477   6.258   4.527  1.0155 -0.3280 -2.3501
   12MOL    H31 8413   6.448   6.088   4.505  4.9008  2.2447  1.3325
   12MOL    H32 8414   6.225   6.296   4.529  1.2735  1.5073  0.2212
   12MOL    H33 8415   6.209   6.127   4.565  1.2572 -0.5221 -2.5350
   12MOL    H34 8416   6.373   6.186   4.758  0.1240  0.0691 -0.9738
   12MOL    H35 8417   6.336   6.345   4.745 -1.1566  0.5392 -0.1204
   12MOL    H36 8418   6.133   6.122   4.825  1.0503  0.2509  0.8081
   12MOL    H37 8419   6.083   6.280   4.773  0.7281  1.4051 -1.1429
   12MOL    H38 8420   6.104   6.345   4.970  1.6633  1.7650 -0.2772
   12MOL    H39 8421   7.067   6.826   4.533  2.1009 -0.9365 -0.3182
   12MOL    C40 8422   6.271   6.257   5.033 -0.1648 -0.3255  0.2968
   12MOL    O41 8423   6.344   6.162   5.025 -0.3705  0.0959 -0.8262
   12MOL    C42 8424   6.283   6.347   5.149  0.3242 -0.1038 -0.1683
   12MOL    C43 8425   6.303   6.269   5.285  0.0023 -0.3892 -0.3521
   12MOL    C44 8426   6.186   6.192   5.340  0.0606 -0.0223 -0.6331
   12MOL    C45 8427   6.098   6.261   5.452 -0.0007  0.3160 -0.4880
   12MOL    C46 8428   6.040   6.154   5.542  0.2064  0.8696 -0.0307
   12MOL    O47 8429   5.952   6.088   5.493 -0.0196 -0.3400 -0.5917
   12MOL    N48 8430   6.082   6.132   5.667  0.3807 -0.1464 -0.0041
   12MOL    C49 8431   6.055   6.032   5.771  0.0014 -0.9138 -0.0001
   12MOL    C50 8432   5.916   6.054   5.830 -0.4549 -0.4015 -0.4794
   12MOL    C51 8433   5.883   5.961   5.949  0.2517 -0.4476  0.1216
   12MOL    C52 8434   5.732   5.976   5.985 -0.3402  0.5412 -0.8963
   12MOL    C53 8435   5.690   5.859   6.076  0.1651  0.2529 -0.6750
   12MOL    C54 8436   5.658   5.740   5.977 -0.0698 -0.0458 -0.2109
   12MOL    N55 8437   5.583   5.634   6.045  0.6244  0.0600 -0.6247
   12MOL    H56 8438   6.360   6.423   5.137 -1.3698  1.9342  1.3944
   12MOL    H57 8439   6.192   6.407   5.152  2.1258  2.7055 -0.0088
   12MOL    H58 8440   6.374   6.187   5.274 -0.2760 -0.6869  0.0803
   12MOL    H59 8441   6.352   6.334   5.357  1.9120 -1.9038 -0.2697
   12MOL    H60 8442   6.220   6.092   5.369  2.4708  0.7075 -0.7823
   12MOL    H61 8443   6.129   6.173   5.249 -1.0985  0.3641  0.0027
   12MOL    H62 8444   6.018   6.317   5.404 -1.6692  1.3051  3.2652
   12MOL    H63 8445   6.157   6.335   5.506 -0.0644 -1.9707  2.7958
   12MOL    H64 8446   6.144   6.207   5.694 -1.5823  1.1728  0.8622
   12MOL    H65 8447   6.057   5.928   5.737 -0.1385 -0.3558 -1.7446
   12MOL    H66 8448   6.134   6.027   5.845  0.0353  1.0903  0.1130
   12MOL    H67 8449   5.908   6.155   5.870  1.0886  0.8131 -3.0250
   12MOL    H68 8450   5.845   6.041   5.749 -1.2825 -1.4111  0.3998
   12MOL    H69 8451   5.950   5.975   6.034 -1.6903  1.4743  1.3768
   12MOL    H70 8452   5.900   5.862   5.906  0.2788  0.1781 -1.3408
   12MOL    H71 8453   5.697   6.068   6.032  0.3972  0.5739 -0.3936
   12MOL    H72 8454   5.686   5.979   5.886  0.7374  1.0502 -1.3923
   12MOL    H73 8455   5.765   5.828   6.148 -1.2929  1.1631  1.2779
   12MOL    H74 8456   5.601   5.894   6.128  0.0649  0.4865 -0.9982
   12MOL    H75 8457   5.746   5.702   5.925 -0.5690 -1.3883 -0.0827
   12MOL    H76 8458   5.597   5.775   5.893 -0.2610 -1.0343 -0.4909
   12MOL    H77 8459   5.634   5.547   6.060  2.0031  1.4229  3.1263
   12MOL    C78 8460   5.453   5.639   6.077 -0.2712 -0.3103 -0.2260
   12MOL    O79 8461   5.371   5.721   6.031 -0.3875  0.1240  0.2410
   12MOL    C80 8462   5.399   5.528   6.177  0.0974 -0.0148 -0.7849
   12MOL    C81 8463   5.396   5.586   6.318  0.1335 -0.2604 -0.1046
   12MOL    C82 8464   5.458   5.497   6.427 -0.1342  0.0200 -0.2014
   12MOL    C83 8465   5.456   5.556   6.564  0.0037  0.0770  0.5170
   12MOL    C84 8466   5.524   5.479   6.674  0.1391 -0.1977 -0.1718
   12MOL    O85 8467   5.527   5.355   6.668  0.0157 -0.1675  0.1492
   12MOL    N86 8468   5.575   5.548   6.777  0.2156 -0.1717  0.1548
   12MOL    C87 8469   5.649   5.506   6.896 -0.0311  0.5788 -0.4419
   12MOL    C88 8470   5.627   5.600   7.011 -0.1868 -0.7406 -0.1821
   12MOL    C89 8471   5.691   5.739   6.984  0.2951 -0.8663  0.3667
   12MOL    C90 8472   5.847   5.742   6.998 -0.0454 -0.1705 -0.5732
   12MOL    C91 8473   5.886   5.720   7.147 -0.4273 -0.4925  0.8706
   12MOL    C92 8474   6.045   5.728   7.151  0.3421 -0.5309  0.7706
   12MOL    N93 8475   6.092   5.603   7.100 -0.0296 -0.1723 -0.1732
   12MOL    H94 8476   5.304   5.484   6.148 -0.0988  0.2828 -0.5935
   12MOL    H95 8477   5.468   5.444   6.166 -1.0568 -0.8736 -1.5088
   12MOL    H96 8478   5.435   5.688   6.330 -1.2052  0.3480 -0.8102
   12MOL    H97 8479   5.292   5.594   6.347 -0.0114 -0.8943 -0.4674
   12MOL    H98 8480   5.562   5.476   6.399 -0.1277 -0.7734  0.3975
   12MOL    H99 8481   5.416   5.397   6.433  1.8085 -0.7175  1.8022
   12MOL   H100 8482   5.349   5.570   6.580 -0.1692  0.7357 -1.0665
   12MOL   H101 8483   5.514   5.649   6.563 -0.0137  0.0872  0.4798
   12MOL   H102 8484   5.570   5.648   6.771  0.8641 -0.2159 -1.3127
   12MOL   H103 8485   5.618   5.404   6.921 -2.0158  0.9497 -1.2897
   12MOL   H104 8486   5.753   5.504   6.862  0.2398 -1.4687  0.4291
   12MOL   H105 8487   5.520   5.605   7.034 -0.3138  0.2965 -0.9614
   12MOL   H106 8488   5.660   5.545   7.099  0.0332 -2.7055 -1.4534
   12MOL   H107 8489   5.657   5.795   7.071 -1.6147 -0.6436 -0.5036
   12MOL   H108 8490   5.647   5.797   6.903 -0.0124 -0.2248  0.9908
   12MOL   H109 8491   5.894   5.665   6.938 -0.7868 -1.1796  0.1009
   12MOL   H110 8492   5.879   5.837   6.956 -0.6186 -0.2102 -1.0977
   12MOL   H111 8493   5.851   5.800   7.212 -3.6635  0.6763 -2.1744
   12MOL   H112 8494   5.848   5.625   7.186  0.8099 -1.4364 -0.1673
   12MOL   H113 8495   6.084   5.738   7.253 -0.2247  0.6549  0.8870
   12MOL   H114 8496   6.086   5.806   7.088 -1.2848  0.8878  1.4011
   12MOL   H115 8497   6.041   5.533   7.047  0.1130 -1.0237  0.8059
   12MOL   C116 8498   6.212   5.562   7.130 -0.2184  0.2028  0.7505
   12MOL   O117 8499   6.294   5.625   7.196  0.5099 -0.0739 -0.3551
   12MOL   C118 8500   6.250   5.420   7.088 -0.0737 -0.3021  0.3964
   12MOL   C119 8501   6.358   5.422   6.982  0.2894  0.2058 -0.5655
   12MOL   C120 8502   6.504   5.408   7.040  0.4052  0.7367  0.0691
   12MOL   C121 8503   6.601   5.372   6.923 -0.6657 -0.5089 -0.1015
   12MOL   C122 8504   6.735   5.414   6.973  0.6146 -0.1694 -0.0754
   12MOL   O123 8505   6.760   5.528   6.996 -0.4472 -0.0798 -0.1379
   12MOL   N124 8506   6.822   5.317   6.983 -0.8676 -0.0809 -0.4783
   12MOL   C125 8507   6.968   5.337   7.020 -0.2310  0.4289 -0.0392
   12MOL   C126 8508   7.037   5.201   7.022  0.0171  0.4960 -0.1817
   12MOL   C127 8509   7.166   5.179   7.103 -0.2463  0.3641 -0.4749
   12MOL   C128 8510   7.298   5.232   7.031  0.5342  0.2589 -0.0579
   12MOL   C129 8511   7.425   5.231   7.123 -0.1532  0.3391 -0.4262
   12MOL   C130 8512   7.556   5.284   7.082 -0.3592 -0.0289 -0.3128
   12MOL   N131 8513   7.647   5.299   7.195  0.0884 -0.3368  0.3358
   12MOL   H132 8514   6.275   5.351   7.169 -0.4325 -0.3913  0.4278
   12MOL   H133 8515   6.164   5.374   7.040  0.0793 -0.5433  0.3502
   12MOL   H134 8516   6.339   5.347   6.906 -1.2357  0.3701 -0.3765
   12MOL   H135 8517   6.339   5.516   6.931 -3.7143 -0.2735 -0.1203
   12MOL   H136 8518   6.501   5.327   7.113  0.6295 -0.2607 -1.0139
   12MOL   H137 8519   6.531   5.495   7.099  2.8219  0.5731 -0.7119
   12MOL   H138 8520   6.562   5.438   6.845 -0.6477 -0.2730  0.0879
   12MOL   H139 8521   6.594   5.267   6.894 -0.4231 -0.3864 -0.6117
   12MOL   H140 8522   6.789   5.229   6.947 -1.2987  0.1816 -0.7274
   12MOL   H141 8523   7.017   5.417   6.965  0.3000  0.7841  0.9516
   12MOL   H142 8524   6.982   5.381   7.119  0.8592  2.3623 -1.0309
   12MOL   H143 8525   6.963   5.125   7.046  0.9391  0.1120  1.5135
   12MOL   H144 8526   7.066   5.186   6.918  0.1980 -2.0426  0.2010
   12MOL   H145 8527   7.175   5.075   7.133  1.1928  0.8618  0.9404
   12MOL   H146 8528   7.159   5.232   7.198 -2.6939  0.4390 -0.6568
   12MOL   H147 8529   7.306   5.173   6.939 -1.3448 -0.6675  0.3540
   12MOL   H148 8530   7.291   5.338   7.009 -0.2005  0.9112  3.0777
   12MOL   H149 8531   7.387   5.256   7.222  0.8675 -2.1255  0.6360
   12MOL   H150 8532   7.430   5.123   7.141  0.4702  0.6352  1.2731
   12MOL   H151 8533   7.548   5.375   7.024 -4.6941  0.1300  0.3402
   12MOL   H152 8534   7.593   5.225   6.998  1.3178 -0.1701  0.5014
   12MOL   H153 8535   7.616   5.320   7.289 -0.7752  0.9978 -0.2182
   12MOL   C154 8536   0.069   5.298   7.173 -0.8817  0.2377  0.2316
   12MOL   O155 8537   0.126   5.297   7.065 -0.6660 -0.2463  0.4688
   12MOL   C156 8538   0.154   5.314   7.301  0.1290 -0.0779 -0.6291
   12MOL   C157 8539   0.230   5.189   7.341 -0.0921 -0.1251  0.1646
   12MOL   C158 8540   0.145   5.059   7.324 -0.2137  0.0048 -0.6679
   12MOL   C159 8541   0.222   4.930   7.385 -1.1233 -0.1583  0.6415
   12MOL   C160 8542   0.149   4.797   7.360 -0.4621  0.8174  0.3035
   12MOL   O161 8543   0.057   4.756   7.437  0.7165  0.0251  0.2862
   12MOL   N162 8544   0.183   4.719   7.255 -0.3715 -0.2882 -0.0567
   12MOL   C163 8545   0.112   4.598   7.211  1.1190  0.5194  0.1525
   12MOL   C164 8546   0.153   4.565   7.067 -0.2122 -0.2535  0.5363
   12MOL   C165 8547   0.056   4.454   7.016 -0.2905  0.6947  0.5622
   12MOL   C166 8548   0.084   4.413   6.869 -0.3103 -0.2837  0.6116
   12MOL   C167 8549   0.207   4.328   6.841 -0.6517  0.3000  0.2227
   12MOL   C168 8550   0.298   4.385   6.738  0.4993 -0.0091 -0.2236
   12MOL   N169 8551   0.368   4.287   6.665 -0.5369 -0.0084  0.1898
   12MOL   H170 8552   0.210   5.404   7.276  0.3322 -0.4238 -1.4449
   12MOL   H171 8553   0.092   5.344   7.386 -0.9151  0.8015 -1.6898
   12MOL   H172 8554   0.328   5.190   7.294 -0.0015  0.6380  0.3536
   12MOL   H173 8555   0.253   5.201   7.447 -0.6985 -0.7890  0.3768
   12MOL   H174 8556   0.130   5.047   7.217 -1.6725  0.5465 -0.5443
   12MOL   H175 8557   0.049   5.076   7.374 -1.3016  0.1266 -2.7751
   12MOL   H176 8558   0.232   4.954   7.491  0.1839  2.3747 -0.0153
   12MOL   H177 8559   0.321   4.925   7.340 -1.2817 -1.1301  0.3981
   12MOL   H178 8560   0.255   4.746   7.190 -1.2085  0.0438 -0.8530
   12MOL   H179 8561   0.142   4.516   7.276  0.7259  1.6911  1.8585
   12MOL   H180 8562   0.006   4.609   7.231  0.9374 -0.2669 -0.3767
   12MOL   H181 8563   0.163   4.654   7.005  1.3022 -0.8267 -0.0736
   12MOL   H182 8564   0.257   4.535   7.082 -0.5412 -0.6511  2.0682
   12MOL   H183 8565   7.661   4.491   7.015 -2.3373 -4.5541 -1.4092
   12MOL   H184 8566   0.056   4.363   7.076 -2.2922 -0.1112 -0.5952
   12MOL   H185 8567   7.700   4.363   6.837 -0.5791  0.3435  0.3872
   12MOL   H186 8568   0.084   4.504   6.809  0.4925 -1.3651 -1.0522
   12MOL   H187 8569   0.253   4.326   6.939  0.8532  1.1318 -0.4421
   12MOL   H188 8570   0.178   4.227   6.810 -2.2423  0.9200 -0.4030
   12MOL   H189 8571   0.372   4.453   6.780 -0.8182  0.9306  0.6054
   12MOL   H190 8572   0.239   4.443   6.667 -0.9974  0.7781  1.6262
   12MOL   H191 8573   0.404   4.209   6.718  0.5811  0.5496  0.2749
   12MOL   C192 8574   0.397   4.284   6.533 -0.3351  0.5002  0.8439
   12MOL   O193 8575   0.348   4.374   6.455  0.1691 -0.0488 -0.0463
   12MOL   C194 8576   0.483   4.176   6.471  0.1583  0.1088  0.0401
   12MOL   C195 8577   0.416   4.095   6.358 -0.0948 -0.2264 -0.0555
   12MOL   C196 8578   0.505   3.981   6.310  0.3232  0.5977  0.2000
   12MOL   C197 8579   0.457   3.911   6.180  0.3704 -0.5962 -0.2286
   12MOL   C198 8580   0.441   4.011   6.071  0.2787  0.6745  0.6988
   12MOL   O199 8581   0.326   4.039   6.039  0.5323  0.1808  0.2490
   12MOL   N200 8582   0.547   4.052   6.011 -0.2538  0.6998 -0.1366
   12MOL   C201 8583   0.543   4.129   5.886 -0.7094 -0.4943  0.6571
   12MOL   C202 8584   0.541   4.052   5.751 -0.4017  0.0289  0.3112
   12MOL   C203 8585   0.587   3.900   5.755  0.4575 -0.1710  0.4174
   12MOL   C204 8586   0.633   3.839   5.620  0.0134 -0.5276  0.8410
   12MOL   C205 8587   0.758   3.894   5.558 -0.2555  0.3971 -0.2186
   12MOL   C206 8588   0.884   3.875   5.643 -0.5789  0.3063  0.2560
   12MOL   N207 8589   0.998   3.944   5.578 -0.0946  0.3209 -0.3173
   12MOL   H208 8590   0.572   4.223   6.430  0.2698  1.3075  1.5916
   12MOL   H209 8591   0.511   4.104   6.548  0.5788 -1.4656 -1.5446
   12MOL   H210 8592   0.322   4.054   6.395 -0.5139  1.7678  1.2161
   12MOL   H211 8593   0.381   4.168   6.285 -3.7769  0.4322  2.2019
   12MOL   H212 8594   0.509   3.898   6.380  1.0472  1.7659  1.5615
   12MOL   H213 8595   0.608   4.011   6.295  0.9780 -1.7748 -0.3609
   12MOL   H214 8596   0.365   3.857   6.202 -0.3526  1.0603  0.8927
   12MOL   H215 8597   0.529   3.831   6.162  2.3072  0.9196  0.6012
   12MOL   H216 8598   0.634   4.036   6.060  0.0813 -0.7347 -1.1492
   12MOL   H217 8599   0.464   4.204   5.892 -0.7777 -0.6317  1.5113
   12MOL   H218 8600   0.637   4.184   5.885  0.0530 -1.5576 -5.7346
   12MOL   H219 8601   0.440   4.057   5.709  0.0457 -0.7081 -0.8723
   12MOL   H220 8602   0.616   4.097   5.686 -0.3011  0.1035  0.4805
   12MOL   H221 8603   0.508   3.844   5.804 -0.2243 -0.1783 -0.6763
   12MOL   H222 8604   0.670   3.897   5.826  0.9086 -0.9131 -0.1251
   12MOL   H223 8605   0.658   3.736   5.642  0.8351  0.0478  2.7526
   12MOL   H224 8606   0.552   3.841   5.547  1.5694 -0.9499 -0.8991
   12MOL   H225 8607   0.774   3.850   5.459  1.4629 -0.9952  0.6464
   12MOL   H226 8608   0.740   3.998   5.533 -1.2342  0.4578  0.6906
   12MOL   H227 8609   0.910   3.769   5.648 -1.1634  0.0347 -1.7273
   12MOL   H228 8610   0.867   3.914   5.743  0.0043  1.3466 -0.0492
   12MOL   H229 8611   0.973   4.001   5.499  0.8237 -0.4790 -1.2055
   12MOL   C230 8612   1.118   3.959   5.634 -0.1693 -0.6519  0.1582
   12MOL   O231 8613   1.148   3.905   5.737  0.2120  0.2941 -0.1910
   12MOL   C232 8614   1.211   4.060   5.570  0.6056  0.3696  0.0686
   12MOL   C233 8615   1.290   4.151   5.676 -0.5623  0.8008  0.1491
   12MOL   C234 8616   1.212   4.264   5.753  0.1868  0.1510  0.3559
   12MOL   C235 8617   1.292   4.374   5.827  0.5343 -0.2708  0.0743
   12MOL   C236 8618   1.360   4.471   5.732 -0.4197 -0.5262  0.3638
   12MOL   O237 8619   1.333   4.478   5.609  0.3365  0.0294 -0.5290
   12MOL   N238 8620   1.461   4.535   5.783  0.1806  0.1137 -0.0926
   12MOL   C239 8621   1.548   4.627   5.707 -0.6254  0.1777  0.2406
   12MOL   C240 8622   1.678   4.561   5.637  0.5117 -0.4484  0.2208
   12MOL   C241 8623   1.783   4.659   5.575  0.0700  0.2401  0.1212
   12MOL   C242 8624   1.729   4.713   5.438 -0.5559 -0.1913 -0.1306
   12MOL   C243 8625   1.773   4.858   5.417  0.3720 -0.0302 -0.7286
   12MOL   C244 8626   1.725   4.923   5.288 -0.4558  0.5041  0.5098
   12MOL   N245 8627   1.583   4.935   5.273 -0.3421 -0.4354  0.1821
   12MOL   H246 8628   1.272   4.008   5.496 -2.9819 -2.5117 -1.0296
   12MOL   H247 8629   1.146   4.128   5.515 -0.8415 -0.7613  0.3312
   12MOL   H248 8630   1.345   4.091   5.749  0.3861  2.6628  1.0043
   12MOL   H249 8631   1.372   4.202   5.626 -0.4360  0.6448  0.1946
   12MOL   H250 8632   1.139   4.215   5.817  0.5270  0.4266  0.9556
   12MOL   H251 8633   1.154   4.330   5.688  2.1552  0.8475 -0.7391
   12MOL   H252 8634   1.364   4.330   5.896  1.4845  1.1741  0.0171
   12MOL   H253 8635   1.229   4.430   5.896 -0.6180 -0.8126 -0.5230
   12MOL   H254 8636   1.497   4.520   5.876  2.9443  1.5008 -0.8513
   12MOL   H255 8637   1.493   4.683   5.631  1.5978  2.4333  0.2491
   12MOL   H256 8638   1.560   4.713   5.772 -0.4817  0.0966  0.3198
   12MOL   H257 8639   1.730   4.494   5.705 -0.2080 -0.7718  0.4543
   12MOL   H258 8640   1.645   4.492   5.559 -3.7715  1.5031  0.1905
   12MOL   H259 8641   1.868   4.592   5.565  2.5672  3.4097 -1.0934
   12MOL   H260 8642   1.800   4.745   5.641 -1.1543  0.8338 -0.3210
   12MOL   H261 8643   1.768   4.657   5.353 -1.9611  0.5496 -1.2765
   12MOL   H262 8644   1.622   4.710   5.418 -0.8376  0.0661  1.2924
   12MOL   H263 8645   1.750   4.929   5.497 -0.3378 -0.4500 -0.5669
   12MOL   H264 8646   1.882   4.854   5.422  0.3757  1.0230  0.2120
   12MOL   H265 8647   1.755   4.864   5.202  0.4104 -0.6658  1.5968
   12MOL   H266 8648   1.779   5.018   5.283 -0.5985  0.5255 -0.9864
   12MOL   H267 8649   1.528   4.882   5.339  0.6021 -1.3615  0.2284
   12MOL   C268 8650   1.519   4.995   5.172 -1.1475 -0.8593  0.3024
   12MOL   O269 8651   1.581   5.040   5.072  0.0584  0.3383 -0.0135
   12MOL   C270 8652   1.366   4.992   5.193  0.7105  0.0014 -0.3821
   12MOL   C271 8653   1.283   4.992   5.065 -0.6840 -0.3324 -0.0605
   12MOL   C272 8654   1.130   4.992   5.086  0.4588 -0.1478  0.3416
   12MOL   C273 8655   1.057   5.061   4.963 -0.1962  0.6926 -0.0551
   12MOL   C274 8656   1.036   5.210   4.958  0.7536  0.7730 -0.2025
   12MOL   O275 8657   1.020   5.275   5.062  0.2607 -0.2463 -0.5327
   12MOL   N276 8658   1.033   5.265   4.837  0.2303 -0.0614  0.4642
   12MOL   C277 8659   1.005   5.402   4.807 -0.3052  0.3953 -0.0178
   12MOL   C278 8660   1.123   5.499   4.817 -0.0095 -0.2989 -0.4279
   12MOL   C279 8661   1.240   5.471   4.720  0.1377 -0.7376 -0.5714
   12MOL   C280 8662   1.256   5.566   4.601 -0.2381  0.0990 -0.3923
   12MOL   C281 8663   1.377   5.563   4.510 -0.1770  0.9997  0.1960
   12MOL   C282 8664   1.385   5.675   4.407 -0.0199 -0.0797 -0.0878
   12MOL   N283 8665   1.507   5.670   4.327  0.3694  0.4805 -0.1852
   12MOL   H284 8666   1.347   4.907   5.259 -0.8127 -0.5803 -1.5262
   12MOL   H285 8667   1.342   5.078   5.255 -1.8451  0.1568 -1.5118
   12MOL   H286 8668   1.312   5.075   5.001  3.1600  0.0011  1.9720
   12MOL   H287 8669   1.310   4.895   5.022  3.1635  0.3322  0.7595
   12MOL   H288 8670   1.097   5.042   5.177 -1.3954 -0.8543  0.0905
   12MOL   H289 8671   1.105   4.889   5.112  1.4247 -0.0315  1.7734
   12MOL   H290 8672   0.956   5.020   4.963 -1.2220  3.1314 -0.7182
   12MOL   H291 8673   1.104   5.033   4.869  1.6801 -0.5013  1.2120
   12MOL   H292 8674   1.047   5.201   4.760 -1.1698  0.7432 -0.4788
   12MOL   H293 8675   0.971   5.407   4.704 -0.4507  2.3581  0.1195
   12MOL   H294 8676   0.927   5.440   4.872  0.2431 -0.0256  0.9033
   12MOL   H295 8677   1.084   5.598   4.793  0.4686 -0.0638 -0.2468
   12MOL   H296 8678   1.170   5.508   4.915  0.5977  0.8257 -0.8205
   12MOL   H297 8679   1.235   5.370   4.680 -1.2835 -0.5639 -0.8477
   12MOL   H298 8680   1.326   5.472   4.787 -0.3656  1.8927  0.1118
   12MOL   H299 8681   1.165   5.566   4.541  0.2009 -1.5869 -1.0793
   12MOL   H300 8682   1.268   5.668   4.638  0.3466  0.7286 -2.2609
   12MOL   H301 8683   1.464   5.564   4.575 -1.3479  0.5492  1.8092
   12MOL   H302 8684   1.388   5.464   4.467 -0.0976  0.3346  1.6989
   12MOL   H303 8685   1.375   5.767   4.465  0.0480 -0.4023  0.4434
   12MOL   H304 8686   1.306   5.677   4.333 -0.8625 -1.2641  0.7651
   12MOL   H305 8687   1.550   5.581   4.307 -0.0564 -0.4590  2.8204
   12MOL   C306 8688   1.571   5.778   4.282  0.3320  0.2734  0.3077
   12MOL   O307 8689   1.531   5.894   4.298 -0.3518  0.4203 -0.2202
   12MOL   C308 8690   1.705   5.745   4.211 -0.2150 -0.9488  0.6017
   12MOL   C309 8691   1.811   5.725   4.316 -0.3757  0.0040 -0.1735
   12MOL   C310 8692   1.949   5.697   4.248  0.3387  0.9565  0.0662
   12MOL   C311 8693   2.074   5.680   4.338 -0.1453  0.3734  0.2943
   12MOL   C312 8694   2.052   5.563   4.432  0.3867  0.2745 -0.3861
   12MOL   O313 8695   2.076   5.448   4.395 -0.4264 -0.1378 -0.3263
   12MOL   N314 8696   1.997   5.595   4.549 -0.0286  0.1661 -0.5062
   12MOL   C315 8697   1.951   5.499   4.645  0.3003 -0.1871 -0.6508
   12MOL   C316 8698   1.795   5.488   4.626 -0.0436 -0.7370  0.5808
   12MOL   C317 8699   1.762   5.352   4.676  0.2344  0.0008  0.3549
   12MOL   C318 8700   1.617   5.314   4.669  0.5861  0.2888 -0.7464
   12MOL   C319 8701   1.592   5.172   4.715 -0.5499 -0.3306  0.7476
   12MOL   C320 8702   1.439   5.144   4.707 -0.8111 -0.1217 -0.4284
   12MOL   N321 8703   1.417   5.001   4.723 -0.0286  0.1345  1.0077
   12MOL   H322 8704   1.707   5.658   4.146 -2.0495 -0.3603 -0.2863
   12MOL   H323 8705   1.728   5.831   4.148 -1.2141 -0.6032  0.6916
   12MOL   H324 8706   1.824   5.812   4.380 -1.7622 -0.9203  1.3961
   12MOL   H325 8707   1.779   5.642   4.379  2.0055 -1.9987 -1.4908
   12MOL   H326 8708   1.984   5.782   4.189 -2.6677  2.1214 -0.1401
   12MOL   H327 8709   1.939   5.617   4.174  2.0719  1.2084 -0.4649
   12MOL   H328 8710   2.093   5.769   4.398  0.0936 -0.0363  0.8304
   12MOL   H329 8711   2.170   5.656   4.291  0.2671  1.6062  0.5084
   12MOL   H330 8712   1.987   5.693   4.567  0.2915  0.3555 -1.3504
   12MOL   H331 8713   2.009   5.407   4.635  0.2983 -0.1734 -0.7997
   12MOL   H332 8714   1.984   5.514   4.747 -0.4134 -1.1479 -0.2679
   12MOL   H333 8715   1.735   5.564   4.676 -1.9180 -2.2508  0.7031
   12MOL   H334 8716   1.769   5.494   4.520 -0.9105 -0.5460  0.7974
   12MOL   H335 8717   1.794   5.346   4.780  0.6019 -2.7360  0.1192
   12MOL   H336 8718   1.821   5.278   4.621 -0.1966  0.3219 -0.5340
   12MOL   H337 8719   1.566   5.385   4.735 -2.1047 -1.1733 -1.1846
   12MOL   H338 8720   1.569   5.330   4.572 -1.6060  0.1656  0.3066
   12MOL   H339 8721   1.641   5.110   4.640 -0.6789 -0.5936  0.8799
   12MOL   H340 8722   1.634   5.149   4.813 -1.3688  0.4179  1.2841
   12MOL   H341 8723   1.404   5.174   4.608 -0.7153 -0.4060 -0.5488
   12MOL   H342 8724   1.385   5.199   4.784  0.9030 -1.1740  1.5619
   12MOL   H343 8725   1.500   4.953   4.755 -1.3800 -0.7706  3.3050
   12MOL   C344 8726   1.308   4.934   4.686 -0.1039 -0.2246 -0.3800
   12MOL   O345 8727   1.207   4.985   4.635  0.4523  0.0533 -0.1397
   12MOL   C346 8728   1.317   4.782   4.699  0.6273  0.0565  0.3074
   12MOL   C347 8729   1.198   4.698   4.656 -0.1140 -0.5298 -0.3223
   12MOL   C348 8730   1.068   4.718   4.751 -0.5323 -0.6935  0.4857
   12MOL   C349 8731   1.074   4.644   4.888 -1.1739 -0.2667  0.6424
   12MOL   C350 8732   1.001   4.517   4.887  0.3172 -0.2130 -0.2973
   12MOL   O351 8733   0.966   4.451   4.786  0.2475 -0.1670 -0.1414
   12MOL   N352 8734   0.950   4.482   5.005 -0.0771  0.2542  0.0903
   12MOL   C353 8735   0.846   4.376   5.028  0.9017 -0.5103  0.3158
   12MOL   C354 8736   0.710   4.453   5.021  0.1531  0.0319 -0.2093
   12MOL   C355 8737   0.585   4.376   5.067  0.1031 -1.1959 -0.1484
   12MOL   C356 8738   0.468   4.465   5.047 -0.6823 -0.0975  0.3076
   12MOL   C357 8739   0.356   4.433   5.141 -0.1550 -0.0172  0.0042
   12MOL   C358 8740   0.228   4.514   5.108  0.2702 -0.0871 -0.3942
   12MOL   N359 8741   0.245   4.660   5.101 -0.7148  0.8572 -0.0769
   12MOL   H360 8742   1.405   4.747   4.643  0.6791  0.9545 -0.1768
   12MOL   H361 8743   1.341   4.760   4.803  0.2814  0.2520  0.4252
   12MOL   H362 8744   1.182   4.695   4.548 -0.5716 -1.1382 -0.2352
   12MOL   H363 8745   1.223   4.594   4.677  3.0663  0.1120 -0.5918
   12MOL   H364 8746   0.991   4.681   4.683  1.7466  2.3149 -4.0536
   12MOL   H365 8747   1.042   4.823   4.757 -1.6949 -0.8075 -1.9527
   12MOL   H366 8748   1.019   4.706   4.959  1.4811  0.7364  1.9107
   12MOL   H367 8749   1.177   4.619   4.913 -1.1026 -0.6397 -0.0079
   12MOL   H368 8750   0.972   4.553   5.074 -1.0721 -0.5837  1.3080
   12MOL   H369 8751   0.844   4.295   4.955  1.8304  0.9596 -1.3859
   12MOL   H370 8752   0.859   4.340   5.129 -2.1272  1.8673  1.6464
   12MOL   H371 8753   0.719   4.540   5.087  1.6540 -0.0287 -0.3191
   12MOL   H372 8754   0.692   4.485   4.919 -2.4282 -1.7847 -0.3669
   12MOL   H373 8755   0.593   4.343   5.170  0.3828 -1.4687 -0.2538
   12MOL   H374 8756   0.577   4.283   5.011  0.1089 -0.5756 -1.1940
   12MOL   H375 8757   0.498   4.569   5.058  0.3228 -0.4023  0.4686
   12MOL   H376 8758   0.431   4.453   4.945  0.5868 -1.0465 -0.0526
   12MOL   H377 8759   0.330   4.328   5.127  3.3375 -0.9414  0.0343
   12MOL   H378 8760   0.399   4.436   5.242  0.9719 -1.4379 -0.4225
   12MOL   H379 8761   0.151   4.489   5.180  0.8142 -2.7120 -0.6417
   12MOL   H380 8762   0.193   4.472   5.013  2.4679 -1.8281 -0.5029
   12MOL   H381 8763   0.274   4.696   5.012 -0.8939 -0.5008 -0.6997
   12MOL   C382 8764   0.241   4.741   5.208 -0.8636  1.3251  0.1184
   12MOL   O383 8765   0.226   4.696   5.324  0.3735  0.2665 -0.3027
   12MOL   C384 8766   0.277   4.890   5.185 -0.1725  0.4163 -0.4959
   12MOL   C385 8767   0.183   4.983   5.259 -0.4369 -0.2124 -1.2021
   12MOL   C386 8768   0.225   5.000   5.406  0.5601  0.2869 -0.3306
   12MOL   C387 8769   0.341   5.088   5.427 -0.6290 -0.0733 -0.3332
   12MOL   C388 8770   0.386   5.074   5.578  0.5285 -0.4233  0.6312
   12MOL   O389 8771   0.308   5.037   5.669 -0.5936  0.6181 -0.4455
   12MOL   N390 8772   0.514   5.108   5.602  0.6234  0.3993  0.8527
   12MOL   C391 8773   0.577   5.100   5.734  0.0590 -0.4545  0.7503
   12MOL   C392 8774   0.701   5.006   5.727 -0.1847 -0.1095 -0.4043
   12MOL   C393 8775   0.804   5.046   5.627 -0.1940 -0.3846  0.1491
   12MOL   C394 8776   0.935   4.959   5.632 -0.5594  0.1273 -0.0612
   12MOL   C395 8777   1.037   4.984   5.521 -0.0702 -0.9711  0.1137
   12MOL   C396 8778   1.167   4.907   5.530 -0.2983  0.0122 -0.2070
   12MOL   N397 8779   1.264   4.987   5.614  0.2175  0.2978  0.2130
   12MOL   H398 8780   0.379   4.889   5.224 -0.3619  1.0427  0.0342
   12MOL   H399 8781   0.274   4.906   5.078 -2.3715 -1.0021 -0.6616
   12MOL   H400 8782   0.184   5.081   5.212 -0.6896  1.5299  2.3245
   12MOL   H401 8783   0.082   4.944   5.250 -0.8797 -0.0540  2.6143
   12MOL   H402 8784   0.250   4.906   5.455  0.1507  1.4896  2.2598
   12MOL   H403 8785   0.134   5.036   5.455  0.9261 -0.2178  0.7261
   12MOL   H404 8786   0.330   5.193   5.398  0.6599  0.5509  1.2997
   12MOL   H405 8787   0.421   5.049   5.365 -0.2225  0.6165 -0.2537
   12MOL   H406 8788   0.570   5.139   5.524 -0.2388 -1.5516 -0.5962
   12MOL   H407 8789   0.613   5.197   5.769  1.7446 -1.0933  0.8863
   12MOL   H408 8790   0.508   5.066   5.811  0.2070  0.7613  1.4274
   12MOL   H409 8791   0.745   5.003   5.826 -1.0307 -2.3034 -0.0544
   12MOL   H410 8792   0.684   4.901   5.704 -2.2287  0.1378 -0.1129
   12MOL   H411 8793   0.822   5.153   5.640  0.6401 -0.3308 -1.3770
   12MOL   H412 8794   0.769   5.036   5.524  2.3825 -1.0109 -0.7027
   12MOL   H413 8795   0.986   4.974   5.727 -0.7577 -1.2935  0.2806
   12MOL   H414 8796   0.905   4.856   5.616  1.1755 -0.0269 -2.5181
   12MOL   H415 8797   0.991   4.961   5.425 -1.6078  2.1928  0.0234
   12MOL   H416 8798   1.044   5.092   5.503 -4.6871 -0.5201  0.3999
   12MOL   H417 8799   1.206   4.888   5.430 -0.7635 -1.1926 -0.1605
   12MOL   H418 8800   1.154   4.813   5.584  0.7762  0.5887  1.1057
   12MOL   H419 8801   1.236   5.062   5.675  1.3264 -0.9215  2.2804
   12MOL   C420 8802   1.389   4.989   5.580  0.7406 -0.6460  0.1400
   12MOL   O421 8803   1.442   4.907   5.504  0.1910  0.5776  0.0298
   12MOL   C422 8804   1.478   5.100   5.645 -0.8113  0.0376 -0.4047
   12MOL   C423 8805   1.567   5.176   5.547  0.2459 -0.3813  0.0308
   12MOL   C424 8806   1.655   5.288   5.612 -0.7909  0.1662  0.2493
   12MOL   C425 8807   1.773   5.236   5.694  0.4303 -0.4223  0.1046
   12MOL   C426 8808   1.899   5.208   5.607  0.2158  0.3251  0.3733
   12MOL   O427 8809   1.919   5.254   5.497 -0.2985 -0.3200  0.3793
   12MOL   N428 8810   1.982   5.121   5.674 -0.3373  0.2492  0.1422
   12MOL   C429 8811   2.110   5.078   5.619 -0.7438 -0.3253 -0.8768
   12MOL   C430 8812   2.140   4.938   5.674  0.0086  0.4933  0.0991
   12MOL   C431 8813   2.267   4.882   5.615  0.3095 -0.2903 -0.3115
   12MOL   C432 8814   2.353   4.785   5.690 -0.1205 -0.4883 -0.2147
   12MOL   C433 8815   2.424   4.840   5.811  0.3429 -0.6833  0.8719
   12MOL   C434 8816   2.530   4.743   5.855  0.0991 -0.4879 -1.2068
   12MOL   N435 8817   2.612   4.816   5.953 -0.3617 -0.4014 -0.3175
   12MOL   H436 8818   1.411   5.174   5.690 -1.9330 -1.7835  0.9991
   12MOL   H437 8819   1.546   5.065   5.723  1.7392  0.1184 -2.5381
   12MOL   H438 8820   1.624   5.117   5.475  0.2149 -0.1521 -0.1858
   12MOL   H439 8821   1.501   5.237   5.485  2.1617 -0.8636 -2.5798
   12MOL   H440 8822   1.586   5.345   5.675  1.0329 -0.2319  2.6842
   12MOL   H441 8823   1.692   5.360   5.539  0.0373 -1.1820 -0.6811
   12MOL   H442 8824   1.750   5.141   5.742  1.1241 -0.0625  1.1792
   12MOL   H443 8825   1.800   5.306   5.774 -0.8550 -0.4280  0.5422
   12MOL   H444 8826   1.963   5.100   5.771  1.2580  1.4621  0.7282
   12MOL   H445 8827   2.115   5.072   5.511  1.0551  0.6632 -0.8748
   12MOL   H446 8828   2.188   5.149   5.646 -0.1191 -0.0771 -3.2538
   12MOL   H447 8829   2.169   4.950   5.778  4.6697 -0.4279 -0.9344
   12MOL   H448 8830   2.065   4.859   5.673  0.5732 -0.0556  0.4622
   12MOL   H449 8831   2.336   4.965   5.601  1.9338 -1.5336  0.2252
   12MOL   H450 8832   2.243   4.837   5.519 -0.4927  2.9774 -1.6906
   12MOL   H451 8833   2.291   4.700   5.715 -1.2463  0.0942 -0.9763
   12MOL   H452 8834   2.424   4.749   5.615 -0.1525 -3.4387  1.1402
   12MOL   H453 8835   2.486   4.922   5.775  3.3520 -3.3121 -0.2262
   12MOL   H454 8836   2.352   4.867   5.888  0.3109  0.0325  0.5944
   12MOL   H455 8837   2.573   4.696   5.767 -2.3167 -2.9727 -1.1529
   12MOL   H456 8838   2.489   4.654   5.903  0.3537 -0.5214 -1.0474
   12MOL   H457 8839   2.585   4.905   5.992  2.0126 -0.4849  1.6451
   12MOL   C458 8840   2.737   4.784   5.987  0.0972  0.3755  0.3094
   12MOL   O459 8841   2.800   4.686   5.941  0.2680 -0.2045 -0.2411
   12MOL   C460 8842   2.802   4.871   6.087 -0.0763 -1.3783  0.5312
   12MOL   C461 8843   2.860   4.791   6.203  0.3534 -0.2204  0.4063
   12MOL   C462 8844   2.747   4.736   6.297  0.0548  0.9472 -0.6257
   12MOL   C463 8845   2.794   4.644   6.412 -0.1456 -0.2820 -0.2191
   12MOL   C464 8846   2.836   4.507   6.371 -0.0252 -0.0402 -0.7724
   12MOL   O465 8847   2.747   4.418   6.366 -0.2536  0.0753  0.3615
   12MOL   N466 8848   2.967   4.483   6.356  0.5942 -0.1364  0.0436
   12MOL   C467 8849   3.009   4.363   6.288 -0.4991  0.5187 -0.4708
   12MOL   C468 8850   2.999   4.382   6.137 -0.3396 -0.1181 -0.2013
   12MOL   C469 8851   3.090   4.283   6.057 -0.8502  0.3604  0.3212
   12MOL   C470 8852   3.059   4.272   5.906  0.3469  0.0407  0.1900
   12MOL   C471 8853   3.041   4.406   5.839 -0.4278 -0.3161  0.0048
   12MOL   C472 8854   2.990   4.401   5.698  0.5321  0.8559  0.4434
   12MOL   N473 8855   2.913   4.525   5.681 -0.2015 -0.4211  0.0758
   12MOL   H474 8856   2.870   4.941   6.039 -0.7752 -0.6428  0.6004
   12MOL   H475 8857   2.725   4.935   6.129 -1.5793 -0.2840 -3.6560
   12MOL   H476 8858   2.918   4.708   6.162  0.4349  0.3009 -0.5466
   12MOL   H477 8859   2.929   4.853   6.261 -1.4753  3.0309 -0.7917
   12MOL   H478 8860   2.671   4.683   6.239  0.7294 -0.8319  0.0619
   12MOL   H479 8861   2.688   4.810   6.350 -1.3003 -1.3145  1.1014
   12MOL   H480 8862   2.708   4.625   6.477 -1.2677 -0.9424 -1.8489
   12MOL   H481 8863   2.868   4.684   6.481 -2.3075  0.9275  1.4697
   12MOL   H482 8864   3.045   4.547   6.368 -0.4467  0.6109  3.2068
   12MOL   H483 8865   3.115   4.339   6.295 -0.3580  1.1511 -0.4391
   12MOL   H484 8866   2.950   4.280   6.327  1.1434 -0.0821  0.7756
   12MOL   H485 8867   2.898   4.359   6.101  0.5006 -0.5515 -2.3685
   12MOL   H486 8868   3.016   4.489   6.120  0.5878 -0.2475 -0.1051
   12MOL   H487 8869   3.089   4.186   6.106 -1.9356  0.3900  0.3553
   12MOL   H488 8870   3.190   4.323   6.075 -0.5448 -0.9057  1.5224
   12MOL   H489 8871   3.127   4.202   5.856 -0.3058 -0.0968 -0.5229
   12MOL   H490 8872   2.960   4.226   5.911 -0.0161  1.0725  3.2518
   12MOL   H491 8873   2.969   4.461   5.899 -0.5610 -0.6412  0.1455
   12MOL   H492 8874   3.134   4.463   5.833 -1.5769  1.4359 -1.4356
   12MOL   H493 8875   2.914   4.324   5.683  0.5235  1.1031 -0.8776
   12MOL   H494 8876   3.075   4.399   5.630 -0.6917 -0.9558 -1.0663
   12MOL   H495 8877   2.863   4.572   5.755 -0.4210 -1.0674  0.3465
   12MOL   C496 8878   2.916   4.588   5.559  0.3124 -0.4731 -0.1919
   12MOL   O497 8879   2.964   4.542   5.456  0.3897  0.0352  0.0015
   12MOL   C498 8880   2.859   4.731   5.566 -0.2409 -0.7363  0.6421
   12MOL   C499 8881   2.741   4.757   5.472  1.0713 -0.0605  0.5464
   12MOL   C500 8882   2.780   4.775   5.326 -0.0311 -0.1974  0.4658
   12MOL   C501 8883   2.671   4.782   5.219  0.6088  0.6685 -0.3173
   12MOL   C502 8884   2.566   4.894   5.251  0.2642  0.6498  0.6919
   12MOL   O503 8885   2.589   4.999   5.311 -0.0263  0.6298 -0.0872
   12MOL   N504 8886   2.445   4.871   5.197  0.0243  0.3131  0.5737
   12MOL   C505 8887   2.330   4.957   5.214  0.2428  0.0599 -0.0428
   12MOL   C506 8888   2.329   5.093   5.142 -0.5233  0.2523  0.1895
   12MOL   C507 8889   2.341   5.084   4.987  1.3400 -0.5348  0.2196
   12MOL   C508 8890   2.276   5.201   4.914  0.2761 -0.2819 -0.3771
   12MOL   C509 8891   2.350   5.242   4.793  0.2238 -0.1471 -0.0251
   12MOL   C510 8892   2.275   5.351   4.712 -0.1982  0.0314  0.1246
   12MOL   N511 8893   2.358   5.410   4.606  0.0880 -0.1770 -0.2846
   12MOL   H512 8894   2.822   4.742   5.668 -1.2567  1.8238  0.0297
   12MOL   H513 8895   2.951   4.786   5.550  1.2172 -3.4603 -0.7013
   12MOL   H514 8896   2.679   4.668   5.476 -1.0917  1.4334  1.5350
   12MOL   H515 8897   2.679   4.842   5.500  0.4666  0.2480 -1.6553
   12MOL   H516 8898   2.851   4.699   5.294 -0.7580 -0.0643 -1.5361
   12MOL   H517 8899   2.839   4.866   5.316 -1.4599  0.9274  1.9169
   12MOL   H518 8900   2.621   4.686   5.213  1.6027  0.1251 -0.0890
   12MOL   H519 8901   2.718   4.802   5.122 -0.3463 -0.7600 -1.0825
   12MOL   H520 8902   2.431   4.790   5.139  0.2364  1.1898 -0.7323
   12MOL   H521 8903   2.237   4.907   5.185  0.5669  0.0684 -1.1493
   12MOL   H522 8904   2.312   4.969   5.321 -0.5849 -0.1380 -0.1534
   12MOL   H523 8905   2.235   5.131   5.181  0.2304  1.7318  0.6244
   12MOL   H524 8906   2.413   5.156   5.173  0.6328 -0.9671 -0.4304
   12MOL   H525 8907   2.300   4.987   4.958 -0.7709 -0.1590  1.9049
   12MOL   H526 8908   2.444   5.054   4.964  1.5381  1.7099 -2.0627
   12MOL   H527 8909   2.177   5.167   4.884  0.5541 -1.6445  0.2199
   12MOL   H528 8910   2.258   5.288   4.977 -2.4069 -1.3728  0.4445
   12MOL   H529 8911   2.436   5.297   4.833  1.6009 -2.3956  0.1828
   12MOL   H530 8912   2.382   5.162   4.726  2.8087  1.0798 -0.3094
   12MOL   H531 8913   2.249   5.437   4.774  1.6025  0.0581  0.8794
   12MOL   H532 8914   2.186   5.307   4.668 -0.4641  0.0667  0.6290
   12MOL   H533 8915   2.398   5.501   4.621 -0.1318  0.0305 -0.9649
   12MOL   C534 8916   2.370   5.358   4.481 -0.2314  0.5238 -0.4521
   12MOL   O535 8917   2.331   5.242   4.453  0.0447  0.6024 -0.1476
   12MOL   C536 8918   2.424   5.455   4.372  0.1730 -0.0715 -0.2762
   12MOL   C537 8919   2.557   5.396   4.309 -0.0516 -0.0955 -0.2113
   12MOL   C538 8920   2.683   5.413   4.407 -0.6461 -0.0649  0.1279
   12MOL   C539 8921   2.790   5.308   4.363  0.1738  0.3235  0.1581
   12MOL   C540 8922   2.862   5.345   4.233  0.0261 -0.0567  0.1256
   12MOL   O541 8923   2.911   5.457   4.217 -0.1635  0.3349  0.3084
   12MOL   N542 8924   2.873   5.244   4.139  0.0664  0.1446 -0.2284
   12MOL   C543 8925   2.947   5.263   4.014 -0.1510 -0.2166  0.5548
   12MOL   C544 8926   2.865   5.330   3.894 -0.5986  0.2986 -0.6876
   12MOL   C545 8927   2.943   5.353   3.764  0.8463  0.3058 -0.2683
   12MOL   C546 8928   3.044   5.470   3.771  0.5445 -0.2330  0.3415
   12MOL   C547 8929   3.123   5.498   3.643 -0.0887 -0.2065  0.0896
   12MOL   C548 8930   3.232   5.605   3.653  0.9010 -0.0944 -0.4005
   12MOL   N549 8931   3.332   5.575   3.756  0.3861  0.0967 -0.0865
   12MOL   H550 8932   2.352   5.458   4.290  1.8929  2.1024 -1.7628
   12MOL   H551 8933   2.451   5.552   4.414 -0.9451  0.2277 -0.2276
   12MOL   H552 8934   2.534   5.294   4.279  1.2902 -0.8110  1.1208
   12MOL   H553 8935   2.584   5.442   4.214  1.5621  0.9248  0.7281
   12MOL   H554 8936   2.655   5.403   4.512  3.3575  0.4052  1.3089
   12MOL   H555 8937   2.714   5.518   4.401  0.6232 -0.4013  0.8036
   12MOL   H556 8938   2.751   5.206   4.360 -0.3971  0.5626 -0.9390
   12MOL   H557 8939   2.860   5.313   4.445 -0.6420  0.4691  0.8536
   12MOL   H558 8940   2.815   5.163   4.160  0.2459  0.1091  0.1363
   12MOL   H559 8941   3.036   5.321   4.037  0.6430 -1.0538 -0.3295
   12MOL   H560 8942   2.966   5.162   3.977 -1.3881 -0.1929 -0.2000
   12MOL   H561 8943   2.780   5.266   3.871  0.2933 -0.6909 -1.3045
   12MOL   H562 8944   2.824   5.427   3.923  0.2669  0.4214  0.1699
   12MOL   H563 8945   2.873   5.360   3.680  1.5148  1.9881 -0.7275
   12MOL   H564 8946   2.991   5.260   3.733 -0.5467 -0.0252 -1.5008
   12MOL   H565 8947   3.002   5.564   3.806 -0.6037 -1.1111  1.3972
   12MOL   H566 8948   3.119   5.433   3.841  1.7932 -0.2459 -0.9795
   12MOL   H567 8949   3.179   5.410   3.610  1.4958  0.3152  1.3341
   12MOL   H568 8950   3.053   5.507   3.560  0.9195  2.7290 -0.4758
   12MOL   H569 8951   3.181   5.700   3.669  0.3578  0.1714 -3.4320
   12MOL   H570 8952   3.291   5.626   3.565  0.4181 -0.6924 -0.8719
   12MOL   H571 8953   3.355   5.477   3.752  1.2151  0.2563  0.7528
   12MOL   C572 8954   3.409   5.664   3.815  0.1541  0.9953 -0.8904
   12MOL   O573 8955   3.371   5.780   3.817  0.0469  0.8841  0.2566
   12MOL   C574 8956   3.542   5.623   3.880 -0.7446  0.0422  0.3325
   12MOL   C575 8957   3.604   5.715   3.985 -0.8397  0.4672  0.0353
   12MOL   C576 8958   3.732   5.664   4.048  0.5168  0.3382 -0.0892
   12MOL   C577 8959   3.856   5.667   3.956 -0.2417 -0.0074  0.1911
   12MOL   C578 8960   3.975   5.615   4.032 -0.6712 -0.3642  0.1447
   12MOL   O579 8961   3.975   5.494   4.054  0.2417 -0.3113 -0.1730
   12MOL   N580 8962   4.072   5.696   4.063 -0.1546  0.8864  1.0683
   12MOL   C581 8963   4.205   5.651   4.108  0.0115  0.0877 -0.5135
   12MOL   C582 8964   4.308   5.603   3.999 -0.5647 -0.0990 -0.0079
   12MOL   C583 8965   4.437   5.529   4.052  0.0093  0.5467  0.2278
   12MOL   C584 8966   4.541   5.478   3.939  0.4103  0.6727 -0.2972
   12MOL   C585 8967   4.657   5.401   3.992  0.2393  0.2086  0.1890
   12MOL   C586 8968   4.751   5.367   3.875  0.3548 -0.0682  0.7136
   12MOL   N587 8969   4.877   5.303   3.913  0.3754  0.2380 -0.2066
   12MOL   H588 8970   3.544   5.518   3.905 -1.2099  0.4098  1.9621
   12MOL   H589 8971   3.614   5.629   3.798  0.4009  1.0460  1.3938
   12MOL   H590 8972   3.623   5.809   3.934  3.2030 -0.1630  0.2002
   12MOL   H591 8973   3.529   5.727   4.063 -0.5175  2.0731  0.1155
   12MOL   H592 8974   3.704   5.561   4.072 -0.9591  0.2675 -2.0273
   12MOL   H593 8975   3.749   5.726   4.136 -1.7077 -1.6685  1.8123
   12MOL   H594 8976   3.875   5.770   3.926 -1.8025  0.2657  0.0945
   12MOL   H595 8977   3.849   5.606   3.866 -2.6436  1.9415 -1.0047
   12MOL   H596 8978   4.065   5.794   4.037 -0.3333  0.3195 -1.0877
   12MOL   H597 8979   4.241   5.724   4.180 -0.1489 -0.1510 -0.1884
   12MOL   H598 8980   4.195   5.563   4.171  1.8583 -0.7160 -1.2918
   12MOL   H599 8981   4.260   5.535   3.929 -0.7261  1.1532 -1.1150
   12MOL   H600 8982   4.320   5.691   3.935 -3.3506 -0.4800 -1.1494
   12MOL   H601 8983   4.410   5.441   4.109 -1.6538 -0.6482 -2.3019
   12MOL   H602 8984   4.495   5.591   4.120  0.2235  1.1375 -0.4861
   12MOL   H603 8985   4.493   5.420   3.861  0.6185  2.5651 -1.8879
   12MOL   H604 8986   4.567   5.569   3.883 -0.0818  0.7849 -0.3438
   12MOL   H605 8987   4.713   5.442   4.076  1.3983 -1.6427  0.3379
   12MOL   H606 8988   4.612   5.311   4.034  1.1924  0.0600  0.9134
   12MOL   H607 8989   4.776   5.460   3.823  3.2498 -0.3324  1.5376
   12MOL   H608 8990   4.692   5.301   3.812  0.2976 -0.3629  1.0800
   12MOL   H609 8991   4.901   5.217   3.867  1.4182  0.6868 -0.5072
   12MOL   C610 8992   4.972   5.335   3.995 -0.3504 -0.3798 -0.4240
   12MOL   O611 8993   4.985   5.449   4.042  0.2437 -0.0230  0.4028
   12MOL   C612 8994   5.082   5.235   4.008  0.5403 -1.1613  0.1604
   12MOL   C613 8995   5.075   5.130   4.125 -0.1260 -0.5865 -0.0572
   12MOL   C614 8996   4.937   5.064   4.141 -0.0220 -0.6657 -0.1235
   12MOL   C615 8997   4.878   4.998   4.008 -0.2379 -0.6261  0.1551
   12MOL   C616 8998   4.957   4.876   3.974  0.0588 -0.0614  0.1827
   12MOL   O617 8999   4.969   4.783   4.053 -0.2142  0.4263  0.1673
   12MOL   N618 9000   5.011   4.878   3.853  0.2822  0.8210 -0.5327
   12MOL   C619 9001   5.114   4.780   3.812  0.0447 -0.4839  0.3161
   12MOL   C620 9002   5.239   4.862   3.779  0.7143 -0.0016  0.6298
   12MOL   C621 9003   5.325   4.789   3.679 -0.1812  0.2062  0.4147
   12MOL   C622 9004   5.423   4.886   3.611 -0.7437  0.2301 -0.1079
   12MOL   C623 9005   5.495   4.993   3.696  0.6911 -0.4214 -0.7126
   12MOL   C624 9006   5.592   5.080   3.623  0.0618 -0.6729 -0.3118
   12MOL   N625 9007   5.658   5.178   3.715  0.1667  0.0497 -0.3779
   12MOL   H626 9008   5.090   5.178   3.916  0.9020 -0.9576  0.0646
   12MOL   H627 9009   5.179   5.285   4.016 -0.6746  1.3920 -0.3912
   12MOL   H628 9010   5.142   5.048   4.099  1.0833  0.2557  0.3710
   12MOL   H629 9011   5.113   5.177   4.216  0.7500  0.7626 -1.0929
   12MOL   H630 9012   4.864   5.124   4.197  1.1498  1.5616 -0.9255
   12MOL   H631 9013   4.951   4.978   4.207  0.2682 -1.4075 -1.1395
   12MOL   H632 9014   4.876   5.056   3.916 -0.6970 -2.3674 -0.9601
   12MOL   H633 9015   4.777   4.963   4.029 -0.9247  0.9674 -0.4370
   12MOL   H634 9016   4.976   4.950   3.791  0.0173  0.5849 -0.6597
   12MOL   H635 9017   5.119   4.703   3.889 -1.1201 -1.6504 -0.7329
   12MOL   H636 9018   5.072   4.741   3.719  1.9168 -0.2655 -0.6588
   12MOL   H637 9019   5.211   4.962   3.745 -2.0773 -0.4858  1.4219
   12MOL   H638 9020   5.289   4.879   3.875 -0.2990  0.0382  1.1534
   12MOL   H639 9021   5.257   4.738   3.609  0.2590 -0.5574  0.5358
   12MOL   H640 9022   5.384   4.711   3.727 -2.4288 -1.7278  0.1985
   12MOL   H641 9023   5.496   4.832   3.550 -0.1013  0.9725  0.0067
   12MOL   H642 9024   5.362   4.953   3.551 -0.4876  0.9564  0.4359
   12MOL   H643 9025   5.421   5.060   3.739  1.4141  0.8036 -1.3367
   12MOL   H644 9026   5.545   4.945   3.780  1.9666  2.7756  0.4395
   12MOL   H645 9027   5.531   5.141   3.556  1.8643  0.9905 -0.4600
   12MOL   H646 9028   5.671   5.021   3.577  0.5382 -0.8151  0.6739
   12MOL   H647 9029   5.604   5.199   3.798 -0.7327 -1.1990 -0.6232
   12MOL   C648 9030   5.778   5.231   3.708  0.8359  0.1188 -0.2626
   12MOL   O649 9031   5.851   5.217   3.613 -0.0809 -0.5735 -0.1258
   12MOL   C650 9032   5.815   5.309   3.835 -0.2267  0.2734  0.7036
   12MOL   C651 9033   5.827   5.463   3.819  0.3764 -0.0635  0.4793
   12MOL   C652 9034   5.882   5.522   3.954  0.3270 -0.6746  0.2922
   12MOL   C653 9035   5.775   5.512   4.072  0.5011 -0.3420 -0.3090
   12MOL   C654 9036   5.830   5.565   4.205 -0.0035  0.0611  0.3456
   12MOL   O655 9037   5.947   5.557   4.238 -0.4599  0.1873  0.0400
   12MOL   N656 9038   5.740   5.640   4.274 -0.1742  0.8215 -0.5386
   12MOL   C657 9039   5.766   5.708   4.401  0.0130 -0.1226  0.2775
   12MOL   C658 9040   5.705   5.626   4.518 -0.9414  0.1316  0.3908
   12MOL   C659 9041   5.708   5.708   4.649  0.1023  0.0090 -0.1155
   12MOL   C660 9042   5.621   5.652   4.776 -0.4691  0.3374  0.5107
   12MOL   C661 9043   5.618   5.759   4.884  0.1488  0.2203 -0.3028
   12MOL   C662 9044   5.506   5.741   4.994 -1.0893 -0.1636 -0.0756
   12MOL   N663 9045   5.507   5.602   5.035  0.3788  0.2410 -0.3676
   12MOL   H664 9046   5.736   5.288   3.906 -0.4241  0.5916  0.5764
   12MOL   H665 9047   5.897   5.261   3.890 -2.1414 -2.4927  1.2347
   12MOL   H666 9048   5.884   5.493   3.731 -2.4116 -0.2273 -1.4569
   12MOL   H667 9049   5.737   5.524   3.813  0.1273 -0.4773 -0.1303
   12MOL   H668 9050   5.915   5.624   3.935  3.2278 -1.2612  1.8418
   12MOL   H669 9051   5.977   5.476   3.983  0.7814 -1.0831 -1.7590
   12MOL   H670 9052   5.742   5.411   4.095 -0.7457  0.2692  0.6548
   12MOL   H671 9053   5.678   5.543   4.034 -0.2506 -1.8885  0.2972
   12MOL   H672 9054   5.653   5.659   4.227  0.0796  0.7304 -1.0400
   12MOL   H673 9055   5.872   5.725   4.418  0.4444 -1.4935 -0.9327
   12MOL   H674 9056   5.725   5.809   4.391  0.3376  0.0415  0.5864
   12MOL   H675 9057   5.601   5.597   4.500 -0.6399 -0.9245  0.3088
   12MOL   H676 9058   5.744   5.528   4.543  0.3535  0.6912  0.5769
   12MOL   H677 9059   5.678   5.811   4.627  0.6327 -0.0554 -1.1538
   12MOL   H678 9060   5.807   5.732   4.686 -0.0287 -1.2334  1.0698
   12MOL   H679 9061   5.521   5.617   4.749 -0.9530  0.4537  2.1472
   12MOL   H680 9062   5.665   5.562   4.818 -1.4743 -0.5000 -0.1857
   12MOL   H681 9063   5.714   5.771   4.935  0.8406  1.5128 -1.8813
   12MOL   H682 9064   5.602   5.853   4.831 -0.3631  0.0689 -0.4118
   12MOL   H683 9065   5.409   5.765   4.951 -1.2693 -0.1118  0.3482
   12MOL   H684 9066   5.513   5.809   5.080 -3.4146 -0.1771  0.1681
   12MOL   H685 9067   5.452   5.544   4.972 -1.1006 -0.5166  1.5727
   12MOL   C686 9068   5.571   5.545   5.137  0.2678 -0.5978 -0.5042
   12MOL   O687 9069   5.654   5.603   5.205 -0.2852 -0.1560  0.0889
   12MOL   C688 9070   5.522   5.400   5.179 -0.1956  0.4086  0.2814
   12MOL   C689 9071   5.601   5.290   5.102  0.0243  0.6289 -0.2400
   12MOL   C690 9072   5.749   5.270   5.151  0.1933 -0.3881 -0.3533
   12MOL   C691 9073   5.809   5.151   5.080 -0.2957  0.0249 -0.0477
   12MOL   C692 9074   5.826   5.170   4.927  0.2891 -0.2053  0.7471
   12MOL   O693 9075   5.734   5.131   4.853 -1.0722 -0.0650 -0.1813
   12MOL   N694 9076   5.935   5.236   4.881  0.3408  0.0520 -0.0099
   12MOL   C695 9077   5.961   5.289   4.745  0.0130 -0.3358  0.3738
   12MOL   C696 9078   6.063   5.407   4.744 -0.0062  0.0701 -1.2395
   12MOL   C697 9079   6.080   5.469   4.605  0.3675 -0.0632  0.2695
   12MOL   C698 9080   6.172   5.586   4.594  0.2455  0.3516 -0.6751
   12MOL   C699 9081   6.183   5.650   4.456 -0.4915  0.4897 -0.5589
   12MOL   C700 9082   6.310   5.735   4.437  0.4407  0.3962 -0.3444
   12MOL   N701 9083   6.300   5.806   4.313 -0.9678 -0.1824  0.1894
   12MOL   H702 9084   5.505   5.373   5.284 -1.1196 -0.9546 -0.1996
   12MOL   H703 9085   5.418   5.406   5.147 -1.1172 -0.9664  2.8100
   12MOL   H704 9086   5.554   5.194   5.080  0.3755  1.3318 -4.5333
   12MOL   H705 9087   5.618   5.320   4.998 -0.4430  0.4517 -0.3712
   12MOL   H706 9088   5.751   5.242   5.256  0.8696 -0.3566 -0.3548
   12MOL   H707 9089   5.803   5.363   5.128  2.1301 -1.2920  0.4192
   12MOL   H708 9090   5.742   5.065   5.087 -0.3127 -0.2203 -2.5967
   12MOL   H709 9091   5.907   5.126   5.120 -0.6770 -0.3696  0.6533
   12MOL   H710 9092   5.997   5.263   4.956 -0.0504  1.7747 -0.2732
   12MOL   H711 9093   5.988   5.208   4.677 -2.2116 -1.6748  1.0129
   12MOL   H712 9094   5.873   5.335   4.699  0.9310  0.0391 -1.0610
   12MOL   H713 9095   6.027   5.493   4.800  1.2986  0.7821 -1.4803
   12MOL   H714 9096   6.157   5.390   4.796 -1.7533  1.1254  2.4504
   12MOL   H715 9097   5.989   5.492   4.549  1.4078  1.8534 -0.6902
   12MOL   H716 9098   6.119   5.384   4.549  0.1032  1.5292 -2.4230
   12MOL   H717 9099   6.137   5.654   4.672  0.6395  3.1983 -2.8961
   12MOL   H718 9100   6.274   5.557   4.620 -0.2400  0.3926  1.3378
   12MOL   H719 9101   6.174   5.575   4.377  2.0452 -1.0005  0.5192
   12MOL   H720 9102   6.099   5.719   4.457  0.4606  1.6611 -0.8159
   12MOL   H721 9103   6.397   5.671   4.451  0.5905  0.5697 -0.4900
   12MOL   H722 9104   6.311   5.816   4.510  0.2632  0.3998 -0.3469
   12MOL   H723 9105   6.212   5.844   4.282 -0.7581  0.3991  0.2903
   12MOL   C724 9106   6.395   5.813   4.223 -0.6288  0.5213  0.2221
   12MOL   O725 9107   6.496   5.742   4.230  0.8458  0.2520 -0.0893
   12MOL   C726 9108   6.374   5.891   4.092 -0.6378 -0.6133  0.2610
   12MOL   C727 9109   6.500   5.904   3.995 -0.3050 -0.8867 -0.4275
   12MOL   C728 9110   6.515   5.785   3.900  0.0009  0.4794 -0.5001
   12MOL   C729 9111   6.614   5.800   3.788  0.2688  1.0563  0.2506
   12MOL   C730 9112   6.617   5.681   3.690 -0.3065 -0.0967 -0.6647
   12MOL   O731 9113   6.543   5.584   3.706 -0.3436  0.0511  0.4164
   12MOL   N732 9114   6.716   5.693   3.591  0.3925 -0.6852 -0.1731
   12MOL   C733 9115   6.768   5.585   3.504 -0.7480  0.1850 -0.4605
   12MOL   C734 9116   6.672   5.507   3.422  0.0019 -0.0183 -0.2083
   12MOL   C735 9117   6.735   5.426   3.295  0.2851 -0.5272 -0.6487
   12MOL   C736 9118   6.673   5.291   3.253  0.4730  0.1181 -0.0926
   12MOL   C737 9119   6.750   5.211   3.143  0.2210 -0.5042 -0.5117
   12MOL   C738 9120   6.745   5.291   3.016  0.2091  0.4744  0.8913
   12MOL   N739 9121   6.799   5.213   2.901  0.1897 -0.2638 -0.2497
   12MOL   H740 9122   6.302   5.835   4.033 -0.9410  0.7010 -0.6300
   12MOL   H741 9123   6.326   5.987   4.107 -2.0971 -1.2116 -0.4577
   12MOL   H742 9124   6.488   5.996   3.939  0.3300 -1.6331 -1.7986
   12MOL   H743 9125   6.585   5.920   4.062  1.4134 -3.3918 -1.9333
   12MOL   H744 9126   6.421   5.748   3.860  0.7600 -0.0035 -1.8743
   12MOL   H745 9127   6.544   5.697   3.957 -0.7796  0.8210  0.4350
   12MOL   H746 9128   6.704   5.812   3.849 -1.3976  2.2127  2.5974
   12MOL   H747 9129   6.595   5.886   3.723  0.0791  0.1739 -0.8703
   12MOL   H748 9130   6.777   5.774   3.588  1.6103 -1.6441 -2.3291
   12MOL   H749 9131   6.838   5.631   3.434  0.3291  2.3775  1.9504
   12MOL   H750 9132   6.828   5.514   3.560 -2.1281 -0.7442 -0.1494
   12MOL   H751 9133   6.623   5.431   3.483 -0.4587 -1.0218 -1.8126
   12MOL   H752 9134   6.595   5.573   3.383  0.9328  1.2160  0.0268
   12MOL   H753 9135   6.839   5.405   3.319  0.5165 -0.8244 -1.8603
   12MOL   H754 9136   6.755   5.496   3.213 -0.7884  0.0826 -0.4042
   12MOL   H755 9137   6.675   5.224   3.339  0.6116 -0.8883 -0.8649
   12MOL   H756 9138   6.572   5.307   3.217  0.4062  0.5768  0.2968
   12MOL   H757 9139   6.852   5.201   3.179 -0.2227 -0.0203  0.9318
   12MOL   H758 9140   6.697   5.117   3.127 -0.3355 -0.0291 -1.4886
   12MOL   H759 9141   6.785   5.391   3.029 -2.0184  1.4159  0.6542
   12MOL   H760 9142   6.641   5.318   2.997  0.8408  2.3902  0.1328
   12MOL   H761 9143   6.793   5.270   2.818  1.6346  1.0459  0.5275
   12MOL   H762 9144   6.755   5.123   2.885 -2.8675  0.9825  0.7168
   13MOL     C1 9145   7.018   6.722   6.892 -0.0318 -0.3718  0.6353
   13MOL     O2 9146   6.991   6.709   6.776 -0.8369 -0.1495  0.3779
   13MOL     C3 9147   7.096   6.847   6.934 -0.2323 -0.0552  0.4674
   13MOL     C4 9148   7.165   6.922   6.819  0.0098 -0.2333 -0.1135
   13MOL     C5 9149   7.066   6.987   6.722  0.6894 -0.5437  0.2973
   13MOL     C6 9150   7.127   7.117   6.659  0.4835 -0.3385  0.6129
   13MOL     C7 9151   7.029   7.202   6.582  0.5276  0.0820  0.0132
   13MOL     O8 9152   6.927   7.162   6.530  0.3146  0.5772  0.8152
   13MOL     N9 9153   7.073   7.331   6.564 -0.2576  0.1675 -0.2800
   13MOL    C10 9154   7.010   7.430   6.480  0.2854  0.3465  1.0125
   13MOL    C11 9155   7.069   7.438   6.344 -0.1476  0.7211 -0.0133
   13MOL    C12 9156   7.213   7.480   6.348  0.1346 -0.1411 -0.3774
   13MOL    C13 9157   7.277   7.504   6.213 -0.9170  0.3121 -0.0492
   13MOL    C14 9158   7.283   7.392   6.111  0.4014 -0.5474 -1.4013
   13MOL    C15 9159   7.343   7.414   5.974 -0.5053  0.0767 -0.1841
   13MOL    N16 9160   7.279   7.528   5.902 -0.3039  0.0453 -0.1218
   13MOL    H17 9161   7.036   6.907   7.002 -0.2603  1.0161 -0.4829
   13MOL    H18 9162   7.162   6.796   7.003  0.1385 -0.6393 -0.3070
   13MOL    H19 9163   7.223   6.995   6.876  0.1273  1.1354 -1.9445
   13MOL    H20 9164   7.235   6.857   6.766 -0.6494  1.4837 -3.2163
   13MOL    H21 9165   6.976   7.012   6.778  0.1063  1.5732 -1.5112
   13MOL    H22 9166   7.043   6.916   6.642  0.7755 -0.0771 -0.1445
   13MOL    H23 9167   7.208   7.087   6.593 -0.1535 -1.9967  0.5805
   13MOL    H24 9168   7.173   7.175   6.740 -1.5189  0.7123  1.0308
   13MOL    H25 9169   7.172   7.340   6.582 -0.3190  2.4379 -0.9859
   13MOL    H26 9170   6.903   7.411   6.470 -0.0341  1.5540  1.9530
   13MOL    H27 9171   7.026   7.527   6.528 -2.7608  1.3344  0.1226
   13MOL    H28 9172   7.054   7.342   6.293 -0.8497  1.2694 -0.8448
   13MOL    H29 9173   7.021   7.514   6.284  2.1627  0.7824 -1.8618
   13MOL    H30 9174   7.269   7.402   6.402 -0.3223  0.7912  1.4738
   13MOL    H31 9175   7.219   7.571   6.407 -2.0479  0.5133 -1.1404
   13MOL    H32 9176   7.216   7.578   6.162 -0.1563  0.2074 -1.1438
   13MOL    H33 9177   7.381   7.535   6.226 -0.7128 -0.2850 -0.2449
   13MOL    H34 9178   7.322   7.306   6.165  0.7241 -0.2271 -1.1246
   13MOL    H35 9179   7.179   7.362   6.096 -0.4822 -0.4179  3.7067
   13MOL    H36 9180   7.328   7.316   5.928  0.4618  1.1693 -2.9420
   13MOL    H37 9181   7.451   7.429   5.975 -0.7555  2.0454 -0.9775
   13MOL    H38 9182   7.258   7.613   5.952 -0.1160  0.5713 -0.9283
   13MOL    H39 9183   6.997   6.651   6.972 -3.5437  2.2259  2.1582
   13MOL    C40 9184   7.225   7.524   5.778  0.3804 -0.9666  0.6056
   13MOL    O41 9185   7.238   7.427   5.708  0.4943  0.4335 -0.1385
   13MOL    C42 9186   7.133   7.643   5.736 -0.9769 -0.6848 -0.5375
   13MOL    C43 9187   7.153   7.674   5.584 -0.1911  0.4243 -0.3496
   13MOL    C44 9188   7.049   0.065   5.527  0.6013 -0.6475  0.1339
   13MOL    C45 9189   7.102   0.209   5.507 -0.3377  0.4934  0.1921
   13MOL    C46 9190   7.003   0.310   5.433 -0.3460 -0.3909  0.4886
   13MOL    O47 9191   6.887   0.272   5.407 -0.5798 -0.0936 -0.0531
   13MOL    N48 9192   7.052   0.420   5.382 -0.6762  0.4938  0.6461
   13MOL    C49 9193   6.982   0.520   5.307 -0.2778 -0.5563  0.7755
   13MOL    C50 9194   7.020   0.522   5.157  0.3452 -0.5008 -0.6362
   13MOL    C51 9195   7.157   0.571   5.125  0.3252  0.5784  0.3369
   13MOL    C52 9196   7.159   0.622   4.982 -0.2576  0.0670  0.6442
   13MOL    C53 9197   7.276   0.724   4.965  0.0155  0.1591  0.4444
   13MOL    C54 9198   7.273   0.806   4.836 -0.4291  0.9600 -0.0232
   13MOL    N55 9199   7.138   0.830   4.788 -0.6177  0.1573 -0.2541
   13MOL    H56 9200   7.032   7.627   5.773 -1.4418 -0.3914 -1.6586
   13MOL    H57 9201   7.164   0.029   5.781  1.1837 -1.7743  0.3318
   13MOL    H58 9202   7.254   7.700   5.552 -0.4396 -0.6784 -2.0953
   13MOL    H59 9203   7.139   7.577   5.536 -0.3605  0.9077 -1.3023
   13MOL    H60 9204   6.963   0.062   5.594  1.4818 -0.4593  1.2856
   13MOL    H61 9205   7.017   0.025   5.431 -0.2935 -0.8572  0.5147
   13MOL    H62 9206   7.189   0.207   5.442 -1.2156 -0.3282 -0.9737
   13MOL    H63 9207   7.137   0.250   5.602  0.0344 -0.6479  0.5496
   13MOL    H64 9208   7.146   0.436   5.416 -0.3902  0.0151  0.0982
   13MOL    H65 9209   6.874   0.507   5.312 -0.2580 -0.9019  0.3835
   13MOL    H66 9210   7.001   0.619   5.347 -0.3847 -0.2864  0.1672
   13MOL    H67 9211   7.008   0.424   5.110 -3.1201  0.1596 -1.2669
   13MOL    H68 9212   6.940   0.581   5.111  1.4418  1.7116  0.2243
   13MOL    H69 9213   7.234   0.497   5.144  0.8521  1.2117  0.6593
   13MOL    H70 9214   7.160   0.655   5.194  0.2850  0.1458  0.8682
   13MOL    H71 9215   7.161   0.542   4.907 -1.5748 -0.0300  0.6984
   13MOL    H72 9216   7.073   0.687   4.964  1.0600  1.9256  0.9472
   13MOL    H73 9217   7.278   0.800   5.043  2.2531 -0.0994  0.6896
   13MOL    H74 9218   7.373   0.673   4.962 -1.5892 -2.9261 -2.5370
   13MOL    H75 9219   7.334   0.765   4.757  0.5111 -1.6054  1.9619
   13MOL    H76 9220   7.330   0.898   4.850  3.1727 -0.9904 -1.5026
   13MOL    H77 9221   7.068   0.758   4.800 -0.3638  0.0892  0.9382
   13MOL    C78 9222   7.095   0.939   4.730  0.1938 -0.1751  0.5105
   13MOL    O79 9223   7.164   1.037   4.699  0.6001  0.0979 -0.3586
   13MOL    C80 9224   6.954   0.938   4.684  0.1653 -0.2274  0.8649
   13MOL    C81 9225   6.937   0.971   4.532  0.1232 -0.3581  0.0664
   13MOL    C82 9226   6.936   1.124   4.506  0.2106 -0.0225  0.0212
   13MOL    C83 9227   6.883   1.165   4.366  0.5688  0.3169  0.2291
   13MOL    C84 9228   6.973   1.104   4.255 -0.5306 -0.7047 -0.8781
   13MOL    O85 9229   7.093   1.141   4.243  0.4533  0.0433  0.3899
   13MOL    N86 9230   6.925   1.002   4.186 -0.4503 -0.2074  0.8519
   13MOL    C87 9231   7.006   0.913   4.096  0.4570 -0.2556 -0.4171
   13MOL    C88 9232   7.062   0.802   4.192 -0.1440 -0.6738 -0.1324
   13MOL    C89 9233   6.950   0.704   4.237  0.0506  0.1717 -0.1606
   13MOL    C90 9234   6.987   0.588   4.324  0.2123 -0.0314 -0.4337
   13MOL    C91 9235   7.048   0.624   4.465  0.1611 -0.4419  0.0828
   13MOL    C92 9236   7.061   0.507   4.556 -0.4024  0.4199 -0.7315
   13MOL    N93 9237   6.933   0.455   4.601 -0.5689  0.2966 -0.1005
   13MOL    H94 9238   6.896   0.846   4.693 -1.5814  0.4379 -2.6101
   13MOL    H95 9239   6.903   1.016   4.740  0.1705  1.6782 -1.7396
   13MOL    H96 9240   7.021   0.922   4.483  0.0911 -0.0877 -0.2610
   13MOL    H97 9241   6.859   0.924   4.472 -0.8626  3.6555 -2.0143
   13MOL    H98 9242   7.042   1.148   4.510 -0.1744  1.3303  2.8180
   13MOL    H99 9243   6.877   1.188   4.572  0.6827  0.9741 -0.5101
   13MOL   H100 9244   6.878   1.273   4.351 -0.5151  0.0991 -1.1275
   13MOL   H101 9245   6.785   1.118   4.353 -0.0616  1.5395  0.4995
   13MOL   H102 9246   6.833   0.963   4.203 -0.7249 -0.1526 -0.5008
   13MOL   H103 9247   6.945   0.878   4.013 -0.1527 -0.1871  0.0071
   13MOL   H104 9248   7.087   0.967   4.046  0.2718 -1.0737 -1.6375
   13MOL   H105 9249   7.141   0.751   4.138  0.5986  0.3250 -0.0215
   13MOL   H106 9250   7.111   0.840   4.282 -0.8678  1.5929 -0.6650
   13MOL   H107 9251   6.897   0.670   4.148  1.3137 -1.9288 -0.1384
   13MOL   H108 9252   6.882   0.765   4.297 -0.4546 -1.0430  0.5145
   13MOL   H109 9253   6.897   0.527   4.330  0.0200  0.3664  0.8402
   13MOL   H110 9254   7.068   0.541   4.268  0.8898  1.7348 -0.9631
   13MOL   H111 9255   7.140   0.683   4.471 -0.0063 -0.2758  1.2168
   13MOL   H112 9256   6.976   0.689   4.515  1.1363  0.6488  0.0893
   13MOL   H113 9257   7.121   0.536   4.642  0.7346  1.4478 -1.8357
   13MOL   H114 9258   7.119   0.432   4.500 -0.5063  1.2247 -1.9494
   13MOL   H115 9259   6.884   0.384   4.550 -1.4876  1.4990 -0.9105
   13MOL   C116 9260   6.869   0.518   4.701 -0.4555 -0.4127  0.6038
   13MOL   O117 9261   6.921   0.610   4.771 -0.0719  0.4122  0.7414
   13MOL   C118 9262   6.730   0.466   4.740 -0.4051 -1.0245  0.4819
   13MOL   C119 9263   6.713   0.418   4.881 -0.5331  0.6876 -0.2702
   13MOL   C120 9264   6.787   0.290   4.916  0.1650  0.6099 -0.3329
   13MOL   C121 9265   6.775   0.243   5.062  0.6767  0.3429  0.0339
   13MOL   C122 9266   6.636   0.233   5.117  0.0734  0.8223  0.2485
   13MOL   O123 9267   6.539   0.219   5.040 -0.1969 -0.5626  0.4313
   13MOL   N124 9268   6.630   0.249   5.248 -0.3910  0.2498 -0.1361
   13MOL   C125 9269   6.513   0.240   5.334  0.0947 -0.3668  0.3671
   13MOL   C126 9270   6.542   0.291   5.479 -0.1724  0.7587 -0.2212
   13MOL   C127 9271   6.409   0.288   5.558 -0.4820  0.4592  0.1252
   13MOL   C128 9272   6.418   0.375   5.689  0.2680 -0.0293  0.0978
   13MOL   C129 9273   6.285   0.356   5.772 -0.1074  0.8855 -0.4389
   13MOL   C130 9274   6.291   0.434   5.903  0.0759  0.1727  0.2955
   13MOL   N131 9275   6.190   0.390   5.998 -1.0774 -0.0976 -1.0742
   13MOL   H132 9276   6.669   0.556   4.736  1.2800  0.2063  1.7368
   13MOL   H133 9277   6.692   0.396   4.665 -0.2034 -0.1025 -0.4980
   13MOL   H134 9278   6.759   0.496   4.942 -0.0930  1.3328 -1.4152
   13MOL   H135 9279   6.608   0.432   4.908 -0.4237  1.8413 -0.4014
   13MOL   H136 9280   6.895   0.302   4.909  0.1720  1.9927  1.5488
   13MOL   H137 9281   6.756   0.212   4.847 -2.2384  0.9334  0.3318
   13MOL   H138 9282   6.839   0.311   5.117  1.3392 -0.7253  0.6032
   13MOL   H139 9283   6.825   0.146   5.066  0.6086  0.3262  0.4345
   13MOL   H140 9284   6.716   0.275   5.296  0.3708  1.4656 -2.0833
   13MOL   H141 9285   6.444   0.312   5.291  0.6626  0.8938  1.5099
   13MOL   H142 9286   6.461   0.144   5.340  2.2320 -1.6909 -1.3004
   13MOL   H143 9287   6.629   0.235   5.514  0.6976  1.5275 -1.1294
   13MOL   H144 9288   6.584   0.391   5.472  1.5392  0.1246  0.6943
   13MOL   H145 9289   6.394   0.184   5.585  2.9818 -0.2111 -0.3391
   13MOL   H146 9290   6.321   0.315   5.499 -0.9247  0.0159  0.5845
   13MOL   H147 9291   6.501   0.338   5.748 -0.6419  0.4432  1.7059
   13MOL   H148 9292   6.424   0.479   5.656  0.3983 -0.4287 -1.1587
   13MOL   H149 9293   6.204   0.401   5.715 -1.3450  0.9982  1.3995
   13MOL   H150 9294   6.272   0.250   5.789 -1.0545  0.7476 -1.8947
   13MOL   H151 9295   6.293   0.540   5.880 -1.5397 -0.0010 -0.7577
   13MOL   H152 9296   6.387   0.418   5.951  0.5410 -0.9185 -0.9485
   13MOL   H153 9297   6.097   0.422   5.977 -0.6425  2.5469  0.7417
   13MOL   C154 9298   6.210   0.315   6.108 -0.5857  0.8055  1.0619
   13MOL   O155 9299   6.317   0.279   6.151 -0.5464  0.2794 -0.7109
   13MOL   C156 9300   6.083   0.257   6.172  0.7309 -0.4083  0.3739
   13MOL   C157 9301   6.022   0.321   6.301 -0.3665  0.2964 -0.1742
   13MOL   C158 9302   6.090   0.277   6.433  0.7492  0.0896 -0.1836
   13MOL   C159 9303   6.052   0.344   6.564  0.2470  0.2331  0.2715
   13MOL   C160 9304   6.090   0.492   6.578 -0.4494  1.0962  0.0059
   13MOL   O161 9305   6.158   0.546   6.491 -0.1351  0.6169 -0.4870
   13MOL   N162 9306   6.036   0.562   6.683 -0.1125  0.3532  0.8845
   13MOL   C163 9307   6.040   0.701   6.700  1.2976  0.4388  0.3062
   13MOL   C164 9308   5.900   0.754   6.705 -0.9766  0.0083  0.3658
   13MOL   C165 9309   5.907   0.903   6.718  0.1479 -0.3998 -0.3603
   13MOL   C166 9310   5.771   0.979   6.716  0.6564  0.4342  0.1124
   13MOL   C167 9311   5.701   0.981   6.578 -1.0175  0.1740  0.2180
   13MOL   C168 9312   5.565   1.044   6.586 -0.3711 -0.3765  0.1898
   13MOL   N169 9313   5.474   1.005   6.471  0.1768 -0.6525 -0.5352
   13MOL   H170 9314   5.995   0.268   6.108  1.9054 -2.1455 -1.5721
   13MOL   H171 9315   6.105   0.151   6.181 -0.1324 -0.5525  0.8304
   13MOL   H172 9316   6.024   0.429   6.284  3.6938  0.2903 -0.0874
   13MOL   H173 9317   5.913   0.312   6.295 -0.3722 -0.5498  1.1113
   13MOL   H174 9318   6.197   0.296   6.431  1.2253 -2.5937 -3.0982
   13MOL   H175 9319   6.085   0.169   6.450  1.4549 -0.0222 -0.7099
   13MOL   H176 9320   6.101   0.293   6.646  2.9497  2.3437  0.0648
   13MOL   H177 9321   5.946   0.334   6.585  0.0448 -0.8764 -1.1840
   13MOL   H178 9322   5.992   0.513   6.760  0.1805 -2.8999 -0.8881
   13MOL   H179 9323   6.092   0.718   6.794  2.0016  1.4432 -0.2568
   13MOL   H180 9324   6.091   0.752   6.618 -0.1883  0.2867 -0.7338
   13MOL   H181 9325   5.839   0.734   6.617 -0.9800  2.0132 -0.1189
   13MOL   H182 9326   5.857   0.708   6.794 -0.7662 -1.5189 -0.3201
   13MOL   H183 9327   5.963   0.957   6.642 -1.5566 -0.6816 -1.8573
   13MOL   H184 9328   5.952   0.920   6.816  1.3904 -3.8278 -0.3009
   13MOL   H185 9329   5.718   0.931   6.798  0.0638 -0.7913 -0.9773
   13MOL   H186 9330   5.789   1.081   6.750  2.8799  0.4853 -1.1253
   13MOL   H187 9331   5.765   1.038   6.510 -0.5678  0.3285  0.7696
   13MOL   H188 9332   5.686   0.883   6.532 -0.1533  0.4673 -0.7170
   13MOL   H189 9333   5.569   1.152   6.603  0.4721 -0.2566 -0.7062
   13MOL   H190 9334   5.526   1.009   6.681  0.4680 -1.6835  0.0685
   13MOL   H191 9335   5.492   1.046   6.381 -2.3709  1.1850 -0.2509
   13MOL   C192 9336   5.375   0.921   6.473 -0.3452 -0.3662 -0.5683
   13MOL   O193 9337   5.336   0.883   6.583 -0.3399 -0.2488  0.2121
   13MOL   C194 9338   5.321   0.864   6.342  0.1435 -0.4770  0.0239
   13MOL   C195 9339   5.345   0.714   6.329 -0.4437 -0.1562 -0.0919
   13MOL   C196 9340   5.266   0.646   6.223 -0.1204  0.3366 -0.3892
   13MOL   C197 9341   5.276   0.491   6.220  0.1141  0.5247 -0.4168
   13MOL   C198 9342   5.303   0.429   6.354  0.6684  0.3347  0.0698
   13MOL   O199 9343   5.215   0.411   6.437 -0.1290  0.0340 -0.4261
   13MOL   N200 9344   5.431   0.396   6.372 -0.9396 -0.4765  0.0033
   13MOL   C201 9345   5.479   0.347   6.499 -0.3061 -0.0729  0.1991
   13MOL   C202 9346   5.599   0.249   6.482 -0.0388 -1.2727  0.7764
   13MOL   C203 9347   5.636   0.178   6.610  0.3665 -0.2719  0.1208
   13MOL   C204 9348   5.687   0.038   6.571  0.1040 -0.3025 -0.2908
   13MOL   C205 9349   5.769   7.682   6.684  0.0331  0.1343  0.4588
   13MOL   C206 9350   5.803   7.535   6.650 -0.0568  0.0359  0.0329
   13MOL   N207 9351   5.890   7.540   6.530  0.4155  0.3594 -0.3858
   13MOL   H208 9352   5.213   0.883   6.340  0.3099  0.7006  1.2147
   13MOL   H209 9353   5.359   0.922   6.258 -1.1965 -0.7930 -0.8296
   13MOL   H210 9354   5.452   0.703   6.312 -1.0218 -1.5022 -3.1472
   13MOL   H211 9355   5.334   0.673   6.430 -1.6902 -0.9640 -0.5436
   13MOL   H212 9356   5.307   0.687   6.131  2.9134  0.8780  1.1387
   13MOL   H213 9357   5.166   0.683   6.244 -0.1654  0.1798 -0.3285
   13MOL   H214 9358   5.344   0.448   6.146  0.8541 -1.0041  1.1117
   13MOL   H215 9359   5.177   0.459   6.189  0.8674 -2.6746  0.2376
   13MOL   H216 9360   5.494   0.406   6.293 -0.5399 -1.6495  0.1668
   13MOL   H217 9361   5.520   0.425   6.563  2.7384 -0.2231 -1.4958
   13MOL   H218 9362   5.399   0.299   6.555  0.0313  0.7872  1.4245
   13MOL   H219 9363   5.575   0.170   6.411  0.4043  0.6125 -1.5083
   13MOL   H220 9364   5.690   0.291   6.439 -0.8632  2.3772  2.4215
   13MOL   H221 9365   5.551   0.183   6.678 -0.4275  1.4385 -0.9581
   13MOL   H222 9366   5.718   0.235   6.653 -0.5611 -0.0203  1.5912
   13MOL   H223 9367   5.599   7.690   6.539  0.7583 -0.3562 -2.0617
   13MOL   H224 9368   5.762   0.047   6.492 -0.3234 -0.2332 -0.6865
   13MOL   H225 9369   5.863   0.029   6.690 -0.2739  0.6013  1.0896
   13MOL   H226 9370   5.722   7.686   6.783  0.6092  3.4028  0.6468
   13MOL   H227 9371   5.712   7.479   6.627 -0.4126  0.3044  0.7714
   13MOL   H228 9372   5.845   7.480   6.734 -0.6572 -1.2812 -0.5120
   13MOL   H229 9373   5.848   7.568   6.443  0.2355 -0.4548 -0.5692
   13MOL   C230 9374   6.020   7.514   6.525 -0.3951 -0.6212  0.3250
   13MOL   O231 9375   6.088   7.477   6.621  0.2534 -0.0151  0.1089
   13MOL   C232 9376   6.080   7.540   6.390  0.7112  0.1994 -0.0333
   13MOL   C233 9377   6.235   7.543   6.393  0.8208  0.0909  0.1406
   13MOL   C234 9378   6.303   7.534   6.255  0.3644  0.3002 -0.5091
   13MOL   C235 9379   6.303   7.664   6.175  0.6459 -0.0305 -0.3705
   13MOL   C236 9380   6.385   7.650   6.040 -0.7218 -0.3199 -1.0983
   13MOL   O237 9381   6.412   7.543   5.991  0.0916 -0.0774  0.6613
   13MOL   N238 9382   6.434   0.060   5.991 -0.3712  0.0096  0.0242
   13MOL   C239 9383   6.526   0.070   5.877  0.4157 -0.0052  0.2661
   13MOL   C240 9384   6.660   0.112   5.924 -0.0930 -0.4086 -0.3034
   13MOL   C241 9385   6.748   0.163   5.802  0.3363  0.0388 -0.0581
   13MOL   C242 9386   6.869   0.248   5.846  0.6504 -0.6239  1.5207
   13MOL   C243 9387   6.950   0.177   5.954 -0.4446 -0.8947  0.1156
   13MOL   C244 9388   7.076   0.264   5.985 -0.4052  0.8488 -0.1522
   13MOL   N245 9389   7.148   0.216   6.099 -0.4036 -0.1885 -1.0415
   13MOL   H246 9390   6.041   7.466   6.320 -1.0746  1.1831 -0.1134
   13MOL   H247 9391   6.046   7.639   6.360  1.6269  0.2429 -0.9567
   13MOL   H248 9392   6.264   7.642   6.428  0.4817  0.0319  0.5882
   13MOL   H249 9393   6.271   7.471   6.466  1.7854 -0.8939 -1.2638
   13MOL   H250 9394   6.268   7.441   6.209 -1.0048  0.6272 -0.1737
   13MOL   H251 9395   6.409   7.519   6.272  0.7499  1.8056 -1.5850
   13MOL   H252 9396   6.334   0.044   6.231  0.1268 -0.5448  0.7313
   13MOL   H253 9397   6.200   7.683   6.146 -0.0224 -2.4307  0.2805
   13MOL   H254 9398   6.411   0.144   6.042  0.8575 -0.3087  1.1139
   13MOL   H255 9399   6.544   7.685   5.824  1.7296 -0.3560  1.3258
   13MOL   H256 9400   6.490   0.141   5.802  0.6431  2.8437  2.7434
   13MOL   H257 9401   6.654   0.196   5.994 -4.3527 -0.3960 -0.5383
   13MOL   H258 9402   6.707   0.032   5.981 -2.4393 -1.5370  0.1137
   13MOL   H259 9403   6.676   0.213   5.737  0.7824  1.6834  0.7160
   13MOL   H260 9404   6.789   0.083   5.740 -1.4891 -1.0928  0.1653
   13MOL   H261 9405   6.940   0.268   5.765 -0.7828 -0.1398  0.3603
   13MOL   H262 9406   6.840   0.347   5.880  1.5076 -0.2024  1.0558
   13MOL   H263 9407   6.889   0.165   6.043  1.3826 -2.0198  1.2380
   13MOL   H264 9408   6.981   0.078   5.920 -0.7617 -0.3976 -1.7097
   13MOL   H265 9409   7.035   0.358   6.023  1.3505  2.2808 -1.6938
   13MOL   H266 9410   7.137   0.278   5.896 -1.3138 -1.1061 -1.1060
   13MOL   H267 9411   7.115   0.261   6.183 -0.8536  1.5608 -2.1120
   13MOL   C268 9412   7.260   0.148   6.103  0.1316  0.4197  0.2182
   13MOL   O269 9413   7.316   0.096   6.004 -0.1127  0.7868  0.3356
   13MOL   C270 9414   7.331   0.142   6.243 -0.6700 -0.5723 -0.0993
   13MOL   C271 9415   7.483   0.154   6.238 -0.6329 -0.5386 -0.3273
   13MOL   C272 9416   7.541   0.130   6.385  0.7924 -0.1284  0.3053
   13MOL   C273 9417   7.695   0.130   6.391  0.5756  0.2693  0.3784
   13MOL   C274 9418   0.049   0.252   6.326  0.0418 -0.0256 -0.4841
   13MOL   O275 9419   0.024   0.359   6.377  0.0947  0.3019 -0.0651
   13MOL   N276 9420   0.111   0.249   6.208  0.7096 -0.1304 -0.4576
   13MOL   C277 9421   0.155   0.364   6.132 -0.1537  0.5945  0.1873
   13MOL   C278 9422   0.057   0.403   6.015  0.6779  0.2836 -0.9457
   13MOL   C279 9423   0.099   0.531   5.931  0.0037 -0.3480 -0.2114
   13MOL   C280 9424   0.007   0.562   5.813 -0.1493 -0.0094 -0.9585
   13MOL   C281 9425   0.031   0.706   5.775 -0.1348 -0.1137 -0.1046
   13MOL   C282 9426   7.683   0.736   5.637 -0.4523  0.4198 -0.5334
   13MOL   N283 9427   7.667   0.880   5.616 -0.1296 -0.5892  0.1570
   13MOL   H284 9428   7.292   0.220   6.308  1.5580 -0.9080  1.6651
   13MOL   H285 9429   7.305   0.055   6.304  1.2488 -1.1963 -0.1450
   13MOL   H286 9430   7.526   0.079   6.173  3.8108  0.7738  0.9053
   13MOL   H287 9431   7.519   0.251   6.203 -1.3564 -0.2831 -0.3650
   13MOL   H288 9432   7.510   0.035   6.429 -1.8937 -0.6081 -2.3991
   13MOL   H289 9433   7.509   0.216   6.445 -0.2266 -0.1537 -0.1818
   13MOL   H290 9434   0.029   0.044   6.339 -2.2709 -0.3435 -0.9699
   13MOL   H291 9435   0.024   0.122   6.494 -0.7277 -3.0096  0.6511
   13MOL   H292 9436   0.110   0.161   6.157 -1.0757  1.1051 -2.6535
   13MOL   H293 9437   0.165   0.451   6.197  1.1638 -0.1230  0.9528
   13MOL   H294 9438   0.251   0.344   6.085  0.7197 -1.0004  2.5941
   13MOL   H295 9439   0.050   0.316   5.951  1.0663  0.2685 -0.9659
   13MOL   H296 9440   7.670   0.425   6.064 -0.2860 -0.3317 -2.5228
   13MOL   H297 9441   0.201   0.527   5.894  0.3349 -1.7689  0.8554
   13MOL   H298 9442   0.105   0.614   6.001 -0.5611 -1.3921  1.0773
   13MOL   H299 9443   0.031   0.497   5.729  1.5365  1.8395 -1.9433
   13MOL   H300 9444   7.612   0.552   5.847  0.1631 -0.5261 -0.1319
   13MOL   H301 9445   7.705   0.770   5.856  0.0041 -1.5758  1.1278
   13MOL   H302 9446   0.138   0.721   5.764 -0.3793  1.0784 -0.9115
   13MOL   H303 9447   7.585   0.691   5.619  0.2039 -1.6495  0.9131
   13MOL   H304 9448   0.048   0.700   5.565 -1.9844 -1.7761 -1.0299
   13MOL   H305 9449   0.025   0.920   5.552  1.6246  0.8077  2.7706
   13MOL   C306 9450   7.543   0.937   5.641 -1.1956  0.2023 -0.0637
   13MOL   O307 9451   7.458   0.880   5.713 -0.4823  0.0727 -0.0845
   13MOL   C308 9452   7.518   1.075   5.579 -0.4287 -0.6584 -0.3262
   13MOL   C309 9453   7.393   1.082   5.495 -0.8182  0.3255 -0.4750
   13MOL   C310 9454   7.266   1.080   5.576 -0.0130  0.0669  1.0216
   13MOL   C311 9455   7.139   1.119   5.491 -0.3180 -0.4578 -0.8312
   13MOL   C312 9456   7.105   1.019   5.378 -0.1548 -0.0755  0.2050
   13MOL   O313 9457   7.135   0.896   5.387 -0.3579 -0.9873  0.1350
   13MOL   N314 9458   7.042   1.070   5.267 -0.3959  0.5952  0.1196
   13MOL   C315 9459   6.993   0.979   5.156  0.0943 -0.6182  0.1578
   13MOL   C316 9460   6.857   0.912   5.200  0.1455  0.3166  0.0803
   13MOL   C317 9461   6.789   0.832   5.090 -0.6014  0.1434 -0.6710
   13MOL   C318 9462   6.704   0.904   4.982 -0.2129  0.1759  0.3603
   13MOL   C319 9463   6.643   0.808   4.877  0.4979 -0.1778 -0.4986
   13MOL   C320 9464   6.564   0.886   4.761  0.0992 -0.0517  0.0638
   13MOL   N321 9465   6.468   0.980   4.807  0.1837 -0.0731 -0.3693
   13MOL   H322 9466   7.518   1.147   5.661  0.3260 -0.3209 -0.6219
   13MOL   H323 9467   7.598   1.104   5.511 -0.6120  1.3153  0.2797
   13MOL   H324 9468   7.392   1.175   5.437 -0.0892 -0.1733 -1.2960
   13MOL   H325 9469   7.400   1.003   5.420  1.8214 -1.9803  2.0962
   13MOL   H326 9470   7.266   1.151   5.658  0.5403  2.9689 -1.4286
   13MOL   H327 9471   7.260   0.980   5.620 -0.9699  0.4489  1.8003
   13MOL   H328 9472   7.146   1.209   5.430  2.1427 -0.3178 -0.3793
   13MOL   H329 9473   7.049   1.138   5.549  1.1245  0.4206  1.1345
   13MOL   H330 9474   7.016   1.167   5.282  2.5425  1.8395 -2.3655
   13MOL   H331 9475   6.997   1.036   5.063 -2.2367 -1.2923 -0.3647
   13MOL   H332 9476   7.059   0.897   5.128 -3.8837 -3.5798 -0.8193
   13MOL   H333 9477   6.867   0.855   5.293  0.4359 -1.1059 -0.8010
   13MOL   H334 9478   6.791   0.992   5.233  0.7962  1.4938 -1.4483
   13MOL   H335 9479   6.738   0.748   5.138  0.2426 -0.2137 -0.3928
   13MOL   H336 9480   6.866   0.781   5.033  0.4638  0.1745  0.7285
   13MOL   H337 9481   6.627   0.959   5.038 -1.8260 -2.5608  0.8925
   13MOL   H338 9482   6.768   0.972   4.926  0.2104 -1.0725 -0.6938
   13MOL   H339 9483   6.727   0.750   4.838  1.4242  0.4317  0.5634
   13MOL   H340 9484   6.579   0.738   4.931  0.4729  0.1578 -0.0947
   13MOL   H341 9485   6.507   0.810   4.707 -1.9353  0.2098  1.7596
   13MOL   H342 9486   6.632   0.943   4.698  1.1797 -0.6003  0.7327
   13MOL   H343 9487   6.487   1.077   4.787  0.7262 -0.4252 -1.5592
   13MOL   C344 9488   6.352   0.956   4.873 -0.3133 -0.3751  0.2230
   13MOL   O345 9489   6.300   0.845   4.874  0.8583 -0.0720  0.2262
   13MOL   C346 9490   6.290   1.080   4.942  0.1791 -0.6017  0.2969
   13MOL   C347 9491   6.369   1.129   5.067  0.2945  0.2079  0.6240
   13MOL   C348 9492   6.320   1.261   5.110 -0.4746 -0.5339  0.3655
   13MOL   C349 9493   6.361   1.381   5.035 -0.9940 -0.1396 -0.4075
   13MOL   C350 9494   6.324   1.523   5.090  0.1583  0.3168 -0.0603
   13MOL   O351 9495   6.369   1.559   5.198 -0.3560 -0.0303 -0.6191
   13MOL   N352 9496   6.259   1.601   5.001  0.1367  0.8278  0.4830
   13MOL   C353 9497   6.241   1.745   5.019 -0.6635 -0.6140  0.6442
   13MOL   C354 9498   6.174   1.814   4.899  0.2867 -0.5222 -0.5810
   13MOL   C355 9499   6.249   1.798   4.767  0.3516 -1.0000 -0.2848
   13MOL   C356 9500   6.168   1.830   4.639  0.0279  0.7421  0.6940
   13MOL   C357 9501   6.260   1.795   4.517 -0.3398 -0.2992  0.3936
   13MOL   C358 9502   6.304   1.649   4.499  1.2152  0.6991 -0.2103
   13MOL   N359 9503   6.185   1.558   4.484 -0.1882 -0.2836 -0.0991
   13MOL   H360 9504   6.272   1.153   4.863  1.0269 -2.2971 -1.5281
   13MOL   H361 9505   6.190   1.053   4.977 -0.6030  1.6566 -0.0935
   13MOL   H362 9506   6.365   1.059   5.150  2.4018  0.0068  0.5863
   13MOL   H363 9507   6.477   1.135   5.052  0.2164 -1.3142 -0.6260
   13MOL   H364 9508   6.361   1.286   5.208 -0.6520 -0.0474  0.3156
   13MOL   H365 9509   6.212   1.258   5.128 -0.6986  0.6225 -0.7121
   13MOL   H366 9510   6.330   1.389   4.931 -1.0242 -0.8500 -0.4550
   13MOL   H367 9511   6.469   1.376   5.025 -1.1283 -1.8144 -1.3159
   13MOL   H368 9512   6.227   1.557   4.916  1.5033  0.8483 -0.0573
   13MOL   H369 9513   6.184   1.767   5.109 -0.4491  1.6987  0.2237
   13MOL   H370 9514   6.337   1.795   5.030 -1.2933  0.9783 -0.9571
   13MOL   H371 9515   6.083   1.756   4.886 -0.4179  0.3861  0.2444
   13MOL   H372 9516   6.152   1.916   4.929 -0.1562 -0.1632 -2.0813
   13MOL   H373 9517   6.284   1.694   4.761  1.2048 -0.6649 -1.3135
   13MOL   H374 9518   6.335   1.865   4.763 -1.5952  1.5408 -0.8702
   13MOL   H375 9519   6.080   1.768   4.627  1.6578 -1.6812  0.9486
   13MOL   H376 9520   6.138   1.935   4.630 -1.4753  0.2844  0.3126
   13MOL   H377 9521   6.220   1.836   4.424 -1.4681  1.3901  1.5999
   13MOL   H378 9522   6.353   1.852   4.527 -0.2032 -0.5876  0.7758
   13MOL   H379 9523   6.357   1.612   4.587  1.4610 -0.6315 -0.8991
   13MOL   H380 9524   6.373   1.643   4.414  2.4863 -0.1348  0.8486
   13MOL   H381 9525   6.139   1.557   4.394  1.9824  2.9594 -1.3629
   13MOL   C382 9526   6.163   1.455   4.561 -0.3852 -0.2419 -0.3658
   13MOL   O383 9527   6.209   1.440   4.673 -0.0629  0.5817 -0.3505
   13MOL   C384 9528   6.084   1.334   4.496  0.3704  0.4862  0.1810
   13MOL   C385 9529   5.981   1.283   4.602 -0.7863  0.1598 -0.3480
   13MOL   C386 9530   5.879   1.395   4.646  0.7836  0.5531 -0.1003
   13MOL   C387 9531   5.753   1.343   4.733  0.2478 -0.2726  0.4839
   13MOL   C388 9532   5.663   1.457   4.779 -0.6560 -0.6644 -0.8387
   13MOL   O389 9533   5.698   1.578   4.753 -0.5826  0.6202 -0.8224
   13MOL   N390 9534   5.544   1.432   4.829  0.0049 -0.3344  0.6177
   13MOL   C391 9535   5.443   1.533   4.863 -0.5302 -0.3295  0.2424
   13MOL   C392 9536   5.320   1.476   4.926 -0.7683  0.0526 -0.1715
   13MOL   C393 9537   5.200   1.575   4.937 -0.1527 -0.1886 -0.3396
   13MOL   C394 9538   5.224   1.684   5.045  0.1506 -0.5402  0.3489
   13MOL   C395 9539   5.125   1.801   5.016 -0.1568  0.7656 -0.7210
   13MOL   C396 9540   4.975   1.768   5.022  0.4214  0.1659  0.8460
   13MOL   N397 9541   4.933   1.727   5.155 -0.8880 -0.2907  0.5309
   13MOL   H398 9542   6.032   1.351   4.401 -1.5051  0.2107  1.1346
   13MOL   H399 9543   6.152   1.253   4.468  0.6788  0.6275  0.5241
   13MOL   H400 9544   5.927   1.195   4.565  0.4011 -1.3771  1.4727
   13MOL   H401 9545   6.049   1.255   4.682  0.6886  1.2759 -1.1928
   13MOL   H402 9546   5.835   1.450   4.563  1.3493 -0.9111 -1.4048
   13MOL   H403 9547   5.929   1.480   4.692  0.4595  0.7568 -0.1250
   13MOL   H404 9548   5.793   1.301   4.825  1.8010  0.7029  0.2662
   13MOL   H405 9549   5.705   1.259   4.683  0.0986  0.4314 -0.5578
   13MOL   H406 9550   5.520   1.335   4.846 -1.1277 -0.1445  0.1630
   13MOL   H407 9551   5.489   1.583   4.948  0.5026 -0.0229 -0.4905
   13MOL   H408 9552   5.420   1.593   4.775 -0.4989 -0.3411  0.2262
   13MOL   H409 9553   5.285   1.398   4.859 -0.2106  0.3903 -0.8526
   13MOL   H410 9554   5.338   1.434   5.025  0.2737  0.6043 -0.1271
   13MOL   H411 9555   5.108   1.517   4.952  0.3590 -1.3170 -1.5297
   13MOL   H412 9556   5.191   1.618   4.838 -0.0763 -0.5792 -0.5166
   13MOL   H413 9557   5.208   1.640   5.143 -0.3165 -0.3637  0.3536
   13MOL   H414 9558   5.323   1.727   5.051  0.3224 -0.8511 -0.1466
   13MOL   H415 9559   5.148   1.879   5.089 -0.0761 -1.4049  1.6306
   13MOL   H416 9560   5.141   1.836   4.914 -0.6887  0.5355 -0.8840
   13MOL   H417 9561   4.941   1.694   4.949 -1.7912  1.3404  0.6653
   13MOL   H418 9562   4.924   1.857   4.986 -0.5564 -0.1685  1.3956
   13MOL   H419 9563   4.934   1.799   5.226 -1.5596 -1.8364  2.1396
   13MOL   C420 9564   4.904   1.601   5.195 -0.1731  0.1160 -0.7487
   13MOL   O421 9565   4.912   1.500   5.126  0.1238  0.2372 -0.2838
   13MOL   C422 9566   4.868   1.583   5.347  0.4626  0.2798  0.0998
   13MOL   C423 9567   4.994   1.547   5.429  0.0201  0.6990 -0.0447
   13MOL   C424 9568   5.063   1.410   5.396 -0.0185 -0.8382  0.1791
   13MOL   C425 9569   5.206   1.388   5.459  0.7859 -0.6896 -0.0659
   13MOL   C426 9570   5.313   1.447   5.372  0.2184  0.0546  0.2636
   13MOL   O427 9571   5.365   1.379   5.282  0.5282 -0.1064 -0.1503
   13MOL   N428 9572   5.349   1.571   5.406  0.1608 -0.6055 -0.5183
   13MOL   C429 9573   5.436   1.659   5.324 -0.1709 -0.0913 -0.0502
   13MOL   C430 9574   5.385   1.809   5.333  0.4968 -0.0485  0.3306
   13MOL   C431 9575   5.477   1.899   5.254  0.3289 -0.0193 -0.4150
   13MOL   C432 9576   5.434   2.047   5.244  0.2358  0.6412  0.2196
   13MOL   C433 9577   5.374   2.113   5.367 -0.2385  0.3501  0.0704
   13MOL   C434 9578   5.475   2.117   5.486  0.4536  0.4950 -0.2794
   13MOL   N435 9579   5.596   2.193   5.450  0.6153 -0.1502 -0.0247
   13MOL   H436 9580   4.830   1.674   5.392  2.5303  0.5535  1.3340
   13MOL   H437 9581   4.793   1.504   5.353  0.6096  0.1690  0.4550
   13MOL   H438 9582   5.052   1.639   5.423  0.9624  0.2022  1.2947
   13MOL   H439 9583   4.969   1.548   5.535  1.0684 -2.0168  0.2803
   13MOL   H440 9584   5.075   1.400   5.288  1.5168  1.6828  0.0710
   13MOL   H441 9585   5.001   1.324   5.423 -2.9365  1.3005  0.5732
   13MOL   H442 9586   5.231   1.283   5.470  0.7306 -0.8174 -1.1244
   13MOL   H443 9587   5.208   1.439   5.556  1.8221 -1.7529  0.4801
   13MOL   H444 9588   5.310   1.611   5.490  0.4394  1.5724 -1.3874
   13MOL   H445 9589   5.543   1.660   5.348 -0.6499 -0.1934  2.1034
   13MOL   H446 9590   5.440   1.624   5.220 -0.3594 -0.2259 -0.0127
   13MOL   H447 9591   5.281   1.813   5.300  1.2679  1.5119 -2.0701
   13MOL   H448 9592   5.381   1.839   5.438  1.2286  2.1778 -0.2506
   13MOL   H449 9593   5.490   1.862   5.153  3.9457  0.5362 -0.2064
   13MOL   H450 9594   5.574   1.901   5.303 -0.3554 -1.9158  1.0679
   13MOL   H451 9595   5.502   2.114   5.191 -1.9611  3.6145  1.0845
   13MOL   H452 9596   5.356   2.047   5.168  0.5845 -1.8218 -0.1950
   13MOL   H453 9597   5.358   2.216   5.335  2.4792  1.1762  1.2366
   13MOL   H454 9598   5.277   2.070   5.391  0.0363 -0.6491 -0.5924
   13MOL   H455 9599   5.508   2.020   5.523 -0.9455 -0.3426 -1.1739
   13MOL   H456 9600   5.438   2.166   5.576  2.2845  1.7183 -0.1602
   13MOL   H457 9601   5.670   2.132   5.419  1.8040  1.4520 -0.3690
   13MOL   C458 9602   5.604   2.326   5.453  0.1048 -0.9711 -0.3160
   13MOL   O459 9603   5.513   2.399   5.490 -0.0272 -0.1134 -0.3956
   13MOL   C460 9604   5.746   2.375   5.420 -0.2074  0.3286  0.5067
   13MOL   C461 9605   5.751   2.526   5.410  0.1288 -0.2481 -0.5738
   13MOL   C462 9606   5.894   2.577   5.381  0.1928 -0.1063 -0.4953
   13MOL   C463 9607   5.899   2.738   5.379 -0.4002  0.0752 -0.0724
   13MOL   C464 9608   5.941   2.811   5.499  0.7338 -0.4306  0.6209
   13MOL   O465 9609   5.963   2.751   5.601  0.0985 -0.2505 -0.3756
   13MOL   N466 9610   5.966   2.942   5.478  0.0577  0.0525  0.2456
   13MOL   C467 9611   6.021   3.025   5.590 -0.2877 -0.3910 -0.6565
   13MOL   C468 9612   5.910   3.071   5.684 -0.0548  0.2906  0.7749
   13MOL   C469 9613   5.968   3.113   5.825  0.0117 -0.4543  0.2217
   13MOL   C470 9614   5.867   3.136   5.936  0.0978  0.2321  0.3943
   13MOL   C471 9615   5.793   3.010   5.979  1.0437  0.0560  0.1742
   13MOL   C472 9616   5.692   3.043   6.088  0.0044  0.0278 -0.3996
   13MOL   N473 9617   5.636   2.924   6.153  0.1037  0.1760 -0.4025
   13MOL   H474 9618   5.806   2.350   5.507  1.3026 -0.4827 -0.7365
   13MOL   H475 9619   5.780   2.318   5.333 -1.3931  1.0011 -0.4068
   13MOL   H476 9620   5.682   2.562   5.334 -0.2147  0.2370 -0.0394
   13MOL   H477 9621   5.722   2.564   5.508  1.0483 -0.8057 -0.0790
   13MOL   H478 9622   5.923   2.546   5.281 -0.5950 -1.1341 -0.4115
   13MOL   H479 9623   5.971   2.542   5.450 -0.5975  1.6999  1.3754
   13MOL   H480 9624   5.799   2.777   5.357 -0.4123  0.7773  1.2183
   13MOL   H481 9625   5.968   2.759   5.298 -0.2582 -2.0114 -0.5347
   13MOL   H482 9626   5.945   2.981   5.387  4.3451  2.3880  0.1286
   13MOL   H483 9627   6.090   2.964   5.647  0.5225 -0.3677 -1.5900
   13MOL   H484 9628   6.090   3.100   5.552  2.1171 -1.4617  1.4599
   13MOL   H485 9629   5.858   3.161   5.648  2.9532  2.3170  1.3150
   13MOL   H486 9630   5.835   2.992   5.686  1.7182 -1.4204  1.6668
   13MOL   H487 9631   6.034   3.199   5.821 -1.2559  0.4438 -2.3883
   13MOL   H488 9632   6.026   3.026   5.854  2.5574  1.3928  0.7950
   13MOL   H489 9633   5.926   3.182   6.017  0.4578  1.3280 -0.4715
   13MOL   H490 9634   5.806   3.223   5.911  3.5361  2.4399 -0.7703
   13MOL   H491 9635   5.745   2.964   5.893  0.2527  2.5989 -0.7836
   13MOL   H492 9636   5.866   2.940   6.019  0.0587 -0.0049  1.9603
   13MOL   H493 9637   5.614   3.103   6.041  0.5246 -0.7692 -2.3228
   13MOL   H494 9638   5.739   3.100   6.168 -0.0333 -0.0169 -0.3453
   13MOL   H495 9639   5.652   2.836   6.107 -1.6632  0.3608 -1.4156
   13MOL   C496 9640   5.559   2.930   6.263 -0.8493 -0.0416  0.1420
   13MOL   O497 9641   5.533   3.036   6.321  0.5230 -0.4295 -0.5143
   13MOL   C498 9642   5.506   2.801   6.320 -0.2916 -0.7987 -0.6712
   13MOL   C499 9643   5.350   2.807   6.362 -0.3053 -0.5555 -0.3886
   13MOL   C500 9644   5.265   2.828   6.240  0.4382 -0.1649 -0.1358
   13MOL   C501 9645   5.261   2.706   6.142  0.5626 -0.5419  0.5070
   13MOL   C502 9646   5.155   2.606   6.183 -0.1533  0.3021 -0.2086
   13MOL   O503 9647   5.065   2.634   6.263  0.8964 -0.6428 -0.1613
   13MOL   N504 9648   5.160   2.483   6.124 -0.2738 -0.0201 -0.4331
   13MOL   C505 9649   5.051   2.387   6.146 -0.5547  0.3008 -0.0340
   13MOL   C506 9650   4.980   2.340   6.016 -0.5299 -0.1717  0.4075
   13MOL   C507 9651   5.084   2.271   5.918 -0.0712  0.1137 -0.3675
   13MOL   C508 9652   5.023   2.205   5.799 -0.1884  0.3825 -0.3515
   13MOL   C509 9653   5.137   2.149   5.711  0.7506  0.6588  0.9659
   13MOL   C510 9654   5.082   2.043   5.612 -0.0023 -0.9169 -0.1232
   13MOL   N511 9655   4.989   2.111   5.525  0.4067 -0.4056 -0.1407
   13MOL   H512 9656   5.525   2.713   6.258 -0.7132 -2.5885  1.6771
   13MOL   H513 9657   5.569   2.778   6.405 -1.5080 -1.5899  0.0313
   13MOL   H514 9658   5.322   2.722   6.423 -1.0784 -0.3066 -0.4007
   13MOL   H515 9659   5.332   2.894   6.425 -1.0651 -0.6649 -0.4475
   13MOL   H516 9660   5.319   2.903   6.181 -0.5498 -0.9499 -2.0979
   13MOL   H517 9661   5.170   2.879   6.256 -0.5504 -2.1904  0.6284
   13MOL   H518 9662   5.355   2.654   6.127  1.8027  2.0901 -1.2020
   13MOL   H519 9663   5.215   2.732   6.047  0.2002 -3.1183 -0.0668
   13MOL   H520 9664   5.229   2.456   6.056  1.4780 -0.4422  1.4570
   13MOL   H521 9665   5.090   2.299   6.197 -1.3966  0.8946  1.6580
   13MOL   H522 9666   4.968   2.418   6.208  0.0703  1.2311  0.3525
   13MOL   H523 9667   4.894   2.277   6.038 -1.9462  1.2758 -0.8081
   13MOL   H524 9668   4.953   2.431   5.964  0.1385 -0.0678  0.2291
   13MOL   H525 9669   5.142   2.196   5.972  1.2908 -0.6330 -2.7884
   13MOL   H526 9670   5.158   2.347   5.895 -1.2162  1.2903 -0.1891
   13MOL   H527 9671   4.966   2.122   5.838 -0.3959  2.4155  4.0454
   13MOL   H528 9672   4.970   2.276   5.736 -0.4275 -1.0804 -1.8229
   13MOL   H529 9673   5.177   2.240   5.665 -3.6728  2.0089 -0.5026
   13MOL   H530 9674   5.213   2.095   5.767  0.9525  0.6741  0.7062
   13MOL   H531 9675   5.027   1.953   5.639 -0.7472 -0.3557  0.2253
   13MOL   H532 9676   5.175   2.013   5.564  1.1700  0.8800  0.9471
   13MOL   H533 9677   4.951   2.200   5.555 -0.7139 -2.0748  3.6662
   13MOL   C534 9678   4.920   2.054   5.423 -0.4994  0.4144  0.4463
   13MOL   O535 9679   4.931   1.936   5.388  0.1730 -0.1378  0.0389
   13MOL   C536 9680   4.817   2.139   5.343 -0.1852 -0.3579  0.2557
   13MOL   C537 9681   4.858   2.146   5.192 -0.4631 -0.1937  0.6367
   13MOL   C538 9682   4.996   2.206   5.165  0.1300 -0.2530 -0.1681
   13MOL   C539 9683   5.008   2.348   5.221  1.0146  0.2021  0.3888
   13MOL   C540 9684   4.916   2.455   5.162 -0.0607 -0.4050  0.0804
   13MOL   O541 9685   4.910   2.467   5.040 -0.2600  0.0445  0.0620
   13MOL   N542 9686   4.857   2.532   5.246  0.2782 -0.2730 -0.7302
   13MOL   C543 9687   4.771   2.644   5.214 -0.0587  0.8626  0.3291
   13MOL   C544 9688   4.844   2.781   5.218 -0.2085  0.7382  0.1865
   13MOL   C545 9689   4.896   2.809   5.358 -0.1918  0.1871 -0.0321
   13MOL   C546 9690   4.949   2.960   5.382 -0.1578 -0.2852 -0.1262
   13MOL   C547 9691   5.056   3.002   5.279 -0.1365 -0.1758  0.5011
   13MOL   C548 9692   5.158   3.093   5.342 -0.5007 -0.4056  0.3590
   13MOL   N549 9693   5.090   3.215   5.374 -0.3794  1.2167  0.0495
   13MOL   H550 9694   4.721   2.090   5.355  1.0259 -2.2659  2.4553
   13MOL   H551 9695   4.798   2.236   5.389 -0.3807 -0.6253  0.7367
   13MOL   H552 9696   4.853   2.049   5.141 -2.1402  1.3633 -2.3046
   13MOL   H553 9697   4.785   2.213   5.147  0.6005  0.9805  0.6237
   13MOL   H554 9698   4.998   2.207   5.056  0.4990  1.1051 -0.1570
   13MOL   H555 9699   5.083   2.145   5.191 -0.7409 -2.7252 -2.7846
   13MOL   H556 9700   5.111   2.376   5.200  0.6061  1.0404 -0.5686
   13MOL   H557 9701   5.001   2.338   5.330 -0.8349  1.2185  0.3877
   13MOL   H558 9702   4.871   2.519   5.345  0.2309  0.8917 -0.5588
   13MOL   H559 9703   4.733   2.621   5.114  0.8894  0.9222 -0.0501
   13MOL   H560 9704   4.695   2.640   5.292  0.4204 -0.6682  0.7339
   13MOL   H561 9705   4.929   2.780   5.149 -0.0074  0.0493  0.4436
   13MOL   H562 9706   4.777   2.861   5.187  0.3254  1.5577  1.1371
   13MOL   H563 9707   4.969   2.734   5.386  0.9968  1.6628  0.9328
   13MOL   H564 9708   4.815   2.799   5.429  0.7022 -1.4387  0.7881
   13MOL   H565 9709   4.868   3.033   5.389  0.2238  0.1006  0.2772
   13MOL   H566 9710   4.996   2.957   5.481  1.1939  1.6621 -0.6992
   13MOL   H567 9711   5.108   2.915   5.240 -1.2542 -0.9822  0.7748
   13MOL   H568 9712   5.006   3.054   5.198 -0.5165 -0.2808  0.6621
   13MOL   H569 9713   5.235   3.110   5.267 -0.3421 -3.0816 -0.1331
   13MOL   H570 9714   5.209   3.043   5.425 -0.3637 -1.0925 -0.1342
   13MOL   H571 9715   4.990   3.211   5.374 -0.3557 -0.6238  2.5018
   13MOL   C572 9716   5.147   3.331   5.398 -1.3126 -0.2751 -0.3395
   13MOL   O573 9717   5.268   3.352   5.380  0.2667 -0.5293  0.0975
   13MOL   C574 9718   5.064   3.451   5.440  0.1680 -0.2917  0.5593
   13MOL   C575 9719   5.137   3.547   5.532  0.0828  0.6632 -0.1440
   13MOL   C576 9720   5.049   3.665   5.554  0.2398 -0.1683 -0.4716
   13MOL   C577 9721   5.085   3.749   5.679 -0.0813 -0.2895  0.1241
   13MOL   C578 9722   5.083   3.687   5.816 -0.4115 -0.3084  0.2679
   13MOL   O579 9723   4.982   3.630   5.852 -0.5669  0.7741 -0.1485
   13MOL   N580 9724   5.189   3.694   5.892  0.3141 -0.8374 -0.3841
   13MOL   C581 9725   5.183   3.678   6.034 -0.2452 -0.1865  0.3051
   13MOL   C582 9726   5.109   3.791   6.098  1.1020  0.6503  0.7647
   13MOL   C583 9727   5.111   3.783   6.256 -0.6023 -0.7534  0.0327
   13MOL   C584 9728   5.073   3.910   6.328  0.8103 -0.7933  0.1109
   13MOL   C585 9729   5.094   3.926   6.480  1.0009 -0.1241  0.3332
   13MOL   C586 9730   5.097   4.076   6.527 -0.4826 -0.2278 -0.0162
   13MOL   N587 9731   5.209   4.152   6.487 -0.2124 -0.3008  0.0505
   13MOL   H588 9732   5.027   3.504   5.352 -0.5986  1.7163  2.0546
   13MOL   H589 9733   4.970   3.413   5.479 -0.2424  0.5500  0.4025
   13MOL   H590 9734   5.177   3.491   5.617 -0.8245 -0.0434 -0.1757
   13MOL   H591 9735   5.226   3.587   5.483 -0.9642  2.5028 -0.5616
   13MOL   H592 9736   4.946   3.630   5.562 -0.4853  1.3317 -2.6209
   13MOL   H593 9737   5.050   3.730   5.466 -2.5198  0.8479  0.1768
   13MOL   H594 9738   5.025   3.840   5.683 -2.3563 -1.7486  0.3184
   13MOL   H595 9739   5.188   3.781   5.663 -0.8522  3.2673  1.7149
   13MOL   H596 9740   5.259   3.748   5.844  1.5858 -1.3961  0.8164
   13MOL   H597 9741   5.127   3.587   6.060 -1.6840  0.8928  1.0614
   13MOL   H598 9742   5.274   3.668   6.092 -0.1463  2.0264  0.5671
   13MOL   H599 9743   5.145   3.886   6.058  0.3649  0.9162  0.7215
   13MOL   H600 9744   5.005   3.789   6.065  0.6319 -0.2870  2.2366
   13MOL   H601 9745   5.205   3.744   6.295  0.4908 -0.1559 -1.9204
   13MOL   H602 9746   5.050   3.699   6.289 -0.3445 -0.5683  0.9917
   13MOL   H603 9747   5.113   4.000   6.283  0.3942  0.2798  1.8463
   13MOL   H604 9748   4.965   3.924   6.319  0.5736 -0.5602  3.0603
   13MOL   H605 9749   5.033   3.860   6.542  2.2954 -1.7530 -0.0754
   13MOL   H606 9750   5.194   3.886   6.498  0.3208 -0.8971  2.5340
   13MOL   H607 9751   5.096   4.068   6.636  0.9159  1.2186  0.1230
   13MOL   H608 9752   4.998   4.117   6.508 -0.8883 -1.4036 -0.5055
   13MOL   H609 9753   5.300   4.125   6.521  0.5703  0.3443 -1.5028
   13MOL   C610 9754   5.200   4.254   6.398 -0.3143 -0.4187  0.2461
   13MOL   O611 9755   5.096   4.279   6.337 -0.4991 -0.0263  0.2276
   13MOL   C612 9756   5.321   4.336   6.355  0.7052  0.2802  0.1225
   13MOL   C613 9757   5.349   4.310   6.210 -0.5100 -0.9079  0.4111
   13MOL   C614 9758   5.496   4.364   6.182  0.1673  0.1147  0.2026
   13MOL   C615 9759   5.545   4.376   6.035  0.2528 -0.3462  0.2809
   13MOL   C616 9760   5.462   4.476   5.958  0.2906 -0.5106 -0.1699
   13MOL   O617 9761   5.373   4.551   6.001  0.1756  0.3031  0.2398
   13MOL   N618 9762   5.484   4.475   5.828  0.4926  0.7376 -0.1339
   13MOL   C619 9763   5.407   4.552   5.730 -0.0285 -0.2559  0.5343
   13MOL   C620 9764   5.455   4.553   5.586  0.0425  0.0891 -0.2647
   13MOL   C621 9765   5.351   4.615   5.485 -0.3993  0.1833 -0.6399
   13MOL   C622 9766   5.238   4.517   5.442  0.3947  0.1122 -0.3246
   13MOL   C623 9767   5.134   4.586   5.348 -0.1838 -0.2533  0.5098
   13MOL   C624 9768   5.034   4.483   5.293 -0.2435  0.0245  0.2762
   13MOL   N625 9769   4.927   4.542   5.215 -0.5175 -0.1091  0.2730
   13MOL   H626 9770   5.295   4.441   6.373  0.5148  0.2839 -0.1845
   13MOL   H627 9771   5.407   4.299   6.410 -0.7540 -0.6566  1.8153
   13MOL   H628 9772   5.335   4.207   6.178  0.2808 -0.5881 -1.0111
   13MOL   H629 9773   5.280   4.373   6.155  0.6696 -0.3178 -0.4205
   13MOL   H630 9774   5.571   4.306   6.237 -1.4908 -1.9805  0.3123
   13MOL   H631 9775   5.501   4.462   6.230 -0.5061 -0.1520  0.8246
   13MOL   H632 9776   5.535   4.278   5.988  1.9477 -1.0072  1.2504
   13MOL   H633 9777   5.649   4.406   6.025  0.1057 -0.1759 -0.7615
   13MOL   H634 9778   5.565   4.426   5.791 -0.1189 -0.1112 -0.3600
   13MOL   H635 9779   5.304   4.518   5.739  0.0773 -0.2784  1.6518
   13MOL   H636 9780   5.395   4.655   5.762  1.0288 -0.1180  0.5097
   13MOL   H637 9781   5.541   4.620   5.573  0.7438 -0.8868 -0.7133
   13MOL   H638 9782   5.496   4.455   5.562  0.6994  0.9513 -2.8921
   13MOL   H639 9783   5.404   4.657   5.399 -1.4690 -1.3104 -2.0482
   13MOL   H640 9784   5.302   4.697   5.537 -1.0709 -2.4162  2.9913
   13MOL   H641 9785   5.278   4.430   5.390 -0.6028 -1.3257  1.2771
   13MOL   H642 9786   5.189   4.474   5.529 -3.0985  0.9824 -1.7566
   13MOL   H643 9787   5.071   4.659   5.399 -0.1447  0.7649 -0.8874
   13MOL   H644 9788   5.186   4.637   5.267 -1.8902  0.2092 -0.3090
   13MOL   H645 9789   4.991   4.443   5.385 -2.7249 -2.5593 -1.9149
   13MOL   H646 9790   5.081   4.401   5.239 -0.2892  1.4372 -1.9605
   13MOL   H647 9791   4.952   4.556   5.118  0.8542  0.0897  0.6507
   13MOL   C648 9792   4.796   4.526   5.237 -1.0147  0.2306 -0.0399
   13MOL   O649 9793   4.751   4.456   5.332  0.0154 -0.1993 -0.0143
   13MOL   C650 9794   4.693   4.588   5.143  0.2299  0.5585 -0.3932
   13MOL   C651 9795   4.545   4.566   5.188  0.4102  0.3627  0.6666
   13MOL   C652 9796   4.496   4.655   5.303  0.0676 -0.7561 -0.2586
   13MOL   C653 9797   4.461   4.578   5.430 -0.3439 -0.0178 -0.3299
   13MOL   C654 9798   4.330   4.516   5.416  0.2206  0.1610 -0.6552
   13MOL   O655 9799   4.233   4.583   5.389 -0.2711 -0.0782 -0.3476
   13MOL   N656 9800   4.309   4.385   5.445 -0.3213 -0.7180 -0.3951
   13MOL   C657 9801   4.192   4.305   5.421  0.1692  0.8436  0.0480
   13MOL   C658 9802   4.097   4.281   5.537  0.7714  0.1839 -0.1682
   13MOL   C659 9803   3.988   4.170   5.520 -0.2220 -0.2102 -0.7313
   13MOL   C660 9804   4.048   4.028   5.508  0.6474  0.3604  0.0133
   13MOL   C661 9805   3.941   3.922   5.515  0.8528 -0.2901 -0.4074
   13MOL   C662 9806   4.000   3.779   5.498  0.4246  0.0347  0.2105
   13MOL   N663 9807   3.905   3.672   5.479 -0.0275  0.1650  0.8748
   13MOL   H664 9808   4.715   4.694   5.134  1.0326  0.3500 -0.9234
   13MOL   H665 9809   4.716   4.548   5.044 -1.8461 -2.3548  0.2268
   13MOL   H666 9810   4.481   4.575   5.100  2.5879  0.2230 -0.9937
   13MOL   H667 9811   4.526   4.464   5.220 -0.7997  1.0711  2.3114
   13MOL   H668 9812   4.413   4.720   5.276  1.6528  0.0917 -3.3989
   13MOL   H669 9813   4.584   4.716   5.320  1.8320 -3.8236  2.1142
   13MOL   H670 9814   4.452   4.661   5.500  1.7421  1.5385 -1.8248
   13MOL   H671 9815   4.536   4.517   5.481  0.0911  0.1357 -0.7773
   13MOL   H672 9816   4.391   4.330   5.463  0.0962  0.2034  0.5328
   13MOL   H673 9817   4.142   4.329   5.327  1.1780 -0.0193 -0.7268
   13MOL   H674 9818   4.225   4.203   5.400  0.8088  0.8418  1.0462
   13MOL   H675 9819   4.145   4.248   5.628  1.7590  1.3508 -0.2583
   13MOL   H676 9820   4.052   4.378   5.560  0.0200 -0.4319  1.0166
   13MOL   H677 9821   3.928   4.186   5.431 -0.8818 -0.4316 -0.3344
   13MOL   H678 9822   3.928   4.184   5.611  2.7138 -1.0067  1.4154
   13MOL   H679 9823   4.088   4.020   5.407 -0.2350  2.6546 -0.5481
   13MOL   H680 9824   4.130   4.003   5.575  0.9566 -1.5815 -1.0447
   13MOL   H681 9825   3.879   3.931   5.604  1.8635 -1.8796  0.4960
   13MOL   H682 9826   3.888   3.951   5.425  2.1593 -0.0482 -1.1143
   13MOL   H683 9827   4.065   3.761   5.583 -0.3492 -3.1773  0.1626
   13MOL   H684 9828   4.066   3.775   5.412  0.6042 -0.8233  0.3893
   13MOL   H685 9829   3.916   3.635   5.386  0.6781  1.5487  0.3973
   13MOL   C686 9830   3.828   3.606   5.574 -0.2619 -0.7506  0.5302
   13MOL   O687 9831   3.831   3.637   5.695  0.2278  0.2060  0.1290
   13MOL   C688 9832   3.738   3.485   5.523  0.8470  0.3232  0.5888
   13MOL   C689 9833   3.602   3.474   5.605 -0.1799 -0.5526  1.0314
   13MOL   C690 9834   3.532   3.611   5.594  0.7097  0.1235  0.4207
   13MOL   C691 9835   3.500   3.670   5.456  0.4801  0.0729  0.1358
   13MOL   C692 9836   3.436   3.576   5.349  0.3836 -0.2665 -0.2137
   13MOL   O693 9837   3.421   3.456   5.365  0.0053  0.1074  0.2372
   13MOL   N694 9838   3.409   3.644   5.236 -0.1048 -0.3636  0.1968
   13MOL   C695 9839   3.335   3.584   5.127 -0.0956 -0.0041 -0.3217
   13MOL   C696 9840   3.255   3.696   5.069  0.2157  0.3674 -0.7380
   13MOL   C697 9841   3.148   3.653   4.971  0.0681  0.3790 -0.2561
   13MOL   C698 9842   3.068   3.765   4.911 -0.7629  0.7346  0.4583
   13MOL   C699 9843   2.986   3.725   4.789 -0.2648 -0.3726  0.3399
   13MOL   C700 9844   2.948   3.826   4.678  0.4321 -0.4264  0.0370
   13MOL   N701 9845   2.987   3.779   4.545 -0.2405 -0.4600 -0.2424
   13MOL   H702 9846   3.729   3.491   5.414 -1.7385 -0.3898  0.7490
   13MOL   H703 9847   3.789   3.391   5.544  0.5614  0.2879  1.1222
   13MOL   H704 9848   3.541   3.397   5.559 -0.5577  0.6553 -0.5289
   13MOL   H705 9849   3.617   3.447   5.710  0.2860 -1.4878  0.7288
   13MOL   H706 9850   3.586   3.687   5.651  0.3050 -0.2265  1.2790
   13MOL   H707 9851   3.432   3.607   5.636  0.7213  0.7949  0.5231
   13MOL   H708 9852   3.589   3.714   5.410  0.1369 -1.5552 -2.2112
   13MOL   H709 9853   3.430   3.750   5.476 -1.8377 -1.4234 -1.7203
   13MOL   H710 9854   3.412   3.745   5.233 -0.1675 -0.4119 -2.4490
   13MOL   H711 9855   3.404   3.550   5.050  1.4080 -0.6132  1.2671
   13MOL   H712 9856   3.255   3.517   5.160 -2.1051  1.9512 -1.0663
   13MOL   H713 9857   3.197   3.741   5.149 -0.5879  1.0344 -1.6701
   13MOL   H714 9858   3.324   3.765   5.019  1.8412  0.1991  1.2035
   13MOL   H715 9859   3.077   3.588   5.022  1.1576  0.3719  1.2822
   13MOL   H716 9860   3.194   3.590   4.894 -1.9425 -2.0056  0.4081
   13MOL   H717 9861   3.001   3.817   4.979  0.0188  0.2318  1.6160
   13MOL   H718 9862   3.143   3.839   4.884  0.9875 -0.7627  1.1360
   13MOL   H719 9863   3.029   3.640   4.736 -0.2868  0.8550 -1.7152
   13MOL   H720 9864   2.898   3.672   4.825 -1.3648  2.2265  1.6310
   13MOL   H721 9865   3.001   3.917   4.708 -0.1596  0.2558 -0.9631
   13MOL   H722 9866   2.844   3.857   4.677  1.0561  1.9278  1.9762
   13MOL   H723 9867   2.955   3.684   4.533 -2.8158  0.2819  0.5519
   13MOL   C724 9868   3.045   3.859   4.454 -0.3730  0.1080 -0.0248
   13MOL   O725 9869   3.057   3.977   4.468 -0.1540  0.5524  0.3724
   13MOL   C726 9870   3.088   3.793   4.325  0.0169 -0.1155 -0.4607
   13MOL   C727 9871   3.209   3.868   4.258 -0.6455  0.1038  1.3267
   13MOL   C728 9872   3.338   3.863   4.342 -0.0911  0.2532 -0.4966
   13MOL   C729 9873   3.461   3.899   4.256  0.7163  0.0291 -0.1105
   13MOL   C730 9874   3.589   3.924   4.333 -0.5688 -0.1673  0.5316
   13MOL   O731 9875   3.578   3.999   4.433  0.0059 -0.6373 -0.1135
   13MOL   N732 9876   3.698   3.858   4.293 -0.1868 -0.5316  0.0639
   13MOL   C733 9877   3.833   3.877   4.344 -0.0196  0.2151 -0.2224
   13MOL   C734 9878   3.902   3.994   4.287  0.4798  0.2118  0.6638
   13MOL   C735 9879   4.019   4.025   4.376  0.3379 -0.6632 -0.4915
   13MOL   C736 9880   4.116   4.122   4.305  0.0750  0.8667 -0.5843
   13MOL   C737 9881   4.221   4.183   4.391 -0.8623  0.6684 -0.7768
   13MOL   C738 9882   4.304   4.277   4.304  0.1627  0.1689 -1.2475
   13MOL   N739 9883   4.401   4.358   4.385  0.4965  0.2272  0.0510
   13MOL   H740 9884   3.119   3.689   4.332  0.8713  0.0436 -1.7462
   13MOL   H741 9885   3.004   3.793   4.256 -0.9900  1.3405  0.7226
   13MOL   H742 9886   3.224   3.828   4.157 -1.2741  3.0654  0.0118
   13MOL   H743 9887   3.187   3.972   4.236  2.6610  0.5916  0.0219
   13MOL   H744 9888   3.352   3.763   4.383  2.4429  0.3158 -1.0873
   13MOL   H745 9889   3.333   3.936   4.423 -0.9087 -2.4545  1.9720
   13MOL   H746 9890   3.434   3.995   4.211  0.1437  0.5452  1.3316
   13MOL   H747 9891   3.461   3.831   4.170 -1.1310  0.2028 -0.2714
   13MOL   H748 9892   3.684   3.806   4.207 -2.5806  2.5126 -1.4890
   13MOL   H749 9893   3.835   3.878   4.453  2.0047  0.3383 -0.2528
   13MOL   H750 9894   3.881   3.789   4.302 -0.9643  1.2940 -3.7599
   13MOL   H751 9895   3.927   3.972   4.183  1.5661 -0.7317  1.1084
   13MOL   H752 9896   3.831   4.077   4.286  0.9865  0.6411 -0.5681
   13MOL   H753 9897   4.074   3.934   4.403  1.9322 -0.8345 -4.0108
   13MOL   H754 9898   3.993   4.070   4.471 -0.3776 -0.8272 -0.6095
   13MOL   H755 9899   4.161   4.080   4.215  0.1926  0.3101 -0.2665
   13MOL   H756 9900   4.042   4.195   4.271  1.2069  2.0962 -0.4411
   13MOL   H757 9901   4.174   4.236   4.475 -0.9425  0.6233 -0.7933
   13MOL   H758 9902   4.285   4.101   4.422 -0.8019  1.2332  0.6553
   13MOL   H759 9903   4.243   4.346   4.246 -1.3217 -0.6463 -0.6884
   13MOL   H760 9904   4.373   4.224   4.238  2.0621  0.2473  0.6363
   13MOL   H761 9905   4.468   4.408   4.328 -0.5978 -1.6688 -3.0121
   13MOL   H762 9906   4.454   4.298   4.447 -0.2276 -0.4184  0.0612
   14MOL     C1 9907   0.260   2.142   4.388  0.1259 -0.4646  0.1637
   14MOL     O2 9908   0.200   2.143   4.499  0.2873  0.2347 -0.3568
   14MOL     C3 9909   0.384   2.054   4.361 -0.3083  0.4600 -0.0526
   14MOL     C4 9910   0.513   2.117   4.415  1.0808  0.3738 -0.0916
   14MOL     C5 9911   0.622   2.009   4.417  0.2744  0.0595  0.0294
   14MOL     C6 9912   0.764   2.053   4.449 -0.0304  0.2638 -0.2113
   14MOL     C7 9913   0.859   1.943   4.493  0.1989  0.2615  0.0401
   14MOL     O8 9914   0.813   1.841   4.548  0.5232 -0.3670 -0.2082
   14MOL     N9 9915   0.988   1.964   4.482 -0.1540 -0.6616  0.3047
   14MOL    C10 9916   1.094   1.894   4.560 -0.4660 -0.5019  0.8028
   14MOL    C11 9917   1.155   1.772   4.494  0.2732  0.2543 -0.2453
   14MOL    C12 9918   1.271   1.718   4.577  0.3029 -0.3409  0.2171
   14MOL    C13 9919   1.373   1.618   4.507  0.5792 -0.0500 -0.8239
   14MOL    C14 9920   1.483   1.580   4.607 -0.0075  0.8965 -0.3117
   14MOL    C15 9921   1.588   1.498   4.534 -1.3509 -0.5222 -0.0811
   14MOL    N16 9922   1.662   1.580   4.439 -0.2638  0.3146 -0.2785
   14MOL    H17 9923   0.371   1.946   4.372  1.3069  0.4157  1.6460
   14MOL    H18 9924   0.401   2.058   4.253  3.5930 -0.5877  0.4419
   14MOL    H19 9925   0.553   2.193   4.348 -0.6142  1.3011 -0.1029
   14MOL    H20 9926   0.507   2.140   4.522 -1.3130  0.0388 -0.1287
   14MOL    H21 9927   0.635   1.958   4.321  0.6863  1.2513 -0.5581
   14MOL    H22 9928   0.595   1.937   4.494  1.8593  0.1522  0.6907
   14MOL    H23 9929   0.761   2.126   4.530 -3.1973  0.2858 -0.2833
   14MOL    H24 9930   0.792   2.098   4.354  1.7834 -0.7081 -0.1516
   14MOL    H25 9931   1.019   2.041   4.426  1.9373 -0.7959  1.2269
   14MOL    H26 9932   1.169   1.973   4.568 -1.8796  0.7436  2.2575
   14MOL    H27 9933   1.059   1.876   4.662 -0.1711 -0.0283  0.9901
   14MOL    H28 9934   1.080   1.695   4.478  0.2575  0.0751  0.7074
   14MOL    H29 9935   1.197   1.809   4.400  0.6211  0.8116  0.1278
   14MOL    H30 9936   1.224   1.668   4.661 -0.1596 -0.0000  0.1629
   14MOL    H31 9937   1.335   1.796   4.619 -0.6072  1.1956 -1.1874
   14MOL    H32 9938   1.323   1.535   4.458 -2.8943  1.8923 -0.8108
   14MOL    H33 9939   1.423   1.657   4.419  1.4686 -2.2097 -1.2953
   14MOL    H34 9940   1.530   1.671   4.644  0.2128  0.1313  1.3061
   14MOL    H35 9941   1.440   1.534   4.696  0.9429 -0.7786 -0.7076
   14MOL    H36 9942   1.534   1.421   4.480  2.5429 -2.6707 -1.0859
   14MOL    H37 9943   1.651   1.446   4.606 -0.7759  0.5123  0.1745
   14MOL    H38 9944   1.651   1.574   4.339 -1.5617  0.0500 -0.1295
   14MOL    H39 9945   0.214   2.192   4.303  0.8675  0.5493  0.3523
   14MOL    C40 9946   1.750   1.665   4.486  0.7630  0.5690 -0.2604
   14MOL    O41 9947   1.797   1.656   4.600  0.4549  0.5652  0.6743
   14MOL    C42 9948   1.813   1.755   4.381  0.5666  0.0055 -0.3112
   14MOL    C43 9949   1.904   1.673   4.280  0.0978  0.4214  0.1052
   14MOL    C44 9950   2.031   1.609   4.348  0.1268 -0.1413 -0.7838
   14MOL    C45 9951   2.129   1.549   4.251  0.7325 -0.8865  0.4935
   14MOL    C46 9952   2.247   1.481   4.300 -0.0187 -0.1640 -0.5995
   14MOL    O47 9953   2.283   1.489   4.420  0.8276  0.0035 -0.0003
   14MOL    N48 9954   2.311   1.411   4.204  0.4201  0.0862  0.2720
   14MOL    C49 9955   2.438   1.346   4.222  0.0439 -0.2682 -0.0042
   14MOL    C50 9956   2.545   1.446   4.198  0.0124  0.2844  0.1748
   14MOL    C51 9957   2.686   1.393   4.179  0.4738 -0.4031  0.0411
   14MOL    C52 9958   2.735   1.290   4.275 -1.3996  0.3273 -0.1656
   14MOL    C53 9959   2.757   1.352   4.414 -0.5642  0.5771  0.7664
   14MOL    C54 9960   2.805   1.255   4.521  0.0132  0.0933  0.4825
   14MOL    N55 9961   2.826   1.298   4.660  0.2512  0.1037 -1.0335
   14MOL    H56 9962   1.744   1.821   4.329  0.6640 -0.1893 -0.6932
   14MOL    H57 9963   1.871   1.826   4.441  0.3860 -0.6072  0.6057
   14MOL    H58 9964   1.848   1.596   4.227  0.3679  0.8855 -0.8525
   14MOL    H59 9965   1.944   1.746   4.211  0.8137  1.3418  1.4719
   14MOL    H60 9966   2.000   1.534   4.420  1.2669 -1.4320 -1.6111
   14MOL    H61 9967   2.092   1.694   4.381  0.7032  0.0268 -2.2729
   14MOL    H62 9968   2.166   1.624   4.181 -0.0634  0.5881  1.6378
   14MOL    H63 9969   2.077   1.473   4.193  1.6712  0.8422 -2.7541
   14MOL    H64 9970   2.258   1.405   4.118 -0.1235 -1.6668  0.7186
   14MOL    H65 9971   2.447   1.295   4.318 -1.0357  0.9557  0.7607
   14MOL    H66 9972   2.448   1.266   4.148 -1.7918 -0.0708 -0.4929
   14MOL    H67 9973   2.516   1.505   4.110 -2.7379  0.7152  1.3103
   14MOL    H68 9974   2.538   1.502   4.292 -0.9522  0.8402 -0.2178
   14MOL    H69 9975   2.750   1.481   4.176  0.6610 -0.5883 -2.7169
   14MOL    H70 9976   2.693   1.351   4.079  2.1085 -0.5433  0.2027
   14MOL    H71 9977   2.684   1.194   4.277  0.5213 -0.7208 -0.3033
   14MOL    H72 9978   2.834   1.264   4.236 -0.9374  0.8034  0.6804
   14MOL    H73 9979   2.829   1.431   4.397 -0.6637  0.9774  2.1250
   14MOL    H74 9980   2.666   1.399   4.452 -0.5254  0.7728  0.6155
   14MOL    H75 9981   2.896   1.198   4.501  1.7192  3.0582 -0.5634
   14MOL    H76 9982   2.732   1.175   4.533 -0.4697  0.5771  0.7872
   14MOL    H77 9983   2.762   1.270   4.734  1.7986  1.2241  0.7623
   14MOL    C78 9984   2.931   1.380   4.696 -0.0942  0.2670  0.4982
   14MOL    O79 9985   3.000   1.441   4.615  0.6480  0.0113 -0.2665
   14MOL    C80 9986   2.957   1.414   4.846  0.4965 -0.2361 -0.1655
   14MOL    C81 9987   3.104   1.397   4.889 -0.3559 -0.0275  0.1889
   14MOL    C82 9988   3.128   1.267   4.980  0.1408 -0.1074  0.3412
   14MOL    C83 9989   3.148   1.142   4.903 -0.5705 -0.0515 -0.3304
   14MOL    C84 9990   3.277   1.132   4.820 -0.1207  0.2227 -0.3847
   14MOL    O85 9991   3.386   1.144   4.872 -0.9793  0.0212  0.0752
   14MOL    N86 9992   3.257   1.100   4.691  0.2118  0.0941 -0.2060
   14MOL    C87 9993   3.344   1.124   4.575  0.5911  0.1826 -0.7569
   14MOL    C88 9994   3.244   1.169   4.470 -1.1586  0.0892 -0.0684
   14MOL    C89 9995   3.311   1.204   4.334 -0.0567 -0.7787 -0.3492
   14MOL    C90 9996   3.203   1.236   4.230  0.3480  0.1637  0.0097
   14MOL    C91 9997   3.252   1.290   4.097  0.3987 -0.5123  0.0793
   14MOL    C92 9998   3.164   1.292   3.975  0.9333  0.8260 -1.0662
   14MOL    N93 9999   3.232   1.316   3.851  0.1322  0.3602  0.1358
   14MOL    H9410000   2.942   1.522   4.849  1.1328 -0.1581  0.5822
   14MOL    H9510001   2.880   1.365   4.906  0.8437 -0.0216  0.4676
   14MOL    H9610002   3.171   1.396   4.804  1.5706 -2.1956  1.6635
   14MOL    H9710003   3.141   1.491   4.930  0.5641  0.5318 -1.8951
   14MOL    H9810004   3.064   1.266   5.068 -1.8373 -2.1961 -1.0601
   14MOL    H9910005   3.221   1.272   5.037  0.7102  0.1566 -0.5834
   14MOL   H10010006   3.054   1.132   4.850  1.0022 -1.3168 -2.9738
   14MOL   H10110007   3.144   1.054   4.968  0.9756 -0.8370 -1.2459
   14MOL   H10210008   3.164   1.082   4.656 -0.0259  0.7221  0.0946
   14MOL   H10310009   3.410   1.206   4.602 -0.3285  0.2852  1.2366
   14MOL   H10410010   3.402   1.033   4.560  0.4685 -0.3214  1.5832
   14MOL   H10510011   3.173   1.090   4.445 -0.5443 -0.7719  0.8247
   14MOL   H10610012   3.191   1.257   4.506 -1.5758  0.9217 -2.6378
   14MOL   H10710013   3.392   1.137   4.305 -0.6500 -1.0941 -1.3068
   14MOL   H10810014   3.365   1.297   4.353  0.3716 -0.1322 -4.3477
   14MOL   H10910015   3.146   1.147   4.205 -2.6652  2.3572 -1.2611
   14MOL   H11010016   3.119   1.299   4.260 -0.3387 -0.7946  0.1339
   14MOL   H11110017   3.286   1.391   4.119  2.1249 -0.9104 -0.6510
   14MOL   H11210018   3.343   1.233   4.076  0.8326 -0.0987  0.8541
   14MOL   H11310019   3.091   1.373   3.982  0.0666 -0.0420  0.1968
   14MOL   H11410020   3.110   1.198   3.964  0.4147  0.9980 -0.1235
   14MOL   H11510021   3.255   1.234   3.796 -1.6736 -0.5997  0.7736
   14MOL   C11610022   3.303   1.418   3.805 -0.0825 -0.6003 -0.2739
   14MOL   O11710023   3.291   1.534   3.857 -0.0087 -0.4506  0.2337
   14MOL   C11810024   3.405   1.396   3.687  0.6366  0.8063 -0.4480
   14MOL   C11910025   3.547   1.377   3.738 -0.1339 -0.4014  0.8134
   14MOL   C12010026   3.579   1.236   3.776  0.7476 -0.4713 -0.1016
   14MOL   C12110027   3.633   1.156   3.660  0.0927  0.3936  0.4310
   14MOL   C12210028   3.782   1.177   3.627 -0.2327  0.0280 -0.1961
   14MOL   O12310029   3.816   1.280   3.567 -0.2514 -0.5666  0.3930
   14MOL   N12410030   3.873   1.093   3.682 -0.1306 -0.7509  0.4869
   14MOL   C12510031   4.020   1.082   3.668 -0.3582  0.8578 -0.7791
   14MOL   C12610032   4.091   1.068   3.807  0.1425 -0.0744  0.5775
   14MOL   C12710033   4.244   1.029   3.784 -0.1788  0.0943 -0.0311
   14MOL   C12810034   4.324   1.045   3.917 -0.4025  0.5763  0.4882
   14MOL   C12910035   4.303   0.927   4.007  0.2758  0.2801  0.2589
   14MOL   C13010036   4.374   0.919   4.140  0.0664  1.0252  0.5825
   14MOL   N13110037   4.343   0.799   4.210  0.1868 -0.3963  0.4112
   14MOL   H13210038   3.362   1.316   3.626 -1.8510  1.7453 -0.0224
   14MOL   H13310039   3.397   1.472   3.609  0.2855  1.8892  0.6171
   14MOL   H13410040   3.617   1.415   3.664  0.5604  1.2575  2.2874
   14MOL   H13510041   3.570   1.447   3.819 -0.0663 -1.0866  1.3853
   14MOL   H13610042   3.496   1.186   3.826 -0.1150  1.1050  0.0659
   14MOL   H13710043   3.658   1.247   3.851  0.9795  1.7259 -0.6460
   14MOL   H13810044   3.581   1.176   3.567 -0.4091  1.4093  0.9183
   14MOL   H13910045   3.607   1.053   3.680 -0.3899  0.2979 -0.6661
   14MOL   H14010046   3.833   1.013   3.730  1.1550 -0.2777  2.3792
   14MOL   H14110047   4.051   1.001   3.603  0.3306  0.9067 -0.5177
   14MOL   H14210048   4.051   1.177   3.624 -0.9206  1.1687 -0.5177
   14MOL   H14310049   4.085   1.169   3.848  0.6700  1.1185 -2.1061
   14MOL   H14410050   4.039   0.997   3.871 -1.2549  0.0564 -0.3763
   14MOL   H14510051   4.273   1.097   3.704 -0.9210 -1.4374 -1.6419
   14MOL   H14610052   4.247   0.932   3.735  1.1609  0.4619 -0.7018
   14MOL   H14710053   4.431   1.039   3.898 -0.7636 -1.5654 -1.0967
   14MOL   H14810054   4.310   1.140   3.970  0.9421  1.6666 -1.0499
   14MOL   H14910055   4.198   0.941   4.035 -0.4903 -1.7120 -1.5241
   14MOL   H15010056   4.322   0.839   3.947  0.1126  0.7912 -0.5543
   14MOL   H15110057   4.339   1.006   4.195  0.9086  1.5796  0.2548
   14MOL   H15210058   4.483   0.918   4.141  0.1015 -2.4984  0.4209
   14MOL   H15310059   4.331   0.710   4.164  0.7139 -0.4184  0.3134
   14MOL   C15410060   4.293   0.799   4.334  0.4329 -0.8097  0.7737
   14MOL   O15510061   4.286   0.907   4.396  0.2314 -0.0060  0.0112
   14MOL   C15610062   4.237   0.673   4.399  0.3096  0.4391 -0.3056
   14MOL   C15710063   4.094   0.702   4.470  0.1342  0.2439 -0.0101
   14MOL   C15810064   4.067   0.583   4.566  0.4867  0.6206 -0.0371
   14MOL   C15910065   3.929   0.590   4.633  0.2147 -0.7097  0.7239
   14MOL   C16010066   3.871   0.458   4.658  0.7245 -0.2843  0.1653
   14MOL   O16110067   3.934   0.356   4.638  0.1494  0.3600 -0.1645
   14MOL   N16210068   3.750   0.450   4.713  0.1271  0.2018 -0.2132
   14MOL   C16310069   3.691   0.324   4.757  1.1330  0.1599  0.1570
   14MOL   C16410070   3.579   0.299   4.657  0.0480  0.4247  0.1450
   14MOL   C16510071   3.501   0.171   4.681  0.0479 -0.3928 -0.3005
   14MOL   C16610072   3.398   0.163   4.577  0.2071 -0.2011 -0.5846
   14MOL   C16710073   3.435   0.109   4.441  0.1476 -0.7537 -0.0741
   14MOL   C16810074   3.312   0.125   4.346  0.5158 -0.2017  0.1658
   14MOL   N16910075   3.348   0.075   4.208 -0.0128  0.1730 -0.1376
   14MOL   H17010076   4.229   0.600   4.319  0.7821 -0.3415  0.3566
   14MOL   H17110077   4.315   0.633   4.464  0.0972 -0.9256 -0.8762
   14MOL   H17210078   4.099   0.794   4.529 -2.7829  0.1082  0.5366
   14MOL   H17310079   4.016   0.714   4.395 -1.4060  0.3931  1.5605
   14MOL   H17410080   4.142   0.554   4.639 -0.3056  0.0378  0.5505
   14MOL   H17510081   4.076   0.494   4.505 -0.4053  0.8007 -0.4422
   14MOL   H17610082   3.863   0.634   4.559 -0.6260  0.9207  2.4053
   14MOL   H17710083   3.921   0.655   4.720  0.3551 -1.3146  1.1927
   14MOL   H17810084   3.701   0.534   4.742  2.5703  1.6527 -0.1460
   14MOL   H17910085   3.765   0.245   4.766  0.5434 -0.2252  1.7051
   14MOL   H18010086   3.642   0.347   4.851  2.2853 -0.4269  0.9167
   14MOL   H18110087   3.516   0.388   4.659  0.3608  0.6722 -1.0331
   14MOL   H18210088   3.615   0.289   4.555 -1.5120 -0.1683 -0.3715
   14MOL   H18310089   3.454   0.184   4.779 -0.8632 -0.6328 -0.7034
   14MOL   H18410090   3.557   0.078   4.696 -0.2039 -0.4895  0.0483
   14MOL   H18510091   3.312   0.105   4.613  1.1848 -1.9652 -1.0402
   14MOL   H18610092   3.363   0.263   4.554 -0.7624  0.3695  3.0034
   14MOL   H18710093   3.522   0.166   4.409 -0.1028 -0.7974 -0.8395
   14MOL   H18810094   3.475   0.008   4.436 -1.0559 -1.2592  0.2832
   14MOL   H18910095   3.270   0.225   4.329 -0.9206 -0.9321 -0.6993
   14MOL   H19010096   3.234   0.062   4.388  1.0801 -1.4409 -0.6337
   14MOL   H19110097   3.344   7.684   4.189  1.1749  0.1615 -0.3626
   14MOL   C19210098   3.384   0.155   4.111 -0.1071 -0.0371 -0.2461
   14MOL   O19310099   3.373   0.279   4.117  0.0488 -0.0202  0.0076
   14MOL   C19410100   3.443   0.085   3.988  0.5352 -0.7339  0.0850
   14MOL   C19510101   3.361   0.099   3.860 -0.0024 -0.7878  0.3410
   14MOL   C19610102   3.232   0.015   3.857  0.2148  0.1067  0.7425
   14MOL   C19710103   3.180   7.686   3.716 -0.2596 -0.2905 -0.1478
   14MOL   C19810104   3.152   0.097   3.623  0.1729  0.1117  0.3395
   14MOL   O19910105   3.119   0.201   3.675 -0.3429  0.0893 -0.3238
   14MOL   N20010106   3.169   0.085   3.490 -0.0093  0.3928  0.3174
   14MOL   C20110107   3.157   0.192   3.391 -0.7281 -0.4088 -0.0475
   14MOL   C20210108   3.297   0.265   3.367 -0.4311 -0.0842  0.7997
   14MOL   C20310109   3.368   0.316   3.496  0.3900  0.3676  0.3479
   14MOL   C20410110   3.307   0.441   3.550  1.0971 -0.0930 -0.2859
   14MOL   C20510111   3.367   0.493   3.683 -0.8740  0.6161  0.8001
   14MOL   C20610112   3.272   0.591   3.760 -0.5058  0.1945  0.7330
   14MOL   N20710113   3.170   0.511   3.822 -0.6446  0.2773 -0.2030
   14MOL   H20810114   3.539   0.135   3.976  0.4538  0.3612  3.4820
   14MOL   H20910115   3.477   7.691   4.005 -0.7638 -0.9511  1.4647
   14MOL   H21010116   3.355   0.204   3.831  0.7023 -1.2629 -1.6247
   14MOL   H21110117   3.421   0.061   3.778 -0.7383  0.4840 -0.8010
   14MOL   H21210118   3.152   0.072   3.904  0.4288  1.1872 -0.1676
   14MOL   H21310119   3.249   7.634   3.917  1.5764 -1.2252 -1.5380
   14MOL   H21410120   3.086   7.633   3.725  1.2312 -3.1392 -0.8291
   14MOL   H21510121   3.260   7.622   3.678 -1.2872 -1.1100 -0.9469
   14MOL   H21610122   3.214   7.706   3.466 -3.5239 -1.5533  0.4302
   14MOL   H21710123   3.120   0.150   3.298  0.5407 -1.9562  0.1171
   14MOL   H21810124   3.083   0.261   3.431  0.2604  0.3115  0.5888
   14MOL   H21910125   3.368   0.195   3.324 -1.4771 -0.2788 -0.6482
   14MOL   H22010126   3.291   0.338   3.287 -1.0356 -1.3352 -0.3138
   14MOL   H22110127   3.465   0.354   3.463  0.9695 -1.3272  0.0780
   14MOL   H22210128   3.389   0.229   3.558  1.6338  0.1673 -0.3408
   14MOL   H22310129   3.308   0.522   3.476 -0.1918 -0.1724 -0.3949
   14MOL   H22410130   3.203   0.416   3.571  1.3608 -1.8314 -0.9440
   14MOL   H22510131   3.394   0.409   3.747  1.5178  0.3457 -0.4749
   14MOL   H22610132   3.465   0.538   3.664 -0.8676  0.3251  0.1360
   14MOL   H22710133   3.233   0.660   3.685 -0.3579 -0.5945 -0.0729
   14MOL   H22810134   3.330   0.640   3.839  0.0309 -0.8109  0.9641
   14MOL   H22910135   3.193   0.416   3.847  1.2437  1.4568  2.8431
   14MOL   C23010136   3.049   0.566   3.857  0.8625 -0.6016 -0.0065
   14MOL   O23110137   3.029   0.686   3.832  0.0260 -0.1678  0.5775
   14MOL   C23210138   2.945   0.478   3.914  0.7273 -0.3558  0.0677
   14MOL   C23310139   2.823   0.469   3.822 -0.0446  0.5565  0.4179
   14MOL   C23410140   2.701   0.395   3.879  0.0208  0.3510 -0.2872
   14MOL   C23510141   2.726   0.250   3.933 -0.2900 -0.2186  0.3032
   14MOL   C23610142   2.754   0.145   3.819  0.2872 -0.0161  0.9416
   14MOL   O23710143   2.761   0.185   3.704 -0.5460 -0.0252  0.3579
   14MOL   N23810144   2.777   0.017   3.850 -0.1929  0.1049 -0.0938
   14MOL   C23910145   2.794   7.627   3.742 -0.9212 -0.3411  0.0629
   14MOL   C24010146   2.843   7.493   3.795 -0.2892 -0.7015 -0.1934
   14MOL   C24110147   2.883   7.399   3.685  0.2505  1.3222  0.0776
   14MOL   C24210148   2.948   7.273   3.738 -0.1257 -0.9236 -0.3109
   14MOL   C24310149   3.001   7.173   3.645 -0.7685  0.5694 -1.0302
   14MOL   C24410150   3.077   7.060   3.709  0.5003 -0.5522  0.3139
   14MOL   N24510151   3.132   6.974   3.608 -0.1172  0.1700  0.1941
   14MOL   H24610152   2.994   0.384   3.941  3.1559  1.1215  0.9197
   14MOL   H24710153   2.908   0.505   4.013 -5.8335 -0.6839 -2.0495
   14MOL   H24810154   2.794   0.570   3.793 -2.1410  0.2594  1.3819
   14MOL   H24910155   2.851   0.421   3.728 -3.1414  1.3476 -0.9869
   14MOL   H25010156   2.622   0.405   3.804  2.8118  1.3217 -3.1968
   14MOL   H25110157   2.669   0.460   3.960  1.6763  1.4472 -0.4822
   14MOL   H25210158   2.645   0.217   3.998  0.1603  1.2713  1.6496
   14MOL   H25310159   2.811   0.238   3.999 -0.1936  0.7912  0.3750
   14MOL   H25410160   2.809   7.708   3.944  0.5852 -0.2357 -0.4105
   14MOL   H25510161   2.704   7.613   3.682 -0.4275  0.0096 -0.7586
   14MOL   H25610162   2.871   7.665   3.675 -0.3058 -1.6379  0.0310
   14MOL   H25710163   2.928   7.508   3.861  0.6416  0.9773 -1.7336
   14MOL   H25810164   2.760   7.445   3.847 -0.1128  0.0492  0.7879
   14MOL   H25910165   2.953   7.458   3.626 -0.0530  2.2502  0.6346
   14MOL   H26010166   2.797   7.371   3.625  0.0742  0.1393  0.8602
   14MOL   H26110167   3.028   7.304   3.805 -2.4504  3.0391  0.8332
   14MOL   H26210168   2.887   7.214   3.806  0.0625  0.1640  0.8106
   14MOL   H26310169   2.918   7.130   3.588  0.2214  2.4943 -4.0750
   14MOL   H26410170   3.060   7.234   3.576 -2.2083  0.6283 -2.2403
   14MOL   H26510171   3.017   6.999   3.776 -2.1904 -1.0028 -2.3987
   14MOL   H26610172   3.163   7.104   3.759  1.8094 -2.1613 -0.4933
   14MOL   H26710173   3.230   6.977   3.582 -0.7736 -1.4739 -2.6171
   14MOL   C26810174   3.062   6.883   3.539 -0.1515 -0.0468  0.0874
   14MOL   O26910175   2.942   6.869   3.551  0.0054 -0.3756 -0.1986
   14MOL   C27010176   3.152   6.807   3.439  0.1219  0.1661 -0.1772
   14MOL   C27110177   3.177   6.877   3.303 -0.0064  0.4909 -0.0348
   14MOL   C27210178   3.253   6.789   3.199  0.0186  0.8560  0.3535
   14MOL   C27310179   3.392   6.740   3.250  0.4524  0.3343 -0.9426
   14MOL   C27410180   3.488   6.858   3.279 -0.0727  0.2215  0.7299
   14MOL   O27510181   3.485   6.961   3.209 -0.2163 -0.2064  0.5168
   14MOL   N27610182   3.570   6.848   3.382  0.1269  0.5194  0.3374
   14MOL   C27710183   3.674   6.940   3.431 -0.1314  0.1777 -0.3199
   14MOL   C27810184   3.669   6.982   3.581  0.2475  0.1070 -0.5769
   14MOL   C27910185   3.793   7.051   3.642  0.0692  0.2921  0.3629
   14MOL   C28010186   3.781   7.055   3.798 -0.0924 -0.3745 -0.4289
   14MOL   C28110187   3.873   7.158   3.874  0.1082  0.0108 -0.1718
   14MOL   C28210188   3.878   7.137   4.032  0.3424 -0.6022 -0.1551
   14MOL   N28310189   3.952   7.254   4.082 -0.8427  1.1155 -0.3992
   14MOL   H28410190   3.247   6.772   3.479  0.4894  2.2812  0.8923
   14MOL   H28510191   3.080   6.730   3.414 -0.8461  1.0060 -0.0163
   14MOL   H28610192   3.074   6.889   3.269  0.1772  1.0663 -0.3864
   14MOL   H28710193   3.220   6.976   3.320 -2.4662  1.4724  0.6141
   14MOL   H28810194   3.259   6.844   3.105 -0.1249  0.6737  0.2367
   14MOL   H28910195   3.188   6.704   3.174  0.1369  0.7881  0.2774
   14MOL   H29010196   3.441   6.680   3.174 -0.4956 -2.7114  0.8012
   14MOL   H29110197   3.374   6.680   3.339  0.4370 -0.8027 -1.7059
   14MOL   H29210198   3.555   6.762   3.432  1.8648 -0.0613 -0.1037
   14MOL   H29310199   3.775   6.910   3.404 -0.2531  0.5939 -1.2656
   14MOL   H29410200   3.663   7.035   3.378  1.0323 -0.2067 -1.2697
   14MOL   H29510201   3.589   7.049   3.610 -0.0877 -0.3936 -0.3395
   14MOL   H29610202   3.655   6.896   3.647  0.2323 -0.2235 -1.0044
   14MOL   H29710203   3.807   7.152   3.605 -2.9211  0.0998 -1.4159
   14MOL   H29810204   3.882   6.994   3.613 -0.8640 -0.2187 -1.5478
   14MOL   H29910205   3.676   7.076   3.817  0.4157  0.4752  1.5181
   14MOL   H30010206   3.801   6.958   3.844  1.0948  0.0403 -0.0617
   14MOL   H30110207   3.976   7.148   3.839 -0.4039 -0.0124 -1.7229
   14MOL   H30210208   3.833   7.254   3.841  0.8160  0.4936  0.3580
   14MOL   H30310209   3.920   7.040   4.059 -1.7931 -1.5940 -0.3130
   14MOL   H30410210   3.779   7.139   4.077 -0.8821  1.2208 -2.7398
   14MOL   H30510211   3.899   7.331   4.119 -0.3994  1.2523 -0.0560
   14MOL   C30610212   4.088   7.265   4.092 -0.6961  0.1828  0.4445
   14MOL   O30710213   4.164   7.173   4.053 -0.3404 -0.4073 -0.4743
   14MOL   C30810214   4.136   7.399   4.140 -0.1777 -0.4763  0.0232
   14MOL   C30910215   4.230   7.376   4.257 -0.2513  0.2818  0.1009
   14MOL   C31010216   4.314   7.498   4.296  0.4073  0.0616  0.9026
   14MOL   C31110217   4.411   7.472   4.411  0.7873  0.3485  0.0462
   14MOL   C31210218   4.499   7.596   4.440  1.0319 -0.3268 -0.3722
   14MOL   O31310219   4.493   7.692   4.363  0.2769 -0.0182 -0.2897
   14MOL   N31410220   4.588   7.579   4.545  0.0353  0.1569  0.3547
   14MOL   C31510221   4.698   7.671   4.578  0.4995 -0.0664 -0.1541
   14MOL   C31610222   4.689   0.022   4.714 -0.2115  0.0552 -0.4098
   14MOL   C31710223   4.819   0.113   4.750  0.0130 -0.5647 -0.1608
   14MOL   C31810224   4.796   0.206   4.869  0.2909 -0.1046 -0.9864
   14MOL   C31910225   4.818   0.126   5.007 -0.1559 -0.2489 -0.5901
   14MOL   C32010226   4.968   0.113   5.048 -0.1206  0.3105 -0.4413
   14MOL   N32110227   5.029   7.692   5.017  0.2566 -0.3455 -0.4048
   14MOL   H32210228   4.178   7.463   4.063  1.4667  1.0910  2.1370
   14MOL   H32310229   4.055   7.461   4.177  1.2237  0.1509  2.1326
   14MOL   H32410230   4.185   7.321   4.339 -1.2578 -0.4597 -0.9369
   14MOL   H32510231   4.308   7.315   4.211  0.7545  1.0917  0.7122
   14MOL   H32610232   4.233   7.567   4.322 -0.6072 -0.6764 -0.2168
   14MOL   H32710233   4.360   7.530   4.203 -0.0484  0.2174  0.7255
   14MOL   H32810234   4.468   7.383   4.384  1.0919  0.8938 -1.1168
   14MOL   H32910235   4.347   7.463   4.499 -0.8168  0.0014 -1.1454
   14MOL   H33010236   4.581   7.493   4.598  0.7201  0.9859  1.7855
   14MOL   H33110237   4.786   7.607   4.576  1.3287  1.0110  0.8240
   14MOL   H33210238   4.709   0.051   4.514  3.6609  1.2334  2.0515
   14MOL   H33310239   4.602   0.088   4.711 -0.6932 -0.6230 -1.8555
   14MOL   H33410240   4.675   7.659   4.796 -1.1326 -1.4882 -1.8828
   14MOL   H33510241   4.838   0.175   4.663 -0.6075 -0.2797 -0.0961
   14MOL   H33610242   4.913   0.067   4.781 -0.2850 -0.9789  0.1416
   14MOL   H33710243   4.866   0.289   4.873  1.3584 -1.0556  1.2284
   14MOL   H33810244   4.693   0.236   4.847 -0.0551 -0.5468  0.0208
   14MOL   H33910245   4.764   0.178   5.086 -1.4296 -2.1785 -0.1477
   14MOL   H34010246   4.779   0.024   5.014 -0.7886  0.1171  1.7845
   14MOL   H34110247   4.964   0.108   5.157 -2.1552 -0.6387 -0.5435
   14MOL   H34210248   5.037   0.196   5.033  1.8944 -1.2213  0.0799
   14MOL   H34310249   5.004   7.605   5.062 -1.5899  0.4214  0.1001
   14MOL   C34410250   5.124   7.675   4.932 -0.0252  0.1933  0.5927
   14MOL   O34510251   5.169   0.059   4.867  1.2657  0.3542 -0.0637
   14MOL   C34610252   5.181   7.533   4.910  0.9432 -0.4568  0.0306
   14MOL   C34710253   5.323   7.539   4.867  0.9339  0.6482  0.5321
   14MOL   C34810254   5.340   7.561   4.713 -0.4038 -0.8633 -0.2205
   14MOL   C34910255   5.477   7.612   4.673 -0.2682 -0.9011 -0.3447
   14MOL   C35010256   5.591   7.553   4.753  0.7011  0.1665 -1.0410
   14MOL   O35110257   5.626   7.439   4.732  0.2426  0.2902  0.2990
   14MOL   N35210258   5.655   7.637   4.835 -0.3572 -0.2595  0.0608
   14MOL   C35310259   5.743   7.596   4.947  0.1445 -0.0150  0.4118
   14MOL   C35410260   5.887   7.588   4.918  0.2502 -0.4990  0.3082
   14MOL   C35510261   5.970   7.579   5.041  0.4916  0.2999  1.0429
   14MOL   C35610262   6.116   7.538   5.012  0.2428 -0.1122 -0.2873
   14MOL   C35710263   6.196   7.652   4.964  0.6174  0.8242  0.3669
   14MOL   C35810264   6.324   7.604   4.899 -0.1354  0.2131  0.3671
   14MOL   N35910265   6.410   0.003   4.856  0.2862  0.8537  0.4683
   14MOL   H36010266   5.181   7.494   5.012 -2.9771 -0.5818  0.0504
   14MOL   H36110267   5.114   7.474   4.847  1.6226 -1.5036  0.2740
   14MOL   H36210268   5.387   7.608   4.923  2.7793  0.5889 -1.4437
   14MOL   H36310269   5.361   7.438   4.884 -0.4126  0.3844  2.0885
   14MOL   H36410270   5.263   7.630   4.680 -0.0985 -0.2565  0.3141
   14MOL   H36510271   5.321   7.465   4.665  0.6699 -0.5062 -1.4005
   14MOL   H36610272   5.471   0.013   4.679 -2.1146 -1.1334  3.9952
   14MOL   H36710273   5.498   7.592   4.568  0.0584 -0.7505 -0.3102
   14MOL   H36810274   5.636   0.028   4.837  0.7145 -0.0583  1.3192
   14MOL   H36910275   5.711   7.669   5.021  0.7107 -0.9319  1.5889
   14MOL   H37010276   5.715   7.500   4.990  0.8424 -0.9110 -1.1070
   14MOL   H37110277   5.899   7.495   4.863  0.8104 -0.0539 -0.3178
   14MOL   H37210278   5.922   7.667   4.852  1.7957 -0.7020  0.8576
   14MOL   H37310279   5.920   7.506   5.105 -0.7361 -1.2000 -1.5453
   14MOL   H37410280   5.958   7.677   5.086  0.7999  0.0636  1.6516
   14MOL   H37510281   6.142   7.510   5.114  0.5221 -1.7676 -0.8095
   14MOL   H37610282   6.115   7.450   4.948  0.1244  0.1768 -0.6874
   14MOL   H37710283   6.150   7.708   4.882  1.0096  0.5059 -0.0779
   14MOL   H37810284   6.212   0.006   5.052  0.9026 -1.6550  2.1111
   14MOL   H37910285   6.293   7.525   4.829  0.3552 -0.9082  1.3985
   14MOL   H38010286   6.380   7.545   4.971 -0.1302 -0.4692 -0.1832
   14MOL   H38110287   6.432   0.075   4.923 -0.8848 -0.3962  2.2490
   14MOL   C38210288   6.440   0.029   4.724  0.7025 -0.3029 -0.4886
   14MOL   O38310289   6.408   7.660   4.636  0.7583 -0.1154 -0.3244
   14MOL   C38410290   6.522   0.155   4.693  0.1219 -0.1880  0.0433
   14MOL   C38510291   6.484   0.231   4.561 -0.7271 -0.1292  0.0127
   14MOL   C38610292   6.348   0.303   4.577  0.3174  0.1346 -0.0361
   14MOL   C38710293   6.344   0.432   4.662  0.2700 -0.2085 -0.2214
   14MOL   C38810294   6.292   0.409   4.803  0.4083  0.2071 -0.7918
   14MOL   O38910295   6.209   0.313   4.816 -0.1715 -0.3580 -0.4774
   14MOL   N39010296   6.322   0.493   4.903  0.0774  0.0647  0.1180
   14MOL   C39110297   6.295   0.466   5.046 -0.1430 -0.1688 -0.1591
   14MOL   C39210298   6.354   0.581   5.129 -0.1946 -0.1525 -0.2643
   14MOL   C39310299   6.288   0.602   5.264 -0.2121  0.4979  0.0619
   14MOL   C39410300   6.320   0.734   5.328 -0.4397 -0.0085  0.1574
   14MOL   C39510301   6.463   0.757   5.357 -0.5075 -0.2016 -0.3343
   14MOL   C39610302   6.486   0.882   5.449  0.6304  0.9795 -0.3634
   14MOL   N39710303   6.383   0.898   5.548 -0.0617 -0.0731  0.7142
   14MOL   H39810304   6.508   0.229   4.773 -2.4032  1.1062 -1.5240
   14MOL   H39910305   6.624   0.118   4.702 -0.0951 -0.2337  2.7467
   14MOL   H40010306   6.566   0.293   4.524 -0.8395 -0.2438 -0.4284
   14MOL   H40110307   6.463   0.150   4.491  1.3245 -0.4093 -0.3009
   14MOL   H40210308   6.268   0.236   4.609  0.6171 -1.4471 -2.4181
   14MOL   H40310309   6.324   0.328   4.473  2.4324  1.8351 -0.1416
   14MOL   H40410310   6.269   0.493   4.612  1.5827  0.4220 -1.4256
   14MOL   H40510311   6.436   0.490   4.661 -1.0041  1.8208 -0.5942
   14MOL   H40610312   6.376   0.576   4.885 -0.2225  0.2691  0.1455
   14MOL   H40710313   6.190   0.445   5.064 -0.2035 -0.6004 -1.0047
   14MOL   H40810314   6.344   0.374   5.078  1.4997 -0.6819 -3.9314
   14MOL   H40910315   6.461   0.566   5.137 -0.3997 -1.7549 -0.4354
   14MOL   H41010316   6.334   0.673   5.073  1.0086  1.2105  1.4977
   14MOL   H41110317   6.329   0.524   5.328 -2.8246 -0.5278  0.5261
   14MOL   H41210318   6.181   0.584   5.262 -0.0739 -0.4152  0.5888
   14MOL   H41310319   6.283   0.820   5.272 -2.0211  0.8493  2.4203
   14MOL   H41410320   6.254   0.719   5.413 -0.6949 -2.0983 -0.3917
   14MOL   H41510321   6.505   0.670   5.407  0.1651 -0.2018 -0.8974
   14MOL   H41610322   6.525   0.787   5.273 -1.3596 -1.2356 -1.3476
   14MOL   H41710323   6.469   0.964   5.379  1.6532  0.4452 -1.2580
   14MOL   H41810324   6.589   0.875   5.486  1.1677  0.3975 -1.9518
   14MOL   H41910325   6.300   0.945   5.513  0.4993  0.7787  0.4991
   14MOL   C42010326   6.388   0.836   5.662  0.1301 -0.2782  0.1264
   14MOL   O42110327   6.468   0.746   5.696 -1.3969  0.3069  0.1592
   14MOL   C42210328   6.274   0.850   5.763  0.1867  0.3506  0.4118
   14MOL   C42310329   6.151   0.784   5.710 -0.1289 -0.2852  0.1394
   14MOL   C42410330   6.019   0.791   5.800  0.1553 -0.1531 -0.0499
   14MOL   C42510331   5.906   0.702   5.754  0.2362 -0.4637 -0.2584
   14MOL   C42610332   5.940   0.557   5.775  0.3841 -0.3439  0.0492
   14MOL   O42710333   5.976   0.513   5.884 -0.1166  0.8329  0.3290
   14MOL   N42810334   5.938   0.474   5.667  0.3414 -0.5935  0.2340
   14MOL   C42910335   5.897   0.512   5.528 -0.0059 -0.3134 -0.0031
   14MOL   C43010336   5.910   0.390   5.439  0.5002  0.3939 -0.0363
   14MOL   C43110337   5.879   0.419   5.292 -1.1544 -0.1246  0.0549
   14MOL   C43210338   5.910   0.299   5.204 -0.7823 -0.2114  0.8120
   14MOL   C43310339   5.869   0.333   5.059  0.4806  0.4577  0.2299
   14MOL   C43410340   5.913   0.238   4.956  0.1103 -0.0254 -0.2907
   14MOL   N43510341   5.910   0.291   4.819  0.3438 -0.6749  0.2077
   14MOL   H43610342   6.304   0.807   5.859  3.5611  1.1774 -0.1952
   14MOL   H43710343   6.246   0.954   5.776 -0.0173  0.4823 -1.0267
   14MOL   H43810344   6.117   0.816   5.612  1.1646 -0.8138 -0.4807
   14MOL   H43910345   6.169   0.678   5.693  0.6510 -0.4509  1.8714
   14MOL   H44010346   5.978   0.891   5.793 -0.1068 -0.2433  0.1899
   14MOL   H44110347   6.049   0.773   5.904 -0.0408  0.1413  0.0546
   14MOL   H44210348   5.877   0.733   5.654  2.0265 -0.4896 -0.8038
   14MOL   H44310349   5.818   0.736   5.808  0.5786 -0.2988  0.2009
   14MOL   H44410350   5.972   0.381   5.682 -0.9256 -1.2101 -0.6478
   14MOL   H44510351   5.795   0.551   5.530  0.0799 -0.1158  1.1181
   14MOL   H44610352   5.960   0.589   5.484  0.1898 -1.2838 -1.4390
   14MOL   H44710353   6.013   0.357   5.430  0.3916 -1.0365  3.3997
   14MOL   H44810354   5.850   0.303   5.466  0.3004 -0.0180 -1.7558
   14MOL   H44910355   5.934   0.507   5.256 -0.9425  0.1392  1.0120
   14MOL   H45010356   5.771   0.425   5.281 -1.0554  1.4699 -0.1522
   14MOL   H45110357   6.014   0.266   5.212 -0.7127  0.3626  2.6215
   14MOL   H45210358   5.851   0.219   5.249  0.5973 -1.2357  0.8425
   14MOL   H45310359   5.760   0.340   5.056  0.4813  0.6813  0.7275
   14MOL   H45410360   5.909   0.433   5.046  1.3076  0.2624  1.2038
   14MOL   H45510361   5.848   0.151   4.956  1.2395 -0.8800  0.8028
   14MOL   H45610362   6.014   0.207   4.982  0.3813  0.5796 -0.6024
   14MOL   H45710363   6.000   0.315   4.778 -1.4054  0.9268 -2.9191
   14MOL   C45810364   5.804   0.290   4.738 -0.2774 -0.5937  0.1445
   14MOL   O45910365   5.695   0.253   4.781  0.7405 -0.6762 -0.6938
   14MOL   C46010366   5.824   0.348   4.594 -0.6415 -0.4571 -0.3951
   14MOL   C46110367   5.812   0.246   4.477  0.3060  0.2196  0.4222
   14MOL   C46210368   5.677   0.166   4.472  0.1805 -0.5880 -0.4081
   14MOL   C46310369   5.654   0.082   4.343 -0.0949  0.2579  0.7657
   14MOL   C46410370   5.639   0.164   4.221  0.2775  0.2552  0.0750
   14MOL   O46510371   5.547   0.251   4.211  0.4315  0.6019 -0.4396
   14MOL   N46610372   5.724   0.140   4.122 -0.8604 -0.5646 -0.1101
   14MOL   C46710373   5.721   0.210   3.991  0.4395  0.1578  0.3372
   14MOL   C46810374   5.822   0.156   3.899 -0.6695  0.1729  0.6131
   14MOL   C46910375   5.970   0.155   3.937  0.7359  0.6593 -0.1756
   14MOL   C47010376   6.034   0.062   3.835  0.2846 -0.6651 -0.4791
   14MOL   C47110377   6.185   0.067   3.831 -1.0039 -0.8933  0.2827
   14MOL   C47210378   6.256   0.202   3.815  0.2658 -0.8209  0.6500
   14MOL   N47310379   6.198   0.282   3.707 -1.1638  0.1379  0.0890
   14MOL   H47410380   5.748   0.427   4.591  0.3037  0.4829  0.1567
   14MOL   H47510381   5.922   0.395   4.587 -0.8666  0.2392  1.0331
   14MOL   H47610382   5.816   0.291   4.378  0.4304 -2.7583 -0.9927
   14MOL   H47710383   5.900   0.182   4.473  0.9178  1.1117 -0.7784
   14MOL   H47810384   5.601   0.243   4.485 -0.9284 -1.1975 -2.9242
   14MOL   H47910385   5.675   0.099   4.558 -0.1034  1.1183  0.9581
   14MOL   H48010386   5.559   0.029   4.348  0.0625 -0.1836 -0.9296
   14MOL   H48110387   5.730   0.004   4.336  0.4154  0.9840 -2.5468
   14MOL   H48210388   5.789   0.062   4.119 -1.7502 -1.2884 -0.9180
   14MOL   H48310389   5.629   0.195   3.934  0.5674  1.7115 -0.3290
   14MOL   H48410390   5.740   0.317   3.985  0.2668  0.1559 -0.3821
   14MOL   H48510391   5.800   0.052   3.875  1.2114 -0.2845  0.7868
   14MOL   H48610392   5.816   0.199   3.799  0.1113  0.9089  0.8695
   14MOL   H48710393   5.985   0.136   4.043 -2.3771  0.1650  0.2134
   14MOL   H48810394   6.009   0.256   3.922 -0.1331  0.9513 -0.5318
   14MOL   H48910395   6.015   7.664   3.846  1.3826 -0.7295  0.9974
   14MOL   H49010396   6.012   0.083   3.731 -0.8240  2.5420  0.3187
   14MOL   H49110397   6.224   0.021   3.922  1.4178  0.5764  0.0211
   14MOL   H49210398   6.204   7.701   3.753 -1.6077 -1.5482  0.7459
   14MOL   H49310399   6.364   0.191   3.822  0.2890 -2.4067 -1.5446
   14MOL   H49410400   6.221   0.262   3.899  0.4341 -0.1507  0.2399
   14MOL   H49510401   6.136   0.356   3.736  1.4852  1.7946  1.7758
   14MOL   C49610402   6.233   0.259   3.578  0.2290  0.0933  0.1653
   14MOL   O49710403   6.318   0.173   3.544  0.0282  0.2253 -0.2134
   14MOL   C49810404   6.161   0.361   3.480  0.3115 -0.1791  0.0911
   14MOL   C49910405   6.239   0.418   3.350  0.8128  0.5206 -0.0300
   14MOL   C50010406   6.328   0.542   3.376 -0.2062  0.8326  0.2441
   14MOL   C50110407   6.344   0.635   3.251  0.0429  0.2440 -0.2458
   14MOL   C50210408   6.384   0.558   3.125  0.2449 -0.1208 -0.0064
   14MOL   O50310409   6.302   0.504   3.048 -0.1205  0.6227  0.1591
   14MOL   N50410410   6.514   0.552   3.106  0.2034  0.0398 -0.4936
   14MOL   C50510411   6.575   0.475   2.993 -0.4249  0.7099  0.5255
   14MOL   C50610412   6.727   0.455   3.028  0.2043 -0.6206 -0.8418
   14MOL   C50710413   6.813   0.395   2.914 -0.5475 -0.8618 -0.2016
   14MOL   C50810414   6.949   0.354   2.964 -0.0387 -0.6695 -0.0274
   14MOL   C50910415   7.054   0.306   2.853 -0.3329 -0.1384 -0.4733
   14MOL   C51010416   7.179   0.250   2.925  0.1179 -0.0281  0.0173
   14MOL   N51110417   7.226   0.316   3.048  0.5280 -0.5952  0.6164
   14MOL   H51210418   6.069   0.317   3.440  0.9943 -1.6311  0.1155
   14MOL   H51310419   6.119   0.438   3.544 -0.4557  1.4624 -2.3046
   14MOL   H51410420   6.300   0.345   3.297  1.2107  1.5337 -0.9796
   14MOL   H51510421   6.160   0.441   3.279 -0.8479  1.1686  1.9678
   14MOL   H51610422   6.432   0.523   3.403  0.1399  0.9913 -0.9436
   14MOL   H51710423   6.286   0.593   3.462 -1.7825  2.4982 -1.4646
   14MOL   H51810424   6.420   0.712   3.265  2.1598 -1.8554  0.1512
   14MOL   H51910425   6.244   0.677   3.247 -0.5203 -0.9246  1.2634
   14MOL   H52010426   6.573   0.601   3.172 -1.2143 -0.5326  1.2288
   14MOL   H52110427   6.527   0.378   2.986  1.2091 -0.2137  1.8778
   14MOL   H52210428   6.564   0.542   2.907 -1.0270  1.4941  1.2001
   14MOL   H52310429   6.768   0.555   3.045 -0.4332 -0.3826 -0.6916
   14MOL   H52410430   6.731   0.394   3.118 -0.5273 -1.6846 -1.5273
   14MOL   H52510431   6.812   0.463   2.829 -1.7580 -0.9336 -0.2545
   14MOL   H52610432   6.769   0.307   2.867 -1.4431  0.4680 -1.9232
   14MOL   H52710433   6.994   0.446   3.004 -0.4418 -1.3953  2.1552
   14MOL   H52810434   6.945   0.276   3.039 -3.1424 -3.3328 -2.8099
   14MOL   H52910435   6.999   0.223   2.809 -2.1861 -0.0119  1.5482
   14MOL   H53010436   7.071   0.390   2.785 -0.6141  0.7255  0.5063
   14MOL   H53110437   7.253   0.235   2.846 -0.0474 -1.0310  0.0546
   14MOL   H53210438   7.164   0.146   2.951  0.4023 -0.3144 -0.9429
   14MOL   H53310439   7.201   0.278   3.138 -1.0798 -0.4258  0.2518
   14MOL   C53410440   7.301   0.425   3.050 -0.3448  0.3893 -0.2458
   14MOL   O53510441   7.360   0.465   2.947  0.3108  0.0070 -0.0143
   14MOL   C53610442   7.328   0.490   3.182 -0.5139 -0.1119  0.2688
   14MOL   C53710443   7.310   0.642   3.179  0.6912 -0.2574  0.5608
   14MOL   C53810444   7.330   0.709   3.322 -0.2613  0.4415  0.2854
   14MOL   C53910445   7.309   0.856   3.335  0.0836  0.4193 -0.0302
   14MOL   C54010446   7.157   0.883   3.353 -0.3731 -0.3913 -0.2487
   14MOL   O54110447   7.074   0.918   3.270  0.6248 -0.2848 -0.0062
   14MOL   N54210448   7.116   0.882   3.482 -0.1922  0.0905 -0.6067
   14MOL   C54310449   6.989   0.927   3.531 -0.3271  0.5946  0.5474
   14MOL   C54410450   6.960   0.871   3.665  0.7267 -0.2627  0.9171
   14MOL   C54510451   6.946   0.720   3.658  0.4169  0.2350  0.4250
   14MOL   C54610452   6.990   0.660   3.787 -0.5785  0.0480 -0.0051
   14MOL   C54710453   6.974   0.512   3.779 -0.1159  0.4503 -0.0514
   14MOL   C54810454   7.008   0.426   3.904  0.2296  0.3520 -0.2412
   14MOL   N54910455   7.044   0.287   3.878  0.0707 -0.6748  1.3102
   14MOL   H55010456   7.269   0.437   3.256 -1.8738  0.8182 -0.1147
   14MOL   H55110457   7.433   0.476   3.208 -0.1730  0.7831 -0.5447
   14MOL   H55210458   7.377   0.687   3.106 -2.1986  2.4811 -0.4938
   14MOL   H55310459   7.205   0.663   3.159  0.1714 -1.4272  1.9073
   14MOL   H55410460   7.432   0.683   3.350 -0.3028  1.0121  0.9973
   14MOL   H55510461   7.265   0.657   3.392 -1.1421 -0.1246 -0.9397
   14MOL   H55610462   7.348   0.906   3.246 -1.0340 -1.5448 -1.6379
   14MOL   H55710463   7.354   0.897   3.426 -1.0644  0.5577  0.4811
   14MOL   H55810464   7.185   0.859   3.552  1.4378 -0.8720 -2.4706
   14MOL   H55910465   6.993   1.036   3.522 -0.5862  0.5195 -0.4718
   14MOL   H56010466   6.908   0.913   3.460  0.0146 -0.3065  0.3283
   14MOL   H56110467   7.034   0.902   3.738  0.0902  0.7165  1.1638
   14MOL   H56210468   6.875   0.930   3.701 -1.3958 -1.7002 -1.4822
   14MOL   H56310469   7.023   0.677   3.594 -0.3231  2.7566 -2.2896
   14MOL   H56410470   6.849   0.680   3.628  0.9673  0.6210 -1.9413
   14MOL   H56510471   7.092   0.686   3.816 -1.1334  0.8911  1.2092
   14MOL   H56610472   6.920   0.688   3.866  0.4543  0.7491  0.6691
   14MOL   H56710473   6.874   0.479   3.750  0.3065 -0.4171 -0.5510
   14MOL   H56810474   7.037   0.477   3.698 -0.1905  1.2822 -0.4747
   14MOL   H56910475   6.925   0.412   3.973 -0.5292  0.2403 -1.1718
   14MOL   H57010476   7.085   0.474   3.964  0.0953 -0.2085  0.3829
   14MOL   H57110477   7.140   0.271   3.848 -0.4504 -0.0638 -0.7706
   14MOL   C57210478   6.964   0.179   3.890 -0.2119  0.4353  0.0292
   14MOL   O57310479   6.852   0.186   3.940  0.0248 -0.0757 -0.0087
   14MOL   C57410480   7.009   0.037   3.861  0.1933  0.3249 -0.3088
   14MOL   C57510481   7.057   7.663   3.986  0.5349 -0.7258 -0.3210
   14MOL   C57610482   7.206   7.637   3.984 -0.2441  0.2489 -0.7230
   14MOL   C57710483   7.252   7.545   4.097 -0.2449  0.2781  0.5089
   14MOL   C57810484   7.405   7.560   4.121 -0.1792 -0.8305  0.2920
   14MOL   O57910485   7.458   7.668   4.146 -0.3412 -0.3102  0.2513
   14MOL   N58010486   7.486   7.451   4.112  0.0334 -0.0406  0.5632
   14MOL   C58110487   7.631   7.451   4.145 -0.0265 -0.2188  0.0664
   14MOL   C58210488   7.692   7.316   4.156  0.1260  0.1572 -0.1261
   14MOL   C58310489   0.137   7.331   4.194  0.3269 -0.5152  0.9474
   14MOL   C58410490   0.198   7.200   4.235 -0.1878  0.0677  0.0212
   14MOL   C58510491   0.345   7.180   4.187 -0.4049 -0.4081  1.0614
   14MOL   C58610492   0.447   7.274   4.255 -0.3496  0.8543  0.1001
   14MOL   N58710493   0.584   7.248   4.213  0.1337 -0.0193 -0.3504
   14MOL   H58810494   6.926   7.691   3.815  0.2031  0.2272 -0.2106
   14MOL   H58910495   7.082   0.047   3.780 -0.9700  3.4488 -1.0470
   14MOL   H59010496   7.053   0.013   4.078  0.8506  0.4940 -1.0661
   14MOL   H59110497   6.993   7.579   4.013 -1.7369  0.4006 -1.9601
   14MOL   H59210498   7.243   0.029   4.005 -1.2757  0.3410  0.7855
   14MOL   H59310499   7.249   7.606   3.889  2.1727 -2.7011  1.2403
   14MOL   H59410500   7.231   7.443   4.065 -1.4090  0.4130  0.8233
   14MOL   H59510501   7.192   7.563   4.186 -1.1855  0.1713 -0.0973
   14MOL   H59610502   7.452   7.357   4.098  0.3631 -0.2880  1.3581
   14MOL   H59710503   7.681   7.508   4.067 -0.8480  1.1850  0.5371
   14MOL   H59810504   7.649   7.510   4.235 -1.4681 -0.4452  0.5227
   14MOL   H59910505   7.635   7.261   4.230  0.5499 -1.3525 -0.8956
   14MOL   H60010506   7.658   7.255   4.072  0.5665  0.3694 -0.4580
   14MOL   H60110507   0.159   7.408   4.268  1.1161  0.4428 -0.2625
   14MOL   H60210508   0.191   7.375   4.110  0.0565 -2.1948 -0.1104
   14MOL   H60310509   0.203   7.195   4.344 -1.6708  0.7350  0.1228
   14MOL   H60410510   0.142   7.118   4.189 -0.1836  0.4916 -0.7412
   14MOL   H60510511   0.372   7.079   4.218  0.7940 -0.6037 -0.5283
   14MOL   H60610512   0.364   7.183   4.080 -3.0261 -0.0388  0.5652
   14MOL   H60710513   0.451   7.248   4.361 -0.3934 -0.8943 -0.3070
   14MOL   H60810514   0.407   7.375   4.245  0.9127  1.2680 -0.8779
   14MOL   H60910515   0.619   7.166   4.260 -1.2613 -0.6083 -0.3177
   14MOL   C61010516   0.657   7.321   4.128 -0.2965  0.7485  0.0402
   14MOL   O61110517   0.617   7.424   4.081  0.0837  0.3603 -0.8554
   14MOL   C61210518   0.805   7.276   4.128  0.2024 -0.7474  0.1233
   14MOL   C61310519   0.826   7.157   4.034 -0.3797  0.1072  0.2795
   14MOL   C61410520   0.768   7.171   3.890 -0.8837  0.0442 -0.3639
   14MOL   C61510521   0.799   7.050   3.808 -0.5662  0.2579  0.7970
   14MOL   C61610522   0.787   7.077   3.663  0.0697  0.3190  0.3076
   14MOL   O61710523   0.683   7.046   3.605  0.5233  0.1635  0.0936
   14MOL   N61810524   0.899   7.108   3.599  0.2784  0.2012 -0.5025
   14MOL   C61910525   0.905   7.081   3.452  0.5156  0.0452 -0.2347
   14MOL   C62010526   1.004   7.173   3.378 -0.3948 -0.0973  0.0690
   14MOL   C62110527   1.019   7.146   3.230 -0.2610 -0.1976  0.0799
   14MOL   C62210528   1.070   7.010   3.187 -0.0033 -0.3157 -0.3511
   14MOL   C62310529   1.218   6.984   3.222 -0.2527  0.1363 -0.4601
   14MOL   C62410530   1.267   6.834   3.213  0.8436 -0.2309  0.7950
   14MOL   N62510531   1.403   6.835   3.262  0.4148  0.5022 -0.2005
   14MOL   H62610532   0.855   7.358   4.077  1.6222 -2.5904 -1.5293
   14MOL   H62710533   0.847   7.264   4.227  0.7349 -0.4634 -0.0666
   14MOL   H62810534   0.927   7.117   4.032  0.3851  1.9550  0.7317
   14MOL   H62910535   0.779   7.074   4.086  0.5190 -1.4258 -1.3236
   14MOL   H63010536   0.813   7.259   3.844  0.6069  0.3185  1.5510
   14MOL   H63110537   0.660   7.186   3.895 -0.7997  0.5153  0.0552
   14MOL   H63210538   0.743   6.965   3.849 -0.5038  0.0008  0.3515
   14MOL   H63310539   0.904   7.020   3.811 -0.1537  1.7133  1.4594
   14MOL   H63410540   0.983   7.137   3.647 -0.4932  1.5020  0.1023
   14MOL   H63510541   0.919   6.975   3.434 -0.5601  0.1625 -1.8227
   14MOL   H63610542   0.810   7.092   3.400 -1.3759 -1.5689  2.7132
   14MOL   H63710543   0.974   7.277   3.384 -2.6121 -0.5823 -1.9333
   14MOL   H63810544   1.100   7.174   3.431 -0.8809 -0.6587  0.9812
   14MOL   H63910545   1.097   7.214   3.193  0.3952 -0.3936  1.0848
   14MOL   H64010546   0.933   7.173   3.169 -1.0191 -1.1011  0.7434
   14MOL   H64110547   1.011   6.937   3.242 -1.1672  1.0636  0.2758
   14MOL   H64210548   1.043   7.001   3.082 -2.0258  1.0687  0.0099
   14MOL   H64310549   1.272   7.039   3.145 -0.6454 -0.4535 -1.1627
   14MOL   H64410550   1.248   7.007   3.325  0.4989 -0.3324 -0.5763
   14MOL   H64510551   1.263   6.798   3.110 -2.3166 -0.2079  0.8478
   14MOL   H64610552   1.200   6.768   3.268 -0.2036  1.4102  1.5469
   14MOL   H64710553   1.420   6.907   3.331 -2.2084  1.0726 -0.0649
   14MOL   C64810554   1.503   6.756   3.218 -0.4832 -0.4546  0.0825
   14MOL   O64910555   1.484   6.687   3.117 -0.5720  0.0066  0.0411
   14MOL   C65010556   1.627   6.762   3.303 -0.1105  0.3536  0.4132
   14MOL   C65110557   1.742   6.688   3.244 -0.2034 -0.5601 -0.5471
   14MOL   C65210558   1.858   6.659   3.345  0.8031 -0.5231  0.4106
   14MOL   C65310559   1.960   6.569   3.272  0.3564  0.1070  0.1368
   14MOL   C65410560   2.097   6.550   3.341 -0.3067 -0.3920  0.0887
   14MOL   O65510561   2.110   6.480   3.445  0.1015 -0.0879  0.3345
   14MOL   N65610562   2.202   6.613   3.291 -0.2424  0.0139  0.2643
   14MOL   C65710563   2.333   6.612   3.355 -0.6358 -0.2701 -0.5283
   14MOL   C65810564   2.438   6.672   3.258 -0.3676 -0.6999 -0.2221
   14MOL   C65910565   2.566   6.690   3.336 -0.2543  0.6685 -0.3383
   14MOL   C66010566   2.637   6.552   3.365  0.2108 -0.2638  0.0083
   14MOL   C66110567   2.767   6.572   3.442  0.4522 -0.1026  0.4741
   14MOL   C66210568   2.818   6.451   3.511  0.5931 -0.1336  0.6237
   14MOL   N66310569   2.733   6.411   3.621 -0.1339 -0.1459  0.5570
   14MOL   H66410570   1.670   6.860   3.323  1.8064 -0.7899  2.0234
   14MOL   H66510571   1.599   6.720   3.400  2.5306 -0.9877  0.6193
   14MOL   H66610572   1.708   6.594   3.203 -0.2690 -1.1156  0.7704
   14MOL   H66710573   1.777   6.753   3.164 -1.5671  1.0560  0.1300
   14MOL   H66810574   1.813   6.609   3.431 -1.2680  2.1271  0.9145
   14MOL   H66910575   1.901   6.751   3.384  1.5514 -1.1899  1.1670
   14MOL   H67010576   1.992   6.596   3.171 -2.0584  1.8882 -0.1855
   14MOL   H67110577   1.917   6.472   3.247  0.6244 -0.5974  2.2877
   14MOL   H67210578   2.180   6.681   3.220 -1.8895  0.2721  0.9859
   14MOL   H67310579   2.315   6.671   3.444 -0.1617  0.1741 -0.7237
   14MOL   H67410580   2.360   6.509   3.375  1.0778  0.3283  0.3497
   14MOL   H67510581   2.463   6.626   3.162  1.3829 -2.9026  1.2362
   14MOL   H67610582   2.419   6.766   3.206  0.3155 -0.8694 -0.7827
   14MOL   H67710583   2.557   6.730   3.437  0.3940  0.8090 -0.3306
   14MOL   H67810584   2.643   6.747   3.283 -0.2562 -0.4430 -1.5874
   14MOL   H67910585   2.567   6.490   3.421  0.7018  0.6293  1.6326
   14MOL   H68010586   2.656   6.503   3.269 -1.0651  1.4254 -1.1392
   14MOL   H68110587   2.846   6.615   3.379 -2.2466  0.1898 -2.8269
   14MOL   H68210588   2.755   6.637   3.528 -2.1624 -1.8852  1.5147
   14MOL   H68310589   2.902   6.499   3.561  0.4939  1.0495 -0.3386
   14MOL   H68410590   2.851   6.372   3.442  1.7138 -0.6807  1.7683
   14MOL   H68510591   2.749   6.462   3.707 -1.0962 -0.1862  0.7611
   14MOL   C68610592   2.659   6.301   3.624 -0.0974  0.3712  0.1857
   14MOL   O68710593   2.640   6.225   3.531 -0.1097 -0.5223 -0.1165
   14MOL   C68810594   2.579   6.268   3.753  0.1762  0.0837 -0.2312
   14MOL   C68910595   2.431   6.313   3.757 -0.3900  0.1908  0.3950
   14MOL   C69010596   2.408   6.458   3.718 -0.4000  0.0664  0.2697
   14MOL   C69110597   2.257   6.487   3.731  0.1951 -0.3661  0.0828
   14MOL   C69210598   2.233   6.637   3.712 -0.0412 -0.1189 -0.2540
   14MOL   O69310599   2.299   6.712   3.776  0.0988  0.1681  0.4870
   14MOL   N69410600   2.128   6.676   3.633  0.0976 -0.0957  0.0835
   14MOL   C69510601   2.089   6.819   3.618 -0.2000  0.8316  0.5179
   14MOL   C69610602   1.949   6.835   3.684  0.0928  0.4326  0.2779
   14MOL   C69710603   1.885   6.973   3.675 -0.2688 -0.1170  0.5407
   14MOL   C69810604   1.735   6.972   3.696  0.1604  0.4915  0.6416
   14MOL   C69910605   1.662   7.101   3.660 -0.3064 -0.1527 -0.3877
   14MOL   C70010606   1.508   7.107   3.708 -0.4179 -0.0080  0.7558
   14MOL   N70110607   1.447   6.994   3.656 -0.3548 -0.3873  0.5381
   14MOL   H70210608   2.569   6.160   3.762 -1.5510  0.2882  0.5420
   14MOL   H70310609   2.634   6.299   3.842  0.4678 -0.9528 -0.0429
   14MOL   H70410610   2.374   6.255   3.684  1.2603 -1.9939  0.8144
   14MOL   H70510611   2.385   6.286   3.852  2.2935  1.3596  2.0971
   14MOL   H70610612   2.445   6.480   3.618 -1.3684  1.1729  0.1459
   14MOL   H70710613   2.477   6.504   3.788 -0.0779 -1.0542  0.7069
   14MOL   H70810614   2.230   6.464   3.834 -1.8748  1.0030 -0.1360
   14MOL   H70910615   2.196   6.431   3.660  0.7239 -2.8050  1.4628
   14MOL   H71010616   2.084   6.598   3.586  1.2676  0.1215 -1.4154
   14MOL   H71110617   2.160   6.880   3.672  0.6376  0.7354 -0.4479
   14MOL   H71210618   2.073   6.851   3.515 -0.2678 -1.1418 -0.1164
   14MOL   H71310619   1.878   6.764   3.640 -0.2463  0.2845  1.0446
   14MOL   H71410620   1.963   6.793   3.784  2.7948 -1.4979 -0.8479
   14MOL   H71510621   1.901   7.025   3.581  0.5363 -0.3341  0.5557
   14MOL   H71610622   1.931   7.035   3.753 -0.3712  1.5629 -0.6890
   14MOL   H71710623   1.703   6.893   3.627  1.2428  1.1598 -0.6463
   14MOL   H71810624   1.712   6.950   3.800 -1.0962 -0.4111  0.1972
   14MOL   H71910625   1.710   7.184   3.711 -1.6667  0.8652 -0.7185
   14MOL   H72010626   1.679   7.129   3.556  0.5361 -0.1466 -0.2456
   14MOL   H72110627   1.468   7.199   3.663  0.3722  0.2282  0.5267
   14MOL   H72210628   1.500   7.114   3.816  0.5134  0.6142  0.7861
   14MOL   H72310629   1.506   6.912   3.659  0.9974  0.5746  0.5957
   14MOL   C72410630   1.322   6.963   3.623 -0.0356 -0.1218  0.3891
   14MOL   O72510631   1.229   7.046   3.618  0.3899  0.3103  0.1900
   14MOL   C72610632   1.292   6.811   3.600 -0.8617  0.4788  0.2210
   14MOL   C72710633   1.193   6.753   3.696  0.2582  0.2052  0.4709
   14MOL   C72810634   1.044   6.790   3.663 -0.6872 -0.5113 -0.0593
   14MOL   C72910635   0.978   6.706   3.560 -0.3537 -0.0851  0.2598
   14MOL   C73010636   0.964   6.559   3.588 -0.3693 -0.4256  0.3537
   14MOL   O73110637   0.957   6.512   3.697 -0.3645 -0.0050 -0.6492
   14MOL   N73210638   0.967   6.483   3.481 -0.5035 -0.1871  0.8400
   14MOL   C73310639   0.984   6.335   3.481  0.3000  0.4650  0.0357
   14MOL   C73410640   0.903   6.278   3.356 -0.1659  0.1615 -0.1802
   14MOL   C73510641   0.874   6.132   3.359  0.5729 -0.2181  0.1014
   14MOL   C73610642   0.772   6.094   3.249  0.3464  0.0032 -0.1054
   14MOL   C73710643   0.623   6.117   3.279  0.5132  0.2127 -0.0949
   14MOL   C73810644   0.540   6.044   3.181  0.0496 -0.4355  0.0623
   14MOL   N73910645   0.406   6.086   3.205 -0.0886 -0.0062 -0.1364
   14MOL   H74010646   1.250   6.799   3.500 -1.2382 -0.1570  0.4576
   14MOL   H74110647   1.382   6.750   3.592 -2.8865 -2.5837  0.3691
   14MOL   H74210648   1.207   6.646   3.684  1.5479  0.5285 -0.9987
   14MOL   H74310649   1.207   6.781   3.801 -1.6296  0.7163  0.6084
   14MOL   H74410650   1.035   6.895   3.633  1.5479  0.2952  1.9475
   14MOL   H74510651   0.987   6.779   3.755 -1.3622  1.9025 -0.1625
   14MOL   H74610652   1.024   6.715   3.462 -1.6062  0.6825 -0.2742
   14MOL   H74710653   0.872   6.734   3.555 -0.7892 -1.1854  2.7064
   14MOL   H74810654   0.987   6.530   3.394  1.2770  0.5125  1.5975
   14MOL   H74910655   1.080   6.284   3.473 -0.5457 -1.3279  1.0821
   14MOL   H75010656   0.940   6.292   3.571 -0.1479 -0.0326 -0.4178
   14MOL   H75110657   0.801   6.315   3.358 -0.7659 -1.4307 -1.1560
   14MOL   H75210658   0.948   6.301   3.259 -0.7002 -0.8078 -0.6590
   14MOL   H75310659   0.845   6.109   3.461  1.4566  0.5214  0.5262
   14MOL   H75410660   0.962   6.070   3.341  0.5979 -0.2479  0.3287
   14MOL   H75510661   0.815   6.132   3.156  1.5541  0.3906  0.5974
   14MOL   H75610662   0.778   5.986   3.233  1.9796 -0.1489  1.3114
   14MOL   H75710663   0.607   6.076   3.379  0.8721 -0.9283 -0.4911
   14MOL   H75810664   0.593   6.221   3.278 -0.5404 -0.0818 -2.6405
   14MOL   H75910665   0.544   5.935   3.186 -3.1219 -0.5473  1.3537
   14MOL   H76010666   0.575   6.077   3.084 -1.5679  0.4757 -0.2296
   14MOL   H76110667   0.345   6.037   3.140 -2.3204  0.9092  1.2139
   14MOL   H76210668   0.388   6.184   3.188 -1.3859 -0.1552  0.3068
   15MOL     C110669   2.521   7.518   5.697  0.1967 -0.1267  0.1885
   15MOL     O210670   2.433   7.476   5.622  0.1501  0.1287 -0.3912
   15MOL     C310671   2.489   7.627   5.803  0.4118  0.3460 -0.7855
   15MOL     C410672   2.517   0.064   5.761 -0.4734 -0.1393 -0.5042
   15MOL     C510673   2.454   0.102   5.627  0.2434  0.0783  0.8036
   15MOL     C610674   2.441   0.257   5.605  0.8226  0.5450 -0.2531
   15MOL     C710675   2.374   0.266   5.469 -0.5765 -0.6365  0.2411
   15MOL     O810676   2.249   0.262   5.463 -0.8676  0.3075 -0.0740
   15MOL     N910677   2.454   0.277   5.365  0.3309  0.4769  0.4523
   15MOL    C1010678   2.410   0.315   5.236 -0.2091 -0.3312 -0.2447
   15MOL    C1110679   2.532   0.366   5.152 -0.2567  0.1011  0.1935
   15MOL    C1210680   2.494   0.389   5.007  0.3064  0.9735  0.7420
   15MOL    C1310681   2.565   0.511   4.939 -0.5046  0.3557 -0.5980
   15MOL    C1410682   2.721   0.502   4.934  0.1396 -0.5077 -0.1711
   15MOL    C1510683   2.773   0.389   4.838  0.2867  0.5369 -0.0953
   15MOL    N1610684   2.918   0.377   4.859  0.7674  0.3842  0.1191
   15MOL    H1710685   2.381   7.618   5.813  0.6811 -0.3386  2.1729
   15MOL    H1810686   2.528   7.602   5.902  0.7625 -0.7639 -1.1951
   15MOL    H1910687   2.470   0.134   5.830 -2.4811 -0.7358 -1.2522
   15MOL    H2010688   2.626   0.076   5.762 -0.7858  3.1481  1.3126
   15MOL    H2110689   2.359   0.048   5.618  0.3824 -0.3519  1.7429
   15MOL    H2210690   2.516   0.059   5.548  1.9839 -0.8552  2.6250
   15MOL    H2310691   2.539   0.303   5.615  0.6835  0.8104 -0.0864
   15MOL    H2410692   2.377   0.306   5.679  1.0403  1.7015 -0.8036
   15MOL    H2510693   2.554   0.288   5.376  0.2077  1.2091  0.8826
   15MOL    H2610694   2.354   0.240   5.181 -0.1011 -0.8049  0.2828
   15MOL    H2710695   2.335   0.392   5.250 -1.7422 -2.0871  1.3755
   15MOL    H2810696   2.560   0.468   5.178  0.5204  0.1300 -0.7278
   15MOL    H2910697   2.629   0.317   5.150 -1.9876 -3.5708  1.9910
   15MOL    H3010698   2.386   0.402   5.004  0.0207 -0.9146  1.8427
   15MOL    H3110699   2.526   0.302   4.949 -1.0458  0.5862  0.5552
   15MOL    H3210700   2.519   0.517   4.840 -0.0368 -0.0181 -0.8404
   15MOL    H3310701   2.519   0.595   4.990 -3.2119 -0.6281 -1.3330
   15MOL    H3410702   2.766   0.598   4.909 -1.5357 -0.4081 -3.0960
   15MOL    H3510703   2.761   0.475   5.031  0.9282  0.0819 -0.3210
   15MOL    H3610704   2.762   0.426   4.736 -2.0968 -1.1529 -0.5003
   15MOL    H3710705   2.726   0.293   4.860  0.0741 -0.0362 -2.8480
   15MOL    H3810706   2.947   0.295   4.912 -0.2966 -1.8040 -2.5430
   15MOL    H3910707   2.626   7.491   5.692  0.1264  0.0623 -3.8845
   15MOL    C4010708   3.010   0.445   4.795 -0.5297  0.5625 -0.3059
   15MOL    O4110709   2.984   0.542   4.722 -0.3033 -0.2202 -0.2309
   15MOL    C4210710   3.154   0.408   4.824 -0.7585  0.5050 -0.2803
   15MOL    C4310711   3.249   0.516   4.891  0.5524 -1.0415 -0.1329
   15MOL    C4410712   3.240   0.659   4.831 -0.0860 -0.0930 -0.4499
   15MOL    C4510713   3.339   0.755   4.894  0.4529  0.7433  0.4555
   15MOL    C4610714   3.481   0.745   4.841  0.2201  0.1507  0.4121
   15MOL    O4710715   3.518   0.662   4.760 -0.4139 -0.2079  0.5918
   15MOL    N4810716   3.563   0.842   4.882  0.4051 -0.3906  0.0201
   15MOL    C4910717   3.709   0.848   4.857 -0.3197 -0.3734 -0.0866
   15MOL    C5010718   3.728   0.936   4.742 -0.5293  0.2411 -0.2588
   15MOL    C5110719   3.876   0.966   4.706 -0.4935  0.0191  0.8057
   15MOL    C5210720   3.895   1.033   4.568 -1.1186  0.3107 -0.7433
   15MOL    C5310721   4.028   1.102   4.563  0.1630 -0.3942 -0.2469
   15MOL    C5410722   4.065   1.148   4.418  0.0961  0.1527 -0.4983
   15MOL    N5510723   4.214   1.156   4.417  0.6080  0.4721  0.1383
   15MOL    H5610724   3.173   0.312   4.873  1.1101  0.2886 -1.3805
   15MOL    H5710725   3.195   0.396   4.724  1.9199 -2.0383  1.0386
   15MOL    H5810726   3.226   0.526   4.997  0.1351 -0.7728 -0.2459
   15MOL    H5910727   3.354   0.486   4.891  0.8083 -0.2316  2.2721
   15MOL    H6010728   3.141   0.699   4.854  0.8150  1.4503  0.7832
   15MOL    H6110729   3.254   0.661   4.723  2.7319 -2.1355 -0.1837
   15MOL    H6210730   3.343   0.739   5.002 -2.5958  2.1216  0.8248
   15MOL    H6310731   3.297   0.854   4.878  0.2208  0.6856  0.7057
   15MOL    H6410732   3.532   0.903   4.956  2.1754  0.7779 -0.1734
   15MOL    H6510733   3.753   0.882   4.951 -1.5044 -0.0016  0.3473
   15MOL    H6610734   3.742   0.746   4.840 -1.0329 -0.8718  1.4366
   15MOL    H6710735   3.684   0.888   4.655 -1.1248  1.2469 -0.5180
   15MOL    H6810736   3.674   1.027   4.767 -0.1298  0.8279 -1.5308
   15MOL    H6910737   3.927   0.870   4.705  0.1493  0.3692  0.3329
   15MOL    H7010738   3.917   1.031   4.783 -1.0890  0.2979  0.8963
   15MOL    H7110739   3.878   0.961   4.488 -0.3054  0.1843 -0.8108
   15MOL    H7210740   3.821   1.111   4.555 -0.8433  0.4511 -1.5165
   15MOL    H7310741   4.049   1.180   4.636 -0.4594 -1.8072  1.4559
   15MOL    H7410742   4.097   1.018   4.577  0.2222 -0.3122 -0.0578
   15MOL    H7510743   4.029   1.248   4.395  2.0909  0.7242 -1.2794
   15MOL    H7610744   4.019   1.080   4.346  0.2606 -1.5504  0.9618
   15MOL    H7710745   4.268   1.070   4.415  1.4687  0.8913  2.8331
   15MOL    C7810746   4.291   1.267   4.401 -0.5726  0.2000  0.5054
   15MOL    O7910747   4.257   1.383   4.417  0.0256 -0.6419 -0.7632
   15MOL    C8010748   4.433   1.239   4.366 -0.7638  0.1541 -0.3433
   15MOL    C8110749   4.534   1.346   4.402  0.1876  0.2220  0.1364
   15MOL    C8210750   4.679   1.313   4.372 -0.5986 -0.2927 -0.5539
   15MOL    C8310751   4.724   1.333   4.222 -0.6876  0.3326 -0.4214
   15MOL    C8410752   4.877   1.323   4.234 -0.0005 -0.1411 -0.0763
   15MOL    O8510753   4.931   1.227   4.292 -0.7070  0.4349 -0.4489
   15MOL    N8610754   4.952   1.424   4.185 -0.1349 -0.2030  0.4070
   15MOL    C8710755   5.099   1.418   4.186  0.3963  0.5598 -0.4443
   15MOL    C8810756   5.159   1.542   4.129 -0.1556  0.3119 -0.3233
   15MOL    C8910757   5.115   1.560   3.977 -0.1617  0.5797 -0.8645
   15MOL    C9010758   5.143   1.697   3.920 -0.1174 -0.0650  0.0048
   15MOL    C9110759   5.079   1.713   3.783 -0.2093  0.1446  0.5620
   15MOL    C9210760   5.126   1.836   3.702 -0.9696  0.9068 -0.0992
   15MOL    N9310761   5.053   1.871   3.586  0.4268  0.2942 -0.1194
   15MOL    H9410762   4.459   1.141   4.407 -2.2844 -0.5299 -0.9670
   15MOL    H9510763   4.441   1.218   4.259 -1.4146  2.2099 -0.8086
   15MOL    H9610764   4.501   1.440   4.357  0.8257  0.0320 -0.7390
   15MOL    H9710765   4.530   1.359   4.510 -0.8218  0.9692  0.0113
   15MOL    H9810766   4.696   1.207   4.389  1.7554  0.3077  1.1178
   15MOL    H9910767   4.743   1.367   4.442 -0.2655 -1.7118  0.2445
   15MOL   H10010768   4.688   1.426   4.178 -1.5745 -0.1853 -0.7945
   15MOL   H10110769   4.681   1.260   4.154 -1.8011 -0.6979  1.3564
   15MOL   H10210770   4.903   1.505   4.151 -0.3941 -0.2588  0.6439
   15MOL   H10310771   5.141   1.393   4.284 -0.7099  0.6515  0.0562
   15MOL   H10410772   5.130   1.333   4.126  1.2732  0.4139  0.2063
   15MOL   H10510773   5.132   1.623   4.196 -0.6241 -0.2459  0.1610
   15MOL   H10610774   5.268   1.544   4.130 -0.1396  0.1743  1.9285
   15MOL   H10710775   5.007   1.547   3.980 -0.0038 -1.1278 -2.0013
   15MOL   H10810776   5.159   1.487   3.909  0.2679  1.3200 -1.3868
   15MOL   H10910777   5.107   1.762   4.000 -0.3477  0.4518 -0.5202
   15MOL   H11010778   5.252   1.709   3.916  0.0332 -0.8959  1.2315
   15MOL   H11110779   5.092   1.619   3.729 -0.8499 -0.6747  1.8111
   15MOL   H11210780   4.970   1.713   3.788 -0.2137  0.0779  0.4724
   15MOL   H11310781   5.234   1.831   3.687 -1.0325 -0.1125 -0.2524
   15MOL   H11410782   5.123   1.921   3.770  3.4779  0.1944  1.1382
   15MOL   H11510783   5.097   1.841   3.500  1.7451 -1.2595  1.0465
   15MOL   C11610784   4.924   1.902   3.580  0.6681  0.0631 -0.1998
   15MOL   O11710785   4.872   1.937   3.690 -0.5494 -0.5007 -0.2333
   15MOL   C11810786   4.844   1.900   3.448  0.8874 -0.5075  0.0757
   15MOL   C11910787   4.727   1.790   3.452 -0.0292 -0.2414 -0.1806
   15MOL   C12010788   4.682   1.755   3.311  0.1184  0.5056 -0.1420
   15MOL   C12110789   4.580   1.641   3.307  0.1112  0.5814 -0.7423
   15MOL   C12210790   4.533   1.613   3.167  0.3014 -0.4063  0.1909
   15MOL   O12310791   4.618   1.591   3.082  0.1753 -0.3533  0.4896
   15MOL   N12410792   4.397   1.618   3.149  0.4473 -0.3741 -0.2369
   15MOL   C12510793   4.335   1.602   3.023 -0.8187  0.0034  0.3498
   15MOL   C12610794   4.237   1.712   2.987 -0.3405  0.1492 -0.1868
   15MOL   C12710795   4.113   1.707   3.076 -0.5396  0.8730  0.0886
   15MOL   C12810796   4.011   1.823   3.046  1.1550 -0.3495 -0.1382
   15MOL   C12910797   3.901   1.839   3.152  0.3662  0.0462  0.1932
   15MOL   C13010798   3.832   1.977   3.144 -0.2373 -0.1070  0.4409
   15MOL   N13110799   3.925   2.099   3.170 -0.0778 -0.4186 -0.4176
   15MOL   H13210800   4.812   2.004   3.436 -0.3106 -1.0859 -1.9019
   15MOL   H13310801   4.907   1.870   3.364 -1.0358 -3.4805 -0.3578
   15MOL   H13410802   4.751   1.702   3.512  0.5912  0.0260 -0.0339
   15MOL   H13510803   4.642   1.826   3.510  1.4109  1.6297  0.8651
   15MOL   H13610804   4.773   1.736   3.252  0.6320 -1.5797  1.2643
   15MOL   H13710805   4.638   1.842   3.264  1.4269  0.0415 -2.3376
   15MOL   H13810806   4.513   1.666   3.388  2.7024  2.8647  0.7963
   15MOL   H13910807   4.628   1.552   3.348 -1.2638  0.4468  0.5932
   15MOL   H14010808   4.349   1.607   3.238  1.7565 -1.0125  0.4103
   15MOL   H14110809   4.407   1.578   2.945  0.4533 -0.3978  1.6242
   15MOL   H14210810   4.280   1.508   3.026  2.0611 -1.7417  0.3708
   15MOL   H14310811   4.298   1.802   2.996 -0.2484  0.1628 -0.9654
   15MOL   H14410812   4.219   1.702   2.880  3.2474 -1.1270 -0.7459
   15MOL   H14510813   4.139   1.712   3.181 -3.1660  0.4374  0.7937
   15MOL   H14610814   4.065   1.611   3.058  0.4873  0.6792 -1.7357
   15MOL   H14710815   4.069   1.915   3.045  3.7170 -1.9066 -0.6338
   15MOL   H14810816   3.961   1.814   2.949 -0.4166 -1.3087  0.7362
   15MOL   H14910817   3.842   1.748   3.139 -2.4428  1.9781 -1.0286
   15MOL   H15010818   3.945   1.841   3.252 -1.4054  1.4137  0.9768
   15MOL   H15110819   3.741   1.983   3.204  1.1367  0.0613  2.5888
   15MOL   H15210820   3.792   1.989   3.044  3.6216 -1.5514 -1.3779
   15MOL   H15310821   4.014   2.076   3.213  0.1939  1.6746  0.1890
   15MOL   C15410822   3.888   2.228   3.160  0.1137  0.2833 -0.2598
   15MOL   O15510823   3.771   2.255   3.142 -0.3049  0.0481 -0.6132
   15MOL   C15610824   3.977   2.342   3.198 -0.3308 -0.9163 -0.1535
   15MOL   C15710825   3.930   2.485   3.211  0.1919 -0.1861 -0.9356
   15MOL   C15810826   3.884   2.549   3.080 -0.3732 -0.0625  0.3440
   15MOL   C15910827   4.000   2.552   2.974  0.1842 -0.0273 -1.0410
   15MOL   C16010828   3.960   2.581   2.830 -0.1201 -0.1264 -0.3678
   15MOL   O16110829   3.886   2.506   2.766  0.0307  0.0390 -0.3168
   15MOL   N16210830   4.017   2.691   2.772 -0.5010 -0.4769  0.0500
   15MOL   C16310831   3.974   2.749   2.641 -0.4166 -0.8920  0.7652
   15MOL   C16410832   3.814   2.769   2.632 -0.7192 -0.6080 -0.3049
   15MOL   C16510833   3.755   2.841   2.754 -0.9674  0.0959  0.8003
   15MOL   C16610834   3.604   2.865   2.742 -0.3053 -0.5009  0.0389
   15MOL   C16710835   3.541   2.969   2.832 -0.4900 -0.5378  0.1131
   15MOL   C16810836   3.574   2.951   2.981 -0.7354  0.5426 -0.0868
   15MOL   N16910837   3.513   3.057   3.051  0.0167 -0.5906  0.3101
   15MOL   H17010838   3.993   2.322   3.304 -1.6624  3.1206  0.8877
   15MOL   H17110839   4.070   2.349   3.142 -1.3237  3.3135 -1.4423
   15MOL   H17210840   3.842   2.484   3.274  1.0512 -2.5394  0.2718
   15MOL   H17310841   4.006   2.546   3.260 -0.6907 -0.6893  1.1117
   15MOL   H17410842   3.852   2.649   3.108  1.2758  0.3828  0.6723
   15MOL   H17510843   3.796   2.506   3.030 -1.2564  0.9523  0.9991
   15MOL   H17610844   4.065   2.465   2.979 -0.2497 -0.3504 -1.0264
   15MOL   H17710845   4.061   2.635   3.011 -1.4949 -0.0616  1.9896
   15MOL   H17810846   4.100   2.737   2.806 -0.8735  0.0414  0.2759
   15MOL   H17910847   4.017   2.847   2.622 -1.7150 -0.7061 -1.4012
   15MOL   H18010848   4.012   2.683   2.563  1.1039  0.1891  0.5809
   15MOL   H18110849   3.791   2.837   2.549  1.8853  1.1512  0.3695
   15MOL   H18210850   3.770   2.672   2.610 -3.6534  1.2285 -3.0617
   15MOL   H18310851   3.807   2.937   2.760  1.5064 -1.0230 -1.4039
   15MOL   H18410852   3.760   2.780   2.843  0.7879 -1.0705 -0.0675
   15MOL   H18510853   3.585   2.900   2.640 -1.4479 -1.3237 -0.0374
   15MOL   H18610854   3.554   2.768   2.751  0.0691 -0.4723  2.8669
   15MOL   H18710855   3.588   3.061   2.797 -1.6337  0.2894  0.7241
   15MOL   H18810856   3.434   2.977   2.810 -0.0611  0.3731 -1.7662
   15MOL   H18910857   3.682   2.957   2.991 -0.8032  3.8624 -0.8937
   15MOL   H19010858   3.550   2.851   3.017  1.3583 -0.2506 -0.7962
   15MOL   H19110859   3.550   3.147   3.023  1.3482 -1.4831 -0.8730
   15MOL   C19210860   3.451   3.061   3.173  0.0974  0.5665 -0.6066
   15MOL   O19310861   3.424   2.955   3.235  0.9533  0.0911  0.2635
   15MOL   C19410862   3.445   3.197   3.241  0.4117 -0.0507  0.7421
   15MOL   C19510863   3.333   3.204   3.349  0.6595 -0.4802 -0.5039
   15MOL   C19610864   3.331   3.337   3.430 -0.0680 -0.1300 -0.1184
   15MOL   C19710865   3.431   3.347   3.546 -0.2994  0.4608 -0.3603
   15MOL   C19810866   3.560   3.403   3.511 -0.1730 -0.3296 -0.1207
   15MOL   O19910867   3.561   3.511   3.453  0.3035 -0.4062  0.5239
   15MOL   N20010868   3.670   3.334   3.539 -0.5132 -0.5439 -0.0657
   15MOL   C20110869   3.807   3.381   3.510 -0.3343 -0.5055  0.0317
   15MOL   C20210870   3.844   3.399   3.357  0.2368 -0.6537  0.4357
   15MOL   C20310871   3.997   3.397   3.351  0.2386  1.4952 -0.3405
   15MOL   C20410872   4.058   3.398   3.208  0.4106  0.1435 -0.1882
   15MOL   C20510873   4.210   3.377   3.213  0.5227 -0.1256  0.1520
   15MOL   C20610874   4.290   3.467   3.301 -0.3301 -0.2775 -0.9131
   15MOL   N20710875   4.430   3.433   3.288 -0.4049  0.0142 -0.2701
   15MOL   H20810876   3.543   3.224   3.282  0.0901 -0.3956  1.7583
   15MOL   H20910877   3.441   3.268   3.159 -2.0252  0.5104  1.2899
   15MOL   H21010878   3.234   3.192   3.305 -0.6587  0.8877  1.9915
   15MOL   H21110879   3.330   3.113   3.408 -0.2054  0.4973  0.9632
   15MOL   H21210880   3.233   3.362   3.470 -1.4370  1.1759 -4.0799
   15MOL   H21310881   3.347   3.418   3.359 -1.7873 -0.3491 -0.7817
   15MOL   H21410882   3.443   3.248   3.591 -3.0326  0.0731 -0.4118
   15MOL   H21510883   3.380   3.404   3.624 -2.5074 -2.5640  0.5399
   15MOL   H21610884   3.659   3.244   3.583  0.8122 -0.0922  1.2355
   15MOL   H21710885   3.820   3.468   3.574 -0.8777  0.5063 -1.2102
   15MOL   H21810886   3.865   3.301   3.555  2.0507  0.8662 -0.5161
   15MOL   H21910887   3.785   3.333   3.295 -1.5201 -0.2988  1.6737
   15MOL   H22010888   3.810   3.499   3.330 -0.7570 -0.5605  1.9627
   15MOL   H22110889   4.022   3.301   3.398 -0.1265  0.8976 -1.3482
   15MOL   H22210890   4.032   3.479   3.413  0.8708  0.2832  0.9290
   15MOL   H22310891   4.021   3.316   3.147 -1.3723 -0.5781  1.7632
   15MOL   H22410892   4.028   3.494   3.166 -1.8142 -0.2953  0.2926
   15MOL   H22510893   4.237   3.279   3.252  1.9827  0.6585  1.1362
   15MOL   H22610894   4.249   3.383   3.111  1.3389 -1.2804  0.3856
   15MOL   H22710895   4.277   3.460   3.409  0.2270  0.3542 -0.8007
   15MOL   H22810896   4.266   3.571   3.279 -1.5151  0.0220  1.5806
   15MOL   H22910897   4.465   3.346   3.250  2.1603  1.5954 -1.6045
   15MOL   C23010898   4.524   3.522   3.312 -0.3555 -0.4209 -0.2492
   15MOL   O23110899   4.496   3.635   3.335  0.0642 -0.6084  0.1372
   15MOL   C23210900   4.666   3.474   3.298 -0.3889 -0.2147 -0.2730
   15MOL   C23310901   4.752   3.572   3.207 -0.6295  0.1205  0.2043
   15MOL   C23410902   4.815   3.693   3.278 -0.2524 -0.2985 -0.2003
   15MOL   C23510903   4.943   3.669   3.371 -0.5112 -0.1214 -0.1398
   15MOL   C23610904   5.072   3.632   3.295  0.1163 -0.6116  0.2889
   15MOL   O23710905   5.085   3.673   3.177  0.1909 -0.4261 -0.2238
   15MOL   N23810906   5.168   3.557   3.354  0.2045  0.4967  0.0251
   15MOL   C23910907   5.292   3.512   3.298 -0.1569  0.2338 -0.2662
   15MOL   C24010908   5.399   3.621   3.316  0.9330  0.1840 -0.2405
   15MOL   C24110909   5.531   3.591   3.258 -0.5932 -0.3604 -0.1237
   15MOL   C24210910   5.637   3.693   3.295  0.5882 -0.2905 -0.1078
   15MOL   C24310911   5.627   3.846   3.265 -0.5560  0.6366 -0.2040
   15MOL   C24410912   5.734   3.943   3.316 -0.8741  1.0508 -0.2772
   15MOL   N24510913   5.703   4.087   3.295  0.0225 -0.0629  0.0945
   15MOL   H24610914   4.720   3.448   3.390  3.1813  0.7870 -1.9769
   15MOL   H24710915   4.664   3.379   3.245  1.0251 -0.7585  0.5997
   15MOL   H24810916   4.827   3.510   3.157 -0.5424 -0.5466  1.1602
   15MOL   H24910917   4.694   3.608   3.122 -2.0933 -0.2564  1.0165
   15MOL   H25010918   4.730   3.741   3.327 -0.0020  0.1864 -0.2307
   15MOL   H25110919   4.845   3.766   3.203 -0.7833  0.6250  0.4704
   15MOL   H25210920   4.919   3.592   3.445  1.1061  1.7218  2.3708
   15MOL   H25310921   4.966   3.760   3.426 -0.4161 -0.7507  0.8883
   15MOL   H25410922   5.138   3.512   3.439  0.1315  1.2753  0.4260
   15MOL   H25510923   5.327   3.423   3.351 -1.0289  0.6731  1.0716
   15MOL   H25610924   5.284   3.492   3.192 -1.6326  0.2148 -0.1592
   15MOL   H25710925   5.361   3.714   3.273 -1.1559 -0.5168 -0.0046
   15MOL   H25810926   5.396   3.641   3.423  0.1515 -0.5384 -0.1157
   15MOL   H25910927   5.521   3.602   3.150 -0.3162  0.9236 -0.0248
   15MOL   H26010928   5.566   3.491   3.287  2.1380  0.1463 -1.5040
   15MOL   H26110929   5.664   3.669   3.398 -1.6864 -0.7038  0.4096
   15MOL   H26210930   5.720   3.649   3.239 -0.0219 -3.8774  1.6680
   15MOL   H26310931   5.609   3.862   3.159 -0.9772 -1.3047 -0.4478
   15MOL   H26410932   5.529   3.881   3.298  0.3835  1.4665  1.8092
   15MOL   H26510933   5.826   3.935   3.258 -0.3644 -2.7541  0.8807
   15MOL   H26610934   5.747   3.918   3.421  0.5966 -0.0407 -0.6883
   15MOL   H26710935   5.704   4.151   3.372  3.3208 -0.9943  0.8918
   15MOL   C26810936   5.677   4.141   3.178  0.3866  0.1122 -0.3419
   15MOL   O26910937   5.681   4.073   3.076 -0.3905 -0.1469  0.3067
   15MOL   C27010938   5.657   4.289   3.167  0.3034  0.1961  0.5734
   15MOL   C27110939   5.755   4.366   3.076 -0.1493 -0.1296 -0.2087
   15MOL   C27210940   5.889   4.395   3.147 -0.5332 -0.0903 -0.4512
   15MOL   C27310941   5.998   4.446   3.054  0.7222  1.0664  0.1050
   15MOL   C27410942   5.961   4.561   2.958 -0.5374  0.1681 -0.0749
   15MOL   O27510943   5.867   4.542   2.880  0.4314  0.5175 -0.2753
   15MOL   N27610944   6.026   4.673   2.972 -0.1753  0.4519  0.4282
   15MOL   C27710945   6.017   4.785   2.881  0.0546  0.3298  0.0320
   15MOL   C27810946   5.896   4.879   2.904 -0.3495 -0.5473 -0.0854
   15MOL   C27910947   5.895   5.005   2.824  0.3049  0.2227 -0.3329
   15MOL   C28010948   5.760   5.086   2.828 -0.3316  0.0737 -0.1630
   15MOL   C28110949   5.774   5.229   2.784 -0.3145 -0.5140 -0.0444
   15MOL   C28210950   5.759   5.328   2.903 -1.0486 -0.1664  0.1864
   15MOL   N28310951   5.720   5.460   2.852  0.4006  0.5234 -0.2541
   15MOL   H28410952   5.562   4.307   3.116  1.3586  1.3868 -1.0077
   15MOL   H28510953   5.649   4.340   3.263 -1.4524  2.0861 -0.5270
   15MOL   H28610954   5.752   4.313   2.981  0.2276 -0.2767 -0.1392
   15MOL   H28710955   5.708   4.461   3.049 -1.1237 -0.8006 -0.9228
   15MOL   H28810956   5.929   4.303   3.187 -1.2518 -0.3397 -0.2911
   15MOL   H28910957   5.896   4.468   3.229 -2.0887  0.4896 -0.8025
   15MOL   H29010958   6.046   4.363   3.002 -0.8582 -0.6616  1.3437
   15MOL   H29110959   6.083   4.481   3.112  2.7850  1.5486 -3.0551
   15MOL   H29210960   6.099   4.678   3.043 -1.3130 -0.7625  1.7210
   15MOL   H29310961   6.112   4.835   2.897 -0.6132  0.8814  2.4007
   15MOL   H29410962   6.015   4.746   2.779  0.7188  1.5716 -0.4632
   15MOL   H29510963   5.807   4.822   2.876  0.0778 -1.0169 -0.4692
   15MOL   H29610964   5.883   4.900   3.011  0.3167 -0.1346 -0.0812
   15MOL   H29710965   5.900   4.973   2.720 -0.4489 -1.1312  0.0325
   15MOL   H29810966   5.983   5.065   2.846 -1.1941  2.3630  0.0141
   15MOL   H29910967   5.695   5.033   2.758  0.0193 -0.7498  0.1330
   15MOL   H30010968   5.725   5.092   2.931 -0.1025  1.3135 -0.1482
   15MOL   H30110969   5.869   5.245   2.733 -0.2751  1.3545  0.5620
   15MOL   H30210970   5.695   5.252   2.712  0.3789  3.0214  0.2148
   15MOL   H30310971   5.858   5.343   2.946 -1.3000 -0.8625  1.0353
   15MOL   H30410972   5.702   5.305   2.994 -1.8775  0.3271 -0.2045
   15MOL   H30510973   5.797   5.526   2.845  0.7771  0.3742  2.2558
   15MOL   C30610974   5.599   5.514   2.882  0.6670  0.6685 -0.6240
   15MOL   O30710975   5.503   5.447   2.933 -0.1954  0.2653 -0.2047
   15MOL   C30810976   5.578   5.668   2.870  0.6839  0.2556  0.6580
   15MOL   C30910977   5.429   5.706   2.838 -0.3602  0.0075 -0.3839
   15MOL   C31010978   5.389   5.853   2.823  0.0198 -0.1627 -0.2652
   15MOL   C31110979   5.497   5.947   2.769 -0.2804  0.0060  0.2051
   15MOL   C31210980   5.531   5.934   2.621 -0.4005  0.2052 -0.0198
   15MOL   O31310981   5.438   5.934   2.543  0.4049  0.0289  0.0127
   15MOL   N31410982   5.660   5.933   2.583 -0.1082  0.1884  0.5061
   15MOL   C31510983   5.709   5.957   2.451  0.5917  0.1094 -0.1826
   15MOL   C31610984   5.852   5.908   2.429 -0.5031  0.5878  0.1814
   15MOL   C31710985   5.898   5.945   2.290 -0.1307  0.4872 -0.5363
   15MOL   C31810986   6.044   5.913   2.273  0.1593 -0.4403  0.5109
   15MOL   C31910987   6.079   5.908   2.127  0.0655 -0.6356  0.1555
   15MOL   C32010988   6.228   5.873   2.093  0.3438  0.0337  0.6417
   15MOL   N32110989   6.323   5.983   2.134 -0.1946 -0.4606  0.3378
   15MOL   H32210990   5.614   5.719   2.959  1.7591  1.4743 -0.4508
   15MOL   H32310991   5.641   5.693   2.785 -1.2995 -0.1956 -0.9854
   15MOL   H32410992   5.410   5.660   2.741 -2.3355 -1.0028  0.4534
   15MOL   H32510993   5.362   5.646   2.900 -2.3568 -1.1852 -3.5813
   15MOL   H32610994   5.353   5.895   2.917 -0.7934  2.2538 -1.6270
   15MOL   H32710995   5.301   5.860   2.759 -0.3445  0.7849  0.3284
   15MOL   H32810996   5.591   5.953   2.823  0.4426 -1.7461 -0.8105
   15MOL   H32910997   5.456   6.047   2.785  0.4284  0.0514  1.7917
   15MOL   H33010998   5.721   5.951   2.662 -1.0868  0.6590  1.1501
   15MOL   H33110999   5.634   5.912   2.385  0.5952  0.8350 -0.6854
   15MOL   H33211000   5.709   6.063   2.428  1.3747  0.5031  1.5223
   15MOL   H33311001   5.905   5.962   2.507 -3.0767 -0.7750  2.9704
   15MOL   H33411002   5.865   5.804   2.460  0.4109  0.2170 -1.3838
   15MOL   H33511003   5.877   6.047   2.257 -0.2125  1.0041  1.0646
   15MOL   H33611004   5.831   5.886   2.228  2.9030 -1.4845 -2.0254
   15MOL   H33711005   6.105   5.986   2.326 -0.6491  0.5459  0.1044
   15MOL   H33811006   6.065   5.819   2.324  1.3078  0.0343  0.9233
   15MOL   H33911007   6.012   5.832   2.087  0.8366 -1.7289  0.8879
   15MOL   H34011008   6.059   6.003   2.078  0.0822 -1.5786 -1.7286
   15MOL   H34111009   6.231   5.868   1.984  1.8622 -0.8671  0.7251
   15MOL   H34211010   6.263   5.775   2.124 -1.1976 -0.9124 -0.5374
   15MOL   H34311011   6.302   6.081   2.126  0.7396 -0.3454 -0.8785
   15MOL   C34411012   6.449   5.949   2.174  0.4091  0.6111 -0.4213
   15MOL   O34511013   6.486   5.831   2.178 -0.4122  0.2305  0.4872
   15MOL   C34611014   6.550   6.059   2.189 -0.3891  0.1270 -0.0294
   15MOL   C34711015   6.696   6.039   2.170 -0.5369  0.3104  0.3278
   15MOL   C34811016   6.773   6.029   2.295 -0.8187  0.0570  0.2239
   15MOL   C34911017   6.763   5.899   2.381  0.1098 -0.5586 -0.2154
   15MOL   C35011018   6.820   5.772   2.317  0.0862  0.0820 -0.1021
   15MOL   O35111019   6.935   5.731   2.353 -0.1042  0.2984  0.1952
   15MOL   N35211020   6.745   5.714   2.224 -0.3020  0.4533  0.6741
   15MOL   C35311021   6.789   5.604   2.133 -0.3525 -0.8477 -0.4685
   15MOL   C35411022   6.785   5.642   1.985 -0.5980  0.2038 -0.9415
   15MOL   C35511023   6.651   5.685   1.941 -0.0364 -1.2434  0.5477
   15MOL   C35611024   6.636   5.679   1.793 -0.0770  0.3571 -0.3132
   15MOL   C35711025   6.513   5.760   1.740  0.0965  0.2912  0.5428
   15MOL   C35811026   6.494   5.739   1.592  0.2804 -0.1188  0.0818
   15MOL   N35911027   6.601   5.807   1.523 -0.1770  0.3183 -1.1709
   15MOL   H36011028   6.518   6.125   2.109 -0.2241  0.2781  0.0290
   15MOL   H36111029   6.531   6.121   2.277  1.7722  1.4257 -0.4365
   15MOL   H36211030   6.725   5.953   2.109  2.3330  1.1140  0.4534
   15MOL   H36311031   6.742   6.120   2.113  0.6738 -0.8799 -0.4249
   15MOL   H36411032   6.745   6.107   2.366 -0.5642  0.6715 -0.3497
   15MOL   H36511033   6.879   6.041   2.277 -0.8826  0.5875  0.1918
   15MOL   H36611034   6.656   5.882   2.396 -0.6519  3.3365 -0.7787
   15MOL   H36711035   6.808   5.909   2.480 -1.0569 -2.5654  0.5553
   15MOL   H36811036   6.655   5.756   2.203 -1.1410 -2.3892 -1.8178
   15MOL   H36911037   6.881   5.562   2.172  0.1847  1.8909  1.3517
   15MOL   H37011038   6.715   5.526   2.155 -3.0188  2.0637  1.4057
   15MOL   H37111039   6.867   5.707   1.955 -2.1450  2.3328 -0.6279
   15MOL   H37211040   6.821   5.557   1.927 -0.2037  0.1292 -0.5998
   15MOL   H37311041   6.646   5.783   1.987  2.6228 -0.9358  0.2575
   15MOL   H37411042   6.585   5.609   1.983 -0.2474 -0.9774  0.6982
   15MOL   H37511043   6.729   5.716   1.749  0.3253  1.1331  1.1761
   15MOL   H37611044   6.624   5.580   1.750 -0.6001 -0.0890  0.8577
   15MOL   H37711045   6.431   5.722   1.800 -1.2429  1.3775 -0.5762
   15MOL   H37811046   6.519   5.867   1.762 -4.0537  0.4250  1.4180
   15MOL   H37911047   6.394   5.771   1.561 -0.3969 -1.1695  1.1161
   15MOL   H38011048   6.499   5.633   1.567  2.1576  0.6057 -2.8340
   15MOL   H38111049   6.633   5.891   1.570 -0.2256  1.1783 -2.6673
   15MOL   C38211050   6.652   5.764   1.412 -0.5953  0.3780  0.9506
   15MOL   O38311051   6.606   5.670   1.352  0.4049 -0.1902 -0.4355
   15MOL   C38411052   6.763   5.836   1.341 -0.1716  0.3326  0.4481
   15MOL   C38511053   6.716   5.904   1.208  0.5069  0.2286 -0.6528
   15MOL   C38611054   6.586   5.988   1.205  0.0166 -0.1980  0.1869
   15MOL   C38711055   6.595   6.110   1.295 -0.3886  0.5742 -0.1506
   15MOL   C38811056   6.713   6.204   1.265  0.1780  0.9168 -0.0038
   15MOL   O38911057   6.719   6.270   1.163 -0.3429 -0.4843 -0.2265
   15MOL   N39011058   6.807   6.208   1.362 -0.3322 -0.7105  0.4354
   15MOL   C39111059   6.939   6.266   1.347 -0.1687 -1.1356 -0.0486
   15MOL   C39211060   6.993   6.305   1.487 -0.0818  0.0407  0.2180
   15MOL   C39311061   7.136   6.339   1.499 -0.0715  0.2584 -0.4319
   15MOL   C39411062   7.176   6.406   1.633 -0.0848 -0.1841 -1.1796
   15MOL   C39511063   7.332   6.429   1.653 -0.3519  0.2479  0.1474
   15MOL   C39611064   7.414   6.307   1.689  0.6761 -0.2402 -0.2022
   15MOL   N39711065   7.376   6.234   1.810  0.5270  0.4287 -1.0406
   15MOL   H39811066   6.808   5.903   1.415  0.1818 -1.6055  2.0483
   15MOL   H39911067   6.843   5.768   1.313  0.2261  1.4616 -1.2162
   15MOL   H40011068   6.802   5.959   1.170 -0.0162  0.1010 -2.0807
   15MOL   H40111069   6.707   5.818   1.141  0.9662 -0.1227 -0.2647
   15MOL   H40211070   6.495   5.930   1.222  0.1720 -0.8767 -1.2157
   15MOL   H40311071   6.571   6.029   1.105  0.8808 -0.5776 -0.1012
   15MOL   H40411072   6.594   6.070   1.396  0.6419 -4.1597 -1.8808
   15MOL   H40511073   6.501   6.165   1.291 -0.4679  0.5568  1.2578
   15MOL   H40611074   6.794   6.153   1.446  3.7353 -2.0292  0.2852
   15MOL   H40711075   7.008   6.199   1.296  3.3123 -1.1355  4.3309
   15MOL   H40811076   6.947   6.360   1.291  1.8545  0.3017  2.5170
   15MOL   H40911077   6.928   6.389   1.510  2.3971  2.4443 -1.2312
   15MOL   H41011078   6.974   6.226   1.560  2.0959 -0.2259  0.5187
   15MOL   H41111079   7.164   6.399   1.413 -0.3629  0.4730 -0.3800
   15MOL   H41211080   7.199   6.250   1.494  0.1748  0.5644 -3.5297
   15MOL   H41311081   7.125   6.502   1.645 -0.4866 -0.3517 -1.5108
   15MOL   H41411082   7.143   6.341   1.714 -1.1011  0.7748 -0.8104
   15MOL   H41511083   7.369   6.458   1.554  2.8975  0.9430  1.4948
   15MOL   H41611084   7.347   6.514   1.720  0.7904  0.0837  0.1098
   15MOL   H41711085   7.519   6.336   1.696  0.6370  0.3568 -1.8218
   15MOL   H41811086   7.425   6.235   1.607 -1.5122  0.4836 -1.1612
   15MOL   H41911087   7.355   6.281   1.897  0.5167 -3.3138  1.0747
   15MOL   C42011088   7.334   6.112   1.818  0.5046  0.2456 -0.6669
   15MOL   O42111089   7.361   6.027   1.736 -0.0751 -0.4069  0.6768
   15MOL   C42211090   7.245   6.086   1.936  0.9714  0.6216 -0.5075
   15MOL   C42311091   7.121   6.003   1.897 -0.2342 -0.2315  0.0576
   15MOL   C42411092   7.011   6.086   1.824 -0.7867 -0.0014 -0.6647
   15MOL   C42511093   6.886   6.007   1.798  0.3437  0.3897 -1.1487
   15MOL   C42611094   6.783   6.082   1.724  0.0203 -0.1751 -0.2072
   15MOL   O42711095   6.764   6.070   1.603 -0.3349  0.2720  0.0365
   15MOL   N42811096   6.709   6.166   1.801 -0.6392 -0.0588  0.4244
   15MOL   C42911097   6.591   6.236   1.752  0.2011  0.4392 -0.0046
   15MOL   C43011098   6.602   6.379   1.717 -0.6815  0.1425  0.0884
   15MOL   C43111099   6.466   6.432   1.665  0.0769 -0.0439 -0.4407
   15MOL   C43211100   6.446   6.583   1.636 -0.0202 -0.2175 -0.4381
   15MOL   C43311101   6.300   6.618   1.579 -0.9736  0.4076 -0.1423
   15MOL   C43411102   6.255   6.761   1.569 -0.0578 -0.2675 -0.5233
   15MOL   N43511103   6.311   6.844   1.682  0.8804  0.6781 -0.2206
   15MOL   H43611104   7.308   6.025   2.001 -1.9389 -0.7486  1.1277
   15MOL   H43711105   7.214   6.180   1.982 -0.2044  0.6135 -1.2577
   15MOL   H43811106   7.155   5.913   1.844  2.9146  0.4618  0.7967
   15MOL   H43911107   7.070   5.971   1.987 -0.9968  1.2568  0.1643
   15MOL   H44011108   7.048   6.117   1.727  0.1834 -1.0601 -0.6458
   15MOL   H44111109   6.989   6.178   1.877 -1.8700  0.4258 -1.8292
   15MOL   H44211110   6.849   5.959   1.889  2.1674  1.3181  0.1179
   15MOL   H44311111   6.909   5.916   1.743 -0.7939 -1.2683  1.0215
   15MOL   H44411112   6.740   6.197   1.892 -0.1439  1.0848 -0.1244
   15MOL   H44511113   6.545   6.186   1.666  0.8649 -0.0938 -0.0585
   15MOL   H44611114   6.523   6.234   1.837 -0.1751  0.4139 -0.3060
   15MOL   H44711115   6.629   6.427   1.811 -2.5437 -0.6984  1.0734
   15MOL   H44811116   6.681   6.401   1.645 -1.6501  0.0181 -1.0118
   15MOL   H44911117   6.378   6.394   1.718 -0.1095  0.1723 -0.5950
   15MOL   H45011118   6.460   6.393   1.563 -0.1986  1.5805 -1.0538
   15MOL   H45111119   6.457   6.635   1.731 -0.0106 -0.1243 -0.4909
   15MOL   H45211120   6.514   6.613   1.557 -1.6032  1.6084 -1.1588
   15MOL   H45311121   6.269   6.578   1.483  0.8568  2.4125 -1.6166
   15MOL   H45411122   6.236   6.568   1.651  1.2335 -1.8014  0.3432
   15MOL   H45511123   6.147   6.770   1.558 -0.4722 -2.3892  1.3758
   15MOL   H45611124   6.307   6.803   1.483 -0.0812  0.4439 -0.1943
   15MOL   H45711125   6.382   6.910   1.655  1.5344 -0.2286 -0.7769
   15MOL   C45811126   6.273   6.840   1.815  0.1842 -0.1081  0.3244
   15MOL   O45911127   6.192   6.763   1.861 -0.5706  0.6581 -0.2454
   15MOL   C46011128   6.338   6.946   1.893  0.0477  0.2088 -1.2848
   15MOL   C46111129   6.258   7.078   1.892  0.3404 -0.3212  0.4139
   15MOL   C46211130   6.280   7.173   1.774  0.1825  0.0770 -0.1859
   15MOL   C46311131   6.228   7.316   1.788 -0.2832 -0.0569  0.4608
   15MOL   C46411132   6.078   7.313   1.814  0.1349 -0.0112  0.1841
   15MOL   O46511133   6.037   7.326   1.932 -0.0103 -0.0543 -0.2865
   15MOL   N46611134   6.001   7.290   1.706 -0.1962  0.2855  0.4567
   15MOL   C46711135   5.862   7.269   1.687 -0.4184 -0.1714  0.3812
   15MOL   C46811136   5.827   7.124   1.661  0.6356  0.1029  0.3326
   15MOL   C46911137   5.678   7.124   1.627 -0.6754 -0.2780 -0.0889
   15MOL   C47011138   5.621   6.989   1.622 -0.1133 -0.0849 -0.4393
   15MOL   C47111139   5.466   6.989   1.602 -0.3651  0.7239  0.2309
   15MOL   C47211140   5.395   6.862   1.580 -0.3032  0.0731  0.4222
   15MOL   N47311141   5.422   6.769   1.683 -0.1854  0.7771  0.3312
   15MOL   H47411142   6.343   6.913   1.997  0.8404 -3.3477 -2.3827
   15MOL   H47511143   6.444   6.961   1.871  0.8371 -1.1227  1.4212
   15MOL   H47611144   6.152   7.053   1.881 -0.1678  2.0632 -0.3705
   15MOL   H47711145   6.256   7.129   1.988 -0.4125  2.3409 -0.9747
   15MOL   H47811146   6.237   7.125   1.686 -1.1283 -1.0705  1.0489
   15MOL   H47911147   6.382   7.176   1.737 -0.2379  2.4203 -1.2777
   15MOL   H48011148   6.246   7.379   1.701  0.3820 -0.1706  0.5120
   15MOL   H48111149   6.277   7.359   1.876 -0.4033 -1.5865  1.2931
   15MOL   H48211150   6.056   7.275   1.623 -0.0412  1.0473  0.4204
   15MOL   H48311151   5.814   7.316   1.773 -1.5017  0.0551 -0.3215
   15MOL   H48411152   5.834   7.329   1.600  1.8605  0.7456  0.2570
   15MOL   H48511153   5.894   7.086   1.584  1.4907  0.5797  0.8274
   15MOL   H48611154   5.843   7.056   1.745 -0.0469  1.9344  2.0086
   15MOL   H48711155   5.677   7.174   1.530  0.0322  2.2598  1.1670
   15MOL   H48811156   5.622   7.169   1.709  1.1641  2.0024 -0.0087
   15MOL   H48911157   5.655   6.938   1.532 -0.6616 -1.1282 -0.0649
   15MOL   H49011158   5.637   6.930   1.713 -1.2517  1.5773  0.8749
   15MOL   H49111159   5.416   7.035   1.687 -0.2476  1.1659  0.0647
   15MOL   H49211160   5.452   7.051   1.513  2.1293  1.5861  0.4084
   15MOL   H49311161   5.441   6.820   1.490 -0.8329  4.3136 -1.9518
   15MOL   H49411162   5.288   6.863   1.563 -0.3983 -0.7641  0.9849
   15MOL   H49511163   5.497   6.701   1.679 -1.0382 -0.1907  0.5987
   15MOL   C49611164   5.337   6.754   1.791 -0.3774 -0.3341 -0.1656
   15MOL   O49711165   5.239   6.827   1.799 -0.2435  0.2248  0.5284
   15MOL   C49811166   5.354   6.628   1.873  0.1272 -0.7089 -0.3076
   15MOL   C49911167   5.379   6.664   2.019  0.1768  0.0658  0.3963
   15MOL   C50011168   5.528   6.658   2.055  0.1891 -0.2186  0.2732
   15MOL   C50111169   5.567   6.641   2.202 -0.2676 -0.2413  0.4358
   15MOL   C50211170   5.533   6.764   2.283  0.4650 -0.2551  0.5112
   15MOL   O50311171   5.588   6.871   2.270  0.1102 -0.5822 -0.0311
   15MOL   N50411172   5.447   6.743   2.382  0.6541 -0.3681  0.2780
   15MOL   C50511173   5.415   6.852   2.477  0.5275 -0.4976 -0.0678
   15MOL   C50611174   5.354   6.799   2.611  0.1896  0.1636 -0.0759
   15MOL   C50711175   5.215   6.745   2.596 -0.0202  0.3455 -0.0214
   15MOL   C50811176   5.154   6.688   2.725  0.9023  0.1184 -0.0286
   15MOL   C50911177   5.119   6.801   2.833 -0.0267  0.3375 -0.4176
   15MOL   C51011178   5.038   6.757   2.954 -0.8085  0.2626 -0.0745
   15MOL   N51111179   4.907   6.715   2.914 -0.5850 -0.4815 -0.2554
   15MOL   H51211180   5.265   6.566   1.863 -0.4796  0.5038 -2.9001
   15MOL   H51311181   5.438   6.570   1.836  0.9278 -0.1285  0.5791
   15MOL   H51411182   5.338   6.753   2.066 -0.8771  0.0715 -0.5278
   15MOL   H51511183   5.319   6.587   2.067  1.4074  0.2510  2.2972
   15MOL   H51611184   5.574   6.749   2.017  0.4463 -0.6495 -0.4469
   15MOL   H51711185   5.582   6.582   1.999 -0.9277 -1.8989  1.4494
   15MOL   H51811186   5.673   6.615   2.205 -0.1795 -0.0453 -0.6991
   15MOL   H51911187   5.521   6.551   2.243 -0.5346  0.2745  1.2701
   15MOL   H52011188   5.397   6.655   2.384 -1.1257  0.6128 -0.0561
   15MOL   H52111189   5.509   6.903   2.498 -0.5459  1.4867 -0.0054
   15MOL   H52211190   5.346   6.918   2.425 -2.6357 -2.5939  1.3178
   15MOL   H52311191   5.425   6.730   2.656  0.3895  1.6410  1.9662
   15MOL   H52411192   5.359   6.882   2.681  0.3805  0.5514 -0.5401
   15MOL   H52511193   5.205   6.671   2.517  1.5460  0.3496 -0.2367
   15MOL   H52611194   5.149   6.824   2.558  0.1027  0.5339  0.1595
   15MOL   H52711195   5.064   6.634   2.695  0.7295  0.2162  0.3060
   15MOL   H52811196   5.224   6.625   2.780  2.0737  1.7016  0.3095
   15MOL   H52911197   5.209   6.849   2.873 -0.8152  1.2457  0.2988
   15MOL   H53011198   5.059   6.871   2.775 -1.8242 -0.4261  0.4989
   15MOL   H53111199   5.027   6.842   3.021 -0.5898 -1.8925  2.7858
   15MOL   H53211200   5.092   6.684   3.014 -0.7479  1.1228  0.9451
   15MOL   H53311201   4.903   6.662   2.828 -1.0385  0.0243 -0.5531
   15MOL   C53411202   4.792   6.779   2.938 -0.8402 -0.2986  0.4683
   15MOL   O53511203   4.777   6.846   3.036  0.1237  0.6873  0.3152
   15MOL   C53611204   4.682   6.750   2.834 -0.0302 -0.7936 -0.4802
   15MOL   C53711205   4.551   6.824   2.866 -0.4626 -0.6981 -0.0607
   15MOL   C53811206   4.428   6.780   2.769 -0.2933 -0.6069 -0.2709
   15MOL   C53911207   4.298   6.857   2.798 -0.2870  0.7531  0.9938
   15MOL   C54011208   4.196   6.817   2.696  0.5579 -0.3515 -0.6449
   15MOL   O54111209   4.228   6.797   2.582  0.2156  0.1364  0.0317
   15MOL   N54211210   4.071   6.800   2.743 -0.1173 -0.1466 -0.8446
   15MOL   C54311211   3.950   6.774   2.666  0.5644  0.8200 -0.7753
   15MOL   C54411212   3.884   6.648   2.726 -0.2754  0.0720  1.0736
   15MOL   C54511213   3.950   6.518   2.661  0.3803  0.0158  0.4301
   15MOL   C54611214   3.912   6.388   2.735 -0.2446 -0.6563 -0.7137
   15MOL   C54711215   4.006   6.270   2.688 -0.0124 -0.3645 -0.2029
   15MOL   C54811216   3.971   6.144   2.761  0.6261  0.3449 -0.2483
   15MOL   N54911217   3.987   6.157   2.905 -0.5440  0.8931  0.4301
   15MOL   H55011218   4.719   6.782   2.736 -1.9952 -0.0676 -1.0185
   15MOL   H55111219   4.668   6.643   2.819 -1.8350 -0.3648 -2.0723
   15MOL   H55211220   4.519   6.791   2.965 -0.2583 -0.8563 -0.0465
   15MOL   H55311221   4.564   6.932   2.857  2.4758 -1.1168 -1.7497
   15MOL   H55411222   4.411   6.672   2.772  0.4408 -0.7032  1.1818
   15MOL   H55511223   4.463   6.816   2.672  0.6007 -1.8024 -0.4027
   15MOL   H55611224   4.313   6.965   2.797 -0.2302  0.7651 -2.9305
   15MOL   H55711225   4.255   6.829   2.894  0.5811 -1.8764  0.6514
   15MOL   H55811226   4.059   6.825   2.840 -1.8617  2.5419 -1.6839
   15MOL   H55911227   3.881   6.856   2.684 -1.8082 -1.0041 -1.3540
   15MOL   H56011228   3.970   6.752   2.561  3.5938  1.8556 -0.4621
   15MOL   H56111229   3.884   6.651   2.835  1.9469 -0.6069  1.1233
   15MOL   H56211230   3.778   6.642   2.705  0.0305 -1.7735 -0.1068
   15MOL   H56311231   4.057   6.530   2.672  0.6101  0.2299 -1.9185
   15MOL   H56411232   3.939   6.502   2.554  3.2247  4.6717 -0.6596
   15MOL   H56511233   3.922   6.411   2.842 -1.7244 -2.0326 -0.2547
   15MOL   H56611234   3.807   6.387   2.709 -0.3568  1.1252 -0.3464
   15MOL   H56711235   4.012   6.253   2.581 -0.0071  1.9947 -0.6081
   15MOL   H56811236   4.108   6.287   2.723 -0.5064 -0.4574  1.3159
   15MOL   H56911237   4.050   6.075   2.732  0.3974 -1.3669  2.9813
   15MOL   H57011238   3.881   6.095   2.724  1.3505  0.4200 -2.1584
   15MOL   H57111239   4.047   6.229   2.942  0.0283  0.0172  1.2090
   15MOL   C57211240   3.901   6.105   2.992 -0.1768  0.8320 -0.5364
   15MOL   O57311241   3.797   6.049   2.959 -0.8259 -0.4953  0.0917
   15MOL   C57411242   3.940   6.115   3.140  0.0855  0.4493 -1.1553
   15MOL   C57511243   4.063   6.021   3.182  0.6345 -0.3022  0.2766
   15MOL   C57611244   4.028   5.868   3.179 -0.4729 -0.8578 -0.6118
   15MOL   C57711245   4.145   5.769   3.191 -0.1094 -0.0620 -0.0932
   15MOL   C57811246   4.102   5.622   3.206 -0.4515  0.2974 -0.9308
   15MOL   O57911247   3.984   5.590   3.181 -0.1707 -0.0192  0.6676
   15MOL   N58011248   4.190   5.536   3.262  0.4375 -0.1584 -0.2933
   15MOL   C58111249   4.174   5.390   3.286  0.0187 -0.1463  0.4066
   15MOL   C58211250   4.164   5.307   3.159  0.1981 -0.6224 -0.4753
   15MOL   C58311251   4.288   5.299   3.069  0.3316 -0.3478  0.5059
   15MOL   C58411252   4.290   5.189   2.961 -0.0355  0.4044  0.3133
   15MOL   C58511253   4.162   5.172   2.872  0.2509  0.4219  0.5295
   15MOL   C58611254   4.134   5.279   2.762  0.0724  0.4684  0.0557
   15MOL   N58711255   4.256   5.305   2.681 -0.0779  0.7301  0.2889
   15MOL   H58811256   3.971   6.212   3.177 -0.7722  0.3161 -0.0511
   15MOL   H58911257   3.856   6.093   3.206 -0.2143 -1.6878 -2.1970
   15MOL   H59011258   4.151   6.036   3.121  1.2368  2.3433  1.7252
   15MOL   H59111259   4.091   6.037   3.286 -0.0283  2.5733  0.0535
   15MOL   H59211260   3.953   5.834   3.108  0.1136 -0.0753 -1.6399
   15MOL   H59311261   3.962   5.861   3.265 -1.2561 -1.3798 -1.2466
   15MOL   H59411262   4.207   5.793   3.277  0.3643  2.1354 -1.0096
   15MOL   H59511263   4.200   5.770   3.097  0.4428  0.4221  0.2308
   15MOL   H59611264   4.271   5.580   3.302 -0.5098  3.2119 -1.8476
   15MOL   H59711265   4.248   5.360   3.361  0.7829 -1.8644 -1.0030
   15MOL   H59811266   4.080   5.378   3.340 -0.7729  2.1666 -0.4130
   15MOL   H59911267   4.133   5.205   3.181  0.3863 -0.6417 -0.2983
   15MOL   H60011268   4.085   5.345   3.093  1.0012  0.9395 -0.5707
   15MOL   H60111269   4.369   5.284   3.140  1.7437  0.6477 -0.8622
   15MOL   H60211270   4.299   5.399   3.027  2.3056 -0.8522 -0.2495
   15MOL   H60311271   4.376   5.192   2.894 -1.2359 -0.8606 -1.3277
   15MOL   H60411272   4.287   5.093   3.014 -0.7372  0.5875  0.6158
   15MOL   H60511273   4.174   5.071   2.833 -0.7027  0.8529 -0.8931
   15MOL   H60611274   4.075   5.158   2.936  0.3190 -0.9917  0.3275
   15MOL   H60711275   4.114   5.379   2.800 -1.0426  1.6973 -3.5376
   15MOL   H60811276   4.051   5.251   2.698  1.4392 -1.6721 -0.8258
   15MOL   H60911277   4.316   5.381   2.710 -1.1103  0.5392  3.1118
   15MOL   C61011278   4.281   5.242   2.564  0.1259  0.3496 -0.5288
   15MOL   O61111279   4.210   5.149   2.523  0.0090  0.3254 -0.0505
   15MOL   C61211280   4.402   5.281   2.479  0.2831  0.5277 -0.5444
   15MOL   C61311281   4.513   5.175   2.490 -0.8060 -0.0729 -0.4777
   15MOL   C61411282   4.593   5.180   2.616  0.4424 -0.0313 -0.2084
   15MOL   C61511283   4.702   5.073   2.613  0.1491  0.7743 -0.0234
   15MOL   C61611284   4.835   5.131   2.556 -0.0243  0.3438 -0.2647
   15MOL   O61711285   4.849   5.110   2.433  0.3275  0.0016  0.4286
   15MOL   N61811286   4.929   5.190   2.635 -0.1514 -0.4027 -0.4354
   15MOL   C61911287   5.062   5.233   2.593 -0.6818  0.2126  0.1835
   15MOL   C62011288   5.056   5.379   2.534 -0.2273 -0.3440 -0.2841
   15MOL   C62111289   5.195   5.439   2.527 -0.2173  0.6488  0.3891
   15MOL   C62211290   5.214   5.559   2.437  0.2985  0.1794 -0.4831
   15MOL   C62311291   5.153   5.697   2.483 -0.2741 -0.1545  0.5404
   15MOL   C62411292   5.166   5.818   2.385  0.2194  0.2362 -0.2001
   15MOL   N62511293   5.114   5.945   2.451 -0.4163 -0.1286  0.0904
   15MOL   H62611294   4.368   5.290   2.376  1.9905 -0.8269 -1.2538
   15MOL   H62711295   4.440   5.382   2.492  0.4334  0.2436  1.4422
   15MOL   H62811296   4.477   5.072   2.486  1.6770 -1.0179  0.6833
   15MOL   H62911297   4.572   5.191   2.400  1.4529 -3.1949  0.3811
   15MOL   H63011298   4.528   5.168   2.702  1.0345 -0.3152  0.1996
   15MOL   H63111299   4.644   5.276   2.630 -0.1486  0.0731  1.3228
   15MOL   H63211300   4.677   4.991   2.545  1.9322  0.5531 -0.4291
   15MOL   H63311301   4.732   5.033   2.710  0.0779  2.3561  0.6636
   15MOL   H63411302   4.916   5.203   2.734  2.3885 -0.8519 -0.0047
   15MOL   H63511303   5.127   5.217   2.680  1.4440 -0.7356 -1.5357
   15MOL   H63611304   5.106   5.169   2.517  1.4359  1.0786  0.6204
   15MOL   H63711305   5.005   5.374   2.437  1.0600  0.8627 -1.0367
   15MOL   H63811306   5.001   5.442   2.604 -2.0039  0.1430 -2.0683
   15MOL   H63911307   5.259   5.355   2.502  0.2951  1.7145 -1.9892
   15MOL   H64011308   5.227   5.476   2.625  1.1295  0.2464  0.1004
   15MOL   H64111309   5.322   5.562   2.425  0.2348 -2.7316 -2.4325
   15MOL   H64211310   5.166   5.531   2.343 -1.4178 -3.0016  1.2522
   15MOL   H64311311   5.047   5.670   2.480 -0.3758  0.4480 -2.3319
   15MOL   H64411312   5.189   5.718   2.584 -1.3007  3.1174  0.2737
   15MOL   H64511313   5.122   5.794   2.288 -0.2870  0.6936 -0.0844
   15MOL   H64611314   5.273   5.840   2.385 -0.1890  2.5682  2.6531
   15MOL   H64711315   5.193   5.981   2.503 -0.3576  0.0708 -0.1351
   15MOL   C64811316   4.990   5.987   2.466  0.3762 -0.1825  0.5782
   15MOL   O64911317   4.904   5.940   2.396  0.0393 -0.5284 -0.1827
   15MOL   C65011318   4.961   6.097   2.564  0.1480 -0.7424  0.5607
   15MOL   C65111319   4.833   6.071   2.646  0.2894  0.9809  0.2676
   15MOL   C65211320   4.809   6.177   2.750  0.6147  0.6698 -0.2551
   15MOL   C65311321   4.732   6.304   2.711 -0.6221  0.0549  0.1177
   15MOL   C65411322   4.826   6.417   2.665  0.3612 -0.6484  0.2171
   15MOL   O65511323   4.911   6.456   2.746  0.2184 -0.3491 -0.0698
   15MOL   N65611324   4.809   6.468   2.540  0.0887  0.3771 -0.4824
   15MOL   C65711325   4.890   6.570   2.479  0.5415 -0.0281  0.0118
   15MOL   C65811326   4.842   6.590   2.338  0.1077 -0.5647  0.4139
   15MOL   C65911327   4.941   6.682   2.260 -0.2834 -0.2948  0.0625
   15MOL   C66011328   4.898   6.701   2.119 -0.2491  0.8841 -0.5062
   15MOL   C66111329   4.990   6.805   2.052 -0.0897 -0.5666 -0.4368
   15MOL   C66211330   4.907   6.906   1.968 -0.8558 -0.4306  0.1348
   15MOL   N66311331   4.992   6.991   1.887  0.4646  0.1070  0.1696
   15MOL   H66411332   5.043   6.102   2.636  1.7073 -4.0945 -0.8371
   15MOL   H66511333   4.942   6.188   2.508 -1.5884 -1.3130  0.2061
   15MOL   H66611334   4.743   6.057   2.586  0.5567  1.8973 -0.3538
   15MOL   H66711335   4.848   5.973   2.692  0.5111  0.0675 -1.6863
   15MOL   H66811336   4.909   6.208   2.779  0.6703  0.1704  0.1038
   15MOL   H66911337   4.763   6.133   2.839 -1.8970  0.3110 -1.6813
   15MOL   H67011338   4.667   6.336   2.792 -0.3582 -0.0260  0.3615
   15MOL   H67111339   4.653   6.274   2.642 -1.0142 -2.2101  1.5033
   15MOL   H67211340   4.741   6.430   2.477 -2.1872  2.5603  0.5510
   15MOL   H67311341   4.895   6.659   2.542 -0.7295 -1.6170  2.4580
   15MOL   H67411342   4.993   6.534   2.484  1.3155  2.2367  0.7611
   15MOL   H67511343   4.832   6.491   2.294  0.7703 -0.5526  0.2258
   15MOL   H67611344   4.749   6.646   2.342  0.0241 -0.6892  0.1668
   15MOL   H67711345   5.038   6.632   2.262  0.2543  0.6790 -1.3227
   15MOL   H67811346   4.947   6.779   2.308  1.6616 -0.0085 -0.7078
   15MOL   H67911347   4.910   6.605   2.068 -4.1240  0.4415 -0.6928
   15MOL   H68011348   4.794   6.730   2.102 -0.6221  0.0413  0.2796
   15MOL   H68111349   5.053   6.861   2.121  1.2245 -1.6307 -0.7741
   15MOL   H68211350   5.061   6.758   1.985 -0.1709 -0.2632 -0.7415
   15MOL   H68311351   4.837   6.966   2.025 -0.8939 -0.2157 -0.1354
   15MOL   H68411352   4.844   6.840   1.909  0.7433 -0.7273 -1.3146
   15MOL   H68511353   5.060   6.941   1.831  0.0392 -0.3457  0.0565
   15MOL   C68611354   4.986   7.123   1.867 -0.5272  0.7241 -0.8221
   15MOL   O68711355   4.916   7.191   1.941  0.0199 -0.1049  0.2713
   15MOL   C68811356   5.079   7.173   1.763  0.2147  0.0242  0.0662
   15MOL   C68911357   5.112   7.328   1.775  0.6519  0.0677  0.0084
   15MOL   C69011358   5.222   7.381   1.676  0.1897  0.0233  0.7633
   15MOL   C69111359   5.371   7.390   1.716  0.2910  0.5232  0.0722
   15MOL   C69211360   5.392   7.512   1.811  0.8475 -0.8194 -0.2847
   15MOL   O69311361   5.362   7.631   1.782 -0.1918 -0.1499  0.5318
   15MOL   N69411362   5.457   7.493   1.923 -0.1354 -0.3764 -0.0281
   15MOL   C69511363   5.489   7.590   2.024  0.2294  0.4123 -0.2347
   15MOL   C69611364   5.610   7.562   2.105  0.5994 -0.5344 -0.6106
   15MOL   C69711365   5.644   7.664   2.215 -0.7329  0.8819 -0.0706
   15MOL   C69811366   5.765   7.619   2.309 -0.4883 -0.1260 -0.3185
   15MOL   C69911367   5.803   0.002   2.423  0.2112  0.0352 -0.5444
   15MOL   C70011368   5.884   0.126   2.372  0.0858  0.8963 -0.2356
   15MOL   N70111369   5.926   0.214   2.475  0.6150  0.1866  0.4128
   15MOL   H70211370   5.173   7.119   1.754 -1.0646 -2.0785 -1.0453
   15MOL   H70311371   5.031   7.145   1.669 -1.5753  0.9538  0.6832
   15MOL   H70411372   5.018   7.364   1.734  0.1207 -1.8716 -0.5281
   15MOL   H70511373   5.115   7.362   1.878  2.0212  0.0068  0.0008
   15MOL   H70611374   5.183   7.480   1.653 -0.7906 -0.4470  0.3639
   15MOL   H70711375   5.216   7.322   1.584  1.6250  0.3687  0.4352
   15MOL   H70811376   5.436   7.420   1.634 -0.6059  0.4462 -0.6744
   15MOL   H70911377   5.401   7.292   1.752 -1.7357 -0.8121 -1.7188
   15MOL   H71011378   5.494   7.401   1.942 -0.0538 -0.4863 -0.6874
   15MOL   H71111379   5.503   7.690   1.984 -0.6955  0.2807 -0.9092
   15MOL   H71211380   5.399   7.581   2.086  0.3284 -0.8219 -0.2654
   15MOL   H71311381   5.603   7.463   2.149 -0.9408 -0.8349 -1.5257
   15MOL   H71411382   5.694   7.555   2.035  1.1652 -1.1675  0.1192
   15MOL   H71511383   5.549   7.672   2.268  0.0923  1.3126  1.3408
   15MOL   H71611384   5.675   0.051   2.173  1.2440  0.0737 -0.5086
   15MOL   H71711385   5.739   7.523   2.353  0.4162  0.1061  0.7552
   15MOL   H71811386   5.850   7.597   2.244  0.4918  2.7179 -0.0613
   15MOL   H71911387   5.710   0.022   2.475 -1.1678 -2.1057 -2.1023
   15MOL   H72011388   5.871   7.657   2.489  0.3817  1.7326  0.6605
   15MOL   H72111389   5.816   0.181   2.306 -2.2988 -1.6587  0.0059
   15MOL   H72211390   5.969   0.091   2.313 -0.4927 -2.9976  1.0826
   15MOL   H72311391   6.027   0.222   2.477  0.9388 -3.0600 -0.6696
   15MOL   C72411392   5.848   0.294   2.551 -0.2218 -0.5432 -0.5857
   15MOL   O72511393   5.726   0.281   2.558  0.0647 -0.3560  0.4827
   15MOL   C72611394   5.922   0.394   2.644 -0.2373  0.0754 -0.0175
   15MOL   C72711395   5.852   0.395   2.779 -0.1919  0.1057 -0.4555
   15MOL   C72811396   5.896   0.286   2.879  0.0044  0.2670 -0.1756
   15MOL   C72911397   6.026   0.313   2.952 -0.5464  0.1406  0.2876
   15MOL   C73011398   6.066   0.198   3.040  0.3466 -0.5626  0.1985
   15MOL   O73111399   6.001   0.094   3.059  0.0722 -0.8021  0.3211
   15MOL   N73211400   6.186   0.211   3.095  0.9984  0.1850  0.5877
   15MOL   C73311401   6.257   0.108   3.175 -0.6062 -0.1279 -0.4365
   15MOL   C73411402   6.405   0.120   3.143 -0.3804  0.3726 -0.6077
   15MOL   C73511403   6.497   0.044   3.238  0.3428  0.0139  0.4951
   15MOL   C73611404   6.640   0.098   3.243  0.0606  0.7398  0.3662
   15MOL   C73711405   6.724   0.086   3.118 -0.4958 -0.0147 -0.2991
   15MOL   C73811406   6.746   7.645   3.074  0.1025 -0.4483 -0.0603
   15MOL   N73911407   6.840   7.638   2.964 -0.4831  0.2263  0.4912
   15MOL   H74011408   6.029   0.390   2.663 -0.2204 -2.6308 -0.4856
   15MOL   H74111409   5.900   0.487   2.593  0.0458  0.1241 -0.0528
   15MOL   H74211410   5.870   0.491   2.827  0.3649 -0.6308  0.8375
   15MOL   H74311411   5.744   0.385   2.766 -0.0613 -0.8056 -0.8818
   15MOL   H74411412   5.897   0.191   2.825 -0.3005  1.3443 -2.0889
   15MOL   H74511413   5.813   0.270   2.948  0.0441  1.0713  0.0576
   15MOL   H74611414   6.015   0.405   3.010  2.1343  1.1002 -0.6868
   15MOL   H74711415   6.095   0.344   2.874 -0.5822 -1.0556 -0.2325
   15MOL   H74811416   6.238   0.294   3.071  0.2383  0.4291 -0.2590
   15MOL   H74911417   6.241   0.137   3.279 -1.3070  0.4682 -0.7059
   15MOL   H75011418   6.208   0.012   3.161 -2.4847  0.8881 -0.9320
   15MOL   H75111419   6.422   0.097   3.037  2.9084 -0.0326 -0.0519
   15MOL   H75211420   6.425   0.226   3.157 -0.4713  0.2632  0.3851
   15MOL   H75311421   6.488   7.651   3.199  0.0334  2.0787 -5.2132
   15MOL   H75411422   6.457   0.038   3.339 -1.4427  0.1061 -0.1926
   15MOL   H75511423   6.629   0.202   3.273 -4.4430 -0.3050  2.7494
   15MOL   H75611424   6.693   0.066   3.333  0.2332  0.7297  0.2606
   15MOL   H75711425   6.680   0.135   3.032 -0.7612 -0.0930 -0.2082
   15MOL   H75811426   6.819   0.135   3.140 -0.1113 -0.4727 -0.8913
   15MOL   H75911427   6.651   7.599   3.044 -1.0090  0.1740  2.3699
   15MOL   H76011428   6.779   7.599   3.168 -1.5898  0.0565  0.8067
   15MOL   H76111429   6.933   7.673   2.979 -0.1683  0.3256 -1.5937
   15MOL   H76211430   6.815   7.686   2.879 -0.3552 -1.1801 -0.3436
   16MOL     C111431   1.938   0.996   7.397  0.8459  0.0357 -0.7049
   16MOL     O211432   1.888   1.110   7.386 -0.0009  0.3974 -0.1129
   16MOL     C311433   1.866   0.887   7.471 -0.2791  0.0017  0.0708
   16MOL     C411434   1.717   0.919   7.507  0.0866  0.0308 -0.3239
   16MOL     C511435   1.696   0.972   7.649 -0.8449 -0.2173  0.5333
   16MOL     C611436   1.738   1.117   7.686  0.1217 -0.7364 -0.7567
   16MOL     C711437   1.694   1.163   0.116 -0.4449 -0.4358  0.2890
   16MOL     O811438   1.660   1.082   0.196 -0.1156  0.8572 -0.2763
   16MOL     N911439   1.689   1.291   0.134  0.1855 -0.9416  0.2320
   16MOL    C1011440   1.673   1.357   0.265  0.2794 -0.3706 -0.6687
   16MOL    C1111441   1.630   1.507   0.256 -0.0774  0.8000 -0.2396
   16MOL    C1211442   1.663   1.568   0.392  0.0613 -0.0138  0.3986
   16MOL    C1311443   1.635   1.718   0.411  1.0483 -0.4486  0.3513
   16MOL    C1411444   1.662   1.774   0.548  0.1235 -0.0661 -0.6223
   16MOL    C1511445   1.613   1.914   0.559  0.4779 -0.3841  0.0381
   16MOL    N1611446   1.646   1.974   0.688 -0.4129  0.3188  0.1352
   16MOL    H1711447   1.862   0.805   7.399 -3.8395 -0.7677  1.0177
   16MOL    H1811448   1.926   0.841   7.550  0.3586  0.6553 -0.0330
   16MOL    H1911449   1.680   0.978   7.422  0.7262 -0.8025 -1.1902
   16MOL    H2011450   1.665   0.824   7.505  1.7020 -0.8555 -0.6454
   16MOL    H2111451   1.753   0.903   0.004  0.4890  1.8919  1.6937
   16MOL    H2211452   1.590   0.972   7.677 -1.2339 -0.2692 -0.8920
   16MOL    H2311453   1.699   1.193   7.618  0.8309 -1.5258 -2.0568
   16MOL    H2411454   1.847   1.118   7.687  0.1187  0.9335 -0.3400
   16MOL    H2511455   1.735   1.356   0.071 -1.1489 -0.3017 -0.0978
   16MOL    H2611456   1.595   1.309   0.324  0.6310  1.6358  1.4984
   16MOL    H2711457   1.755   1.327   0.330  2.1360 -1.7614 -3.5659
   16MOL    H2811458   1.695   1.555   0.183 -0.2797  1.1236 -0.2044
   16MOL    H2911459   1.526   1.521   0.228 -0.0047  0.0075 -0.9326
   16MOL    H3011460   1.769   1.551   0.410 -0.2751 -1.0588  1.4765
   16MOL    H3111461   1.593   1.511   0.453 -0.6589 -0.5622 -0.9142
   16MOL    H3211462   1.698   1.770   0.338  2.0083 -0.3286  1.2570
   16MOL    H3311463   1.532   1.742   0.383  0.8806  1.2064  2.2436
   16MOL    H3411464   1.614   1.716   0.628 -0.1470 -0.9712 -1.4299
   16MOL    H3511465   1.767   1.760   0.572  0.2240  1.6092  0.0008
   16MOL    H3611466   1.508   1.931   0.535  1.4796  1.2449 -3.3751
   16MOL    H3711467   1.665   1.971   0.482  2.0572  0.6290  1.8124
   16MOL    H3811468   1.662   1.908   0.763 -3.4881  0.7078  1.2014
   16MOL    H3911469   2.034   0.963   7.358  1.1207  0.6614 -0.5533
   16MOL    C4011470   1.658   2.098   0.718 -0.0853  0.1403  0.0292
   16MOL    O4111471   1.633   2.192   0.640 -0.1036 -0.1285  0.1233
   16MOL    C4211472   1.713   2.132   0.861  0.4368  0.4300  0.3238
   16MOL    C4311473   1.740   2.280   0.888  0.4205  0.2167 -0.4326
   16MOL    C4411474   1.626   2.352   0.964  0.7284 -0.6077 -0.1015
   16MOL    C4511475   1.662   2.502   0.993 -0.0773  0.2842 -0.0204
   16MOL    C4611476   1.786   2.516   1.081 -0.4281 -0.0236  0.3572
   16MOL    O4711477   1.772   2.496   1.196 -0.0783  0.3288  0.0441
   16MOL    N4811478   1.900   2.560   1.026  0.3308 -0.3020  0.2950
   16MOL    C4911479   2.026   2.606   1.094  0.0503 -0.2638 -0.0250
   16MOL    C5011480   2.147   2.569   1.021  0.2314  0.3666 -0.6653
   16MOL    C5111481   2.256   2.667   1.060 -0.2775  0.1604 -0.5974
   16MOL    C5211482   2.386   2.645   0.974 -0.5038  0.0919  0.2387
   16MOL    C5311483   2.496   2.749   1.008  0.1592 -0.1868 -0.4409
   16MOL    C5411484   2.583   2.695   1.132 -0.4497 -0.1681  0.0825
   16MOL    N5511485   2.695   2.775   1.151  0.5203 -0.1401  0.4523
   16MOL    H5611486   1.650   2.095   0.943  1.0282  0.6552  0.8877
   16MOL    H5711487   1.805   2.075   0.873  0.7619  1.2703  1.9518
   16MOL    H5811488   1.839   2.280   0.933 -0.0168  0.0097  0.5463
   16MOL    H5911489   1.760   2.343   0.802  1.4171  1.4076  0.6479
   16MOL    H6011490   1.618   2.292   1.054  1.4656  0.2423  0.5412
   16MOL    H6111491   1.536   2.341   0.904  0.6916  1.7484 -0.5443
   16MOL    H6211492   1.573   2.541   1.042  1.4752  1.7983  1.6407
   16MOL    H6311493   1.672   2.544   0.893 -0.3377 -0.1342 -0.2230
   16MOL    H6411494   1.892   2.592   0.930  1.6445  1.2834  0.6769
   16MOL    H6511495   2.012   2.714   1.097 -0.0520 -0.3073  1.1799
   16MOL    H6611496   2.025   2.578   1.199 -0.5357 -1.3269 -0.3143
   16MOL    H6711497   2.170   2.464   1.041  0.0634  0.4760  0.1029
   16MOL    H6811498   2.119   2.576   0.916  1.8882  5.0442 -0.9199
   16MOL    H6911499   2.284   2.666   1.165 -1.4880 -0.5076 -0.2747
   16MOL    H7011500   2.219   2.765   1.030 -1.1190  0.1712  0.4470
   16MOL    H7111501   2.428   2.545   0.989  2.4075  0.6126 -3.7344
   16MOL    H7211502   2.359   2.656   0.869 -0.3362 -0.8843  0.0908
   16MOL    H7311503   2.559   2.748   0.918  1.3348 -1.0785  0.3659
   16MOL    H7411504   2.457   2.847   1.034  0.4988 -0.0366 -0.4932
   16MOL    H7511505   2.613   2.591   1.118 -1.4155 -0.4351 -0.0501
   16MOL    H7611506   2.522   2.687   1.221 -0.6599 -0.4962 -0.0906
   16MOL    H7711507   2.716   2.845   1.080  0.6247 -1.8760 -1.2517
   16MOL    C7811508   2.766   2.788   1.266 -0.8545 -0.4792  0.1139
   16MOL    O7911509   2.757   2.717   1.365 -0.4180 -0.5227 -0.5318
   16MOL    C8011510   2.873   2.905   1.258 -0.0262  0.0796 -0.1670
   16MOL    C8111511   3.023   2.856   1.250 -0.6403  0.6196 -0.3429
   16MOL    C8211512   3.064   2.753   1.140 -1.1126  0.3913  0.6892
   16MOL    C8311513   3.037   2.791   0.990  0.2870 -0.3169 -0.3463
   16MOL    C8411514   3.139   2.872   0.917 -0.6025 -0.3525 -0.2868
   16MOL    O8511515   3.207   2.957   0.974 -0.1849  0.2267  0.7985
   16MOL    N8611516   3.157   2.835   0.791 -0.1101 -0.3011  0.8719
   16MOL    C8711517   3.242   2.892   0.691 -0.6834 -0.3547 -0.2648
   16MOL    C8811518   3.381   2.838   0.707  0.0572 -0.3233  0.6562
   16MOL    C8911519   3.494   2.913   0.637 -0.0756 -0.6711 -0.3567
   16MOL    C9011520   3.630   2.890   0.706  0.5757 -0.0667 -0.0959
   16MOL    C9111521   3.738   2.974   0.641  0.7490  0.4868  0.9648
   16MOL    C9211522   3.877   2.922   0.685  0.4882  0.1475 -0.1077
   16MOL    N9311523   3.899   2.904   0.830  0.3053  0.1733  0.0408
   16MOL    H9411524   2.852   2.968   1.172  0.8123  0.8615  0.1915
   16MOL    H9511525   2.850   2.958   1.350  0.0543  0.3652 -0.3099
   16MOL    H9611526   3.094   2.939   1.253  1.5041 -1.0808 -2.0135
   16MOL    H9711527   3.033   2.796   1.341 -1.4079 -1.5931 -1.6758
   16MOL    H9811528   3.008   2.661   1.158 -0.8161  0.0008 -0.3143
   16MOL    H9911529   3.165   2.714   1.152 -1.1509  0.1495  0.2320
   16MOL   H10011530   2.947   2.853   0.987  0.5092  0.0372  0.3406
   16MOL   H10111531   3.013   2.695   0.944  0.8104 -0.3464 -0.5570
   16MOL   H10211532   3.100   2.764   0.746  0.0905 -0.1951  0.4487
   16MOL   H10311533   3.205   2.865   0.592  0.4917  0.7930 -1.0437
   16MOL   H10411534   3.247   3.000   0.696 -3.6088 -0.1915 -0.5351
   16MOL   H10511535   3.411   2.848   0.811  1.2184 -1.8885  0.4873
   16MOL   H10611536   3.381   2.736   0.668 -0.3470  0.3526 -1.1573
   16MOL   H10711537   3.468   3.017   0.616 -3.4641 -1.6294 -1.3634
   16MOL   H10811538   3.511   2.875   0.536  0.7895  1.3154 -0.9924
   16MOL   H10911539   3.627   2.920   0.811 -2.8819  2.0423 -0.7349
   16MOL   H11011540   3.656   2.785   0.695 -2.8081 -1.0244  0.6265
   16MOL   H11111541   3.715   2.976   0.534  3.3146 -0.3770  0.3707
   16MOL   H11211542   3.727   3.077   0.673  1.2183  0.7648  0.2400
   16MOL   H11311543   3.959   2.985   0.652  0.5997 -0.5154 -1.0951
   16MOL   H11411544   3.895   2.829   0.632  0.3403  0.2776 -0.3859
   16MOL   H11511545   3.884   2.811   0.868  0.8178 -0.9060 -2.3036
   16MOL   C11611546   3.950   3.005   0.909  0.3299  0.1566  0.8015
   16MOL   O11711547   3.948   3.124   0.878 -0.4461  0.2238 -0.2095
   16MOL   C11811548   4.018   2.970   1.044  0.0391 -0.1183  0.0770
   16MOL   C11911549   4.160   2.913   1.033  0.0992  0.2194 -0.3311
   16MOL   C12011550   4.238   2.958   0.907  0.2040  0.0716  0.2469
   16MOL   C12111551   4.380   2.903   0.919 -0.0269  0.0186 -0.0701
   16MOL   C12211552   4.484   2.955   0.816 -0.8801  0.1825 -0.7938
   16MOL   O12311553   4.499   3.077   0.791 -0.2426  0.0859  0.6487
   16MOL   N12411554   4.557   2.860   0.762  0.2697 -0.1082 -0.1688
   16MOL   C12511555   4.647   2.878   0.647 -0.3104  0.3973  0.0398
   16MOL   C12611556   4.784   2.823   0.682  1.2899 -0.4726  0.1769
   16MOL   C12711557   4.874   2.799   0.559  0.1531  0.2300  0.3404
   16MOL   C12811558   5.008   2.731   0.594  0.1464 -0.0908  0.0212
   16MOL   C12911559   5.012   2.576   0.594 -0.2294 -0.3834 -0.0816
   16MOL   C13011560   5.010   2.495   0.464 -0.3134  0.4717  0.1772
   16MOL   N13111561   5.130   2.535   0.389 -0.1492  0.3981 -0.5095
   16MOL   H13211562   4.027   3.065   1.096  0.5772  0.3384 -0.8302
   16MOL   H13311563   3.952   2.902   1.098 -0.2921  0.6576  0.6637
   16MOL   H13411564   4.219   2.933   1.123  1.1146  0.8694 -1.1323
   16MOL   H13511565   4.163   2.805   1.018  2.0710  0.2386 -0.1864
   16MOL   H13611566   4.234   3.066   0.910 -2.8535  0.0452 -0.6218
   16MOL   H13711567   4.192   2.929   0.812  5.1703 -1.0850 -1.9595
   16MOL   H13811568   4.382   2.795   0.933  0.8999 -0.1240 -1.2116
   16MOL   H13911569   4.429   2.913   1.017 -1.8686  0.7922  0.7872
   16MOL   H14011570   4.543   2.762   0.783  2.9111 -0.8465 -1.6545
   16MOL   H14111571   4.603   2.818   0.568 -1.8839 -0.3715  1.4791
   16MOL   H14211572   4.643   2.981   0.610  1.6124  0.0232 -1.2827
   16MOL   H14311573   4.831   2.886   0.757 -0.7404  1.2049  0.0705
   16MOL   H14411574   4.769   2.725   0.728  2.0201  0.2545  2.0226
   16MOL   H14511575   4.880   2.898   0.513 -0.4496 -0.3018 -0.8952
   16MOL   H14611576   4.823   2.738   0.485 -2.2118  1.3725  0.9818
   16MOL   H14711577   5.090   2.776   0.537 -0.6113  0.8158 -0.3739
   16MOL   H14811578   5.040   2.764   0.693 -2.7825 -0.2436  1.0662
   16MOL   H14911579   5.098   2.541   0.652  0.2481 -0.1456 -0.6482
   16MOL   H15011580   4.927   2.549   0.657  0.4022 -0.7487  0.6262
   16MOL   H15111581   4.914   2.501   0.414 -0.2489  0.0771  0.0049
   16MOL   H15211582   5.015   2.394   0.503  0.4911 -1.0007 -3.5166
   16MOL   H15311583   5.224   2.529   0.425 -1.3644 -0.1640  2.7190
   16MOL   C15411584   5.121   2.574   0.262  0.5689  0.3240  0.2395
   16MOL   O15511585   5.012   2.580   0.202 -0.0892 -0.0891 -0.5044
   16MOL   C15611586   5.247   2.612   0.193  0.0530  0.3073  0.7302
   16MOL   C15711587   5.282   2.754   0.217  0.0713  0.2808 -0.4089
   16MOL   C15811588   5.391   2.808   0.123 -0.4469  0.7488 -0.6299
   16MOL   C15911589   5.422   2.959   0.126 -0.4041 -0.3496  0.4578
   16MOL   C16011590   5.497   3.003   0.252 -0.3246 -0.4933 -0.8668
   16MOL   O16111591   5.620   2.990   0.255 -0.2646 -0.3511 -0.2104
   16MOL   N16211592   5.428   3.061   0.355  0.2267 -0.3317  0.1846
   16MOL   C16311593   5.484   3.119   0.478  0.3236  0.1951  1.0379
   16MOL   C16411594   5.515   3.003   0.581 -1.0449 -0.3222 -0.4922
   16MOL   C16511595   5.552   3.054   0.719 -0.4274  0.0964 -0.0959
   16MOL   C16611596   5.592   2.941   0.810 -0.1545  0.3837 -0.6861
   16MOL   C16711597   5.579   2.967   0.956  0.0685  0.0166 -0.3446
   16MOL   C16811598   5.656   2.858   1.040  0.5295 -0.2745  0.1711
   16MOL   N16911599   5.621   2.866   1.180 -0.1801  0.3593  0.0480
   16MOL   H17011600   5.323   2.537   0.216  0.1428  0.1918  0.0673
   16MOL   H17111601   5.229   2.584   0.090  2.3207  0.6712  0.2115
   16MOL   H17211602   5.191   2.812   0.200  0.5795  1.0276 -0.6571
   16MOL   H17311603   5.310   2.772   0.321 -1.3626  1.0583 -0.1465
   16MOL   H17411604   5.367   2.779   0.021 -0.7724  0.2317 -0.4123
   16MOL   H17511605   5.487   2.760   0.143  0.2294  2.0148 -0.7775
   16MOL   H17611606   5.329   3.016   0.121  0.9872  2.2332  2.5834
   16MOL   H17711607   5.477   2.985   0.036  0.2142  2.7114  1.6459
   16MOL   H17811608   5.328   3.067   0.344  0.2404  0.3267  0.3521
   16MOL   H17911609   5.572   3.177   0.451 -0.9162  0.8173 -1.9179
   16MOL   H18011610   5.411   3.192   0.510 -0.9281  1.0339 -3.4207
   16MOL   H18111611   5.429   2.937   0.591 -1.4273  0.3873  1.0885
   16MOL   H18211612   5.594   2.933   0.551  0.5015  0.5742  1.3588
   16MOL   H18311613   5.468   3.118   0.745  0.0087  0.9333 -0.7352
   16MOL   H18411614   5.650   3.100   0.708  0.3250 -1.4243  0.0792
   16MOL   H18511615   5.529   2.855   0.787  0.1517 -0.0912  0.2168
   16MOL   H18611616   5.691   2.899   0.792  0.9196  2.5335  0.1290
   16MOL   H18711617   5.626   3.061   0.983 -3.3805  0.6921  4.0027
   16MOL   H18811618   5.474   2.980   0.985 -0.1342  0.3352 -1.2120
   16MOL   H18911619   5.764   2.846   1.029  0.4272  0.0692 -1.2544
   16MOL   H19011620   5.618   2.764   1.000  0.4564  0.1901 -0.8804
   16MOL   H19111621   5.611   2.955   1.226  2.0190  0.4779  0.3566
   16MOL   C19211622   5.634   2.766   1.268  0.4768 -0.0240  0.0674
   16MOL   O19311623   5.677   2.656   1.237  0.2567  0.4318 -0.1876
   16MOL   C19411624   5.592   2.788   1.414 -1.0616  0.6110  0.2898
   16MOL   C19511625   5.438   2.798   1.431  0.6836  0.4772  0.1584
   16MOL   C19611626   5.351   2.668   1.409 -0.6781 -0.0673  0.2676
   16MOL   C19711627   5.201   2.689   1.398 -0.6363  0.5332 -0.1584
   16MOL   C19811628   5.176   2.738   1.256 -0.1971  0.3441  0.4071
   16MOL   O19911629   5.180   2.862   1.242 -0.8726 -0.4546  0.2820
   16MOL   N20011630   5.169   2.647   1.159  0.0747 -0.1963  0.0779
   16MOL   C20111631   5.143   2.679   1.021  0.0610  0.1598  0.7245
   16MOL   C20211632   5.252   2.651   0.924 -0.3749  0.4885 -0.0583
   16MOL   C20311633   5.273   2.502   0.897  1.0125  0.0517  0.1009
   16MOL   C20411634   5.377   2.475   0.789 -0.1323 -0.5645 -0.9038
   16MOL   C20511635   5.511   2.479   0.854 -0.4988  0.8847 -0.0486
   16MOL   C20611636   5.632   2.437   0.760  0.1178 -0.0905  0.6794
   16MOL   N20711637   5.757   2.428   0.839  0.3928 -0.6906  0.0867
   16MOL   H20811638   5.633   2.701   1.466 -0.5810  1.3032  1.0841
   16MOL   H20911639   5.640   2.877   1.455 -1.6475  1.0883 -0.0576
   16MOL   H21011640   5.420   2.835   1.532  0.1085  0.6394  0.0019
   16MOL   H21111641   5.397   2.870   1.360  0.5396 -0.8734 -1.1358
   16MOL   H21211642   5.364   2.600   1.493  0.4929 -1.7557 -1.2502
   16MOL   H21311643   5.380   2.616   1.318  1.5731 -1.5683  1.7900
   16MOL   H21411644   5.169   2.761   1.473  1.1109  2.0668 -0.8459
   16MOL   H21511645   5.137   2.601   1.409  0.9038 -1.0434 -3.1255
   16MOL   H21611646   5.197   2.552   1.179  0.6605  0.0392  0.4276
   16MOL   H21711647   5.058   2.619   0.987  0.3744 -0.2257  0.6197
   16MOL   H21811648   5.106   2.779   0.997 -0.3225 -0.2002 -0.2134
   16MOL   H21911649   5.223   2.708   0.835  0.2780 -0.5919 -0.9826
   16MOL   H22011650   5.340   2.710   0.951 -0.2522 -0.7604  2.3340
   16MOL   H22111651   5.179   2.462   0.857  0.7835  0.2425  0.4507
   16MOL   H22211652   5.295   2.431   0.976  0.9734  1.1247  1.0785
   16MOL   H22311653   5.347   2.376   0.756 -2.2172  0.5325 -2.4157
   16MOL   H22411654   5.365   2.538   0.701  0.1953 -0.5384 -0.9302
   16MOL   H22511655   5.529   2.581   0.886 -1.8972  1.3779 -0.7789
   16MOL   H22611656   5.505   2.426   0.949 -0.4257  0.7991 -0.0920
   16MOL   H22711657   5.638   2.499   0.671  0.4510 -0.4390  0.4584
   16MOL   H22811658   5.606   2.349   0.701 -0.8478  0.9056 -0.4173
   16MOL   H22911659   5.799   2.510   0.881  0.1131 -0.0869 -0.7904
   16MOL   C23011660   5.801   2.317   0.891 -0.6245 -0.8570 -1.0810
   16MOL   O23111661   5.750   2.207   0.868  0.8914 -0.3214 -0.0122
   16MOL   C23211662   5.930   2.325   0.974  0.1668  0.1986 -0.1978
   16MOL   C23311663   5.996   2.194   1.020  0.1359 -0.0544 -0.3543
   16MOL   C23411664   6.130   2.214   1.098  0.7600 -0.3560  0.2081
   16MOL   C23511665   6.246   2.256   1.007 -0.3776 -0.4243  0.2757
   16MOL   C23611666   6.383   2.245   1.082 -0.3827 -0.4607  0.5350
   16MOL   O23711667   6.385   2.251   1.204  0.1788  1.0133  0.2272
   16MOL   N23811668   6.499   2.250   1.011  0.1862  0.0583  0.0863
   16MOL   C23911669   6.630   2.298   1.060 -0.1205 -0.4620  0.5704
   16MOL   C24011670   6.646   2.448   1.032  0.2282 -0.1227 -0.0559
   16MOL   C24111671   6.593   2.545   1.148 -0.3621  0.3692 -0.4313
   16MOL   C24211672   6.641   2.685   1.126 -0.8555  0.3522  0.0278
   16MOL   C24311673   6.587   2.777   1.238  0.9423  0.0121 -0.4972
   16MOL   C24411674   6.616   2.923   1.208 -0.5574 -0.6465 -0.3756
   16MOL   N24511675   6.539   3.008   1.295  0.0639 -0.5260  0.3015
   16MOL   H24611676   5.994   2.402   0.932 -1.1507  1.0894 -0.5775
   16MOL   H24711677   5.901   2.386   1.060 -0.1907  1.9118 -1.4987
   16MOL   H24811678   5.920   2.154   1.088  0.9610 -0.9499  0.0356
   16MOL   H24911679   6.002   2.110   0.952 -2.4713 -1.2229  0.7832
   16MOL   H25011680   6.152   2.119   1.145  0.4936 -1.4398 -1.8020
   16MOL   H25111681   6.118   2.289   1.176  0.7799  0.2727 -0.3755
   16MOL   H25211682   6.250   2.359   0.973 -3.2594 -0.3098  0.1681
   16MOL   H25311683   6.247   2.189   0.921  1.9257 -0.2212  0.0958
   16MOL   H25411684   6.490   2.245   0.911  0.6352  0.4299  0.0258
   16MOL   H25511685   6.646   2.275   1.165  0.1092  0.3366  0.7132
   16MOL   H25611686   6.698   2.239   0.999 -0.7243  2.2279 -2.8946
   16MOL   H25711687   6.741   2.479   0.990 -0.3808  1.1264 -0.5290
   16MOL   H25811688   6.594   2.470   0.939  0.9341  0.2938 -0.3570
   16MOL   H25911689   6.626   2.523   1.249 -2.7745  3.3188  1.0825
   16MOL   H26011690   6.485   2.536   1.161  0.0649 -0.0211  3.2827
   16MOL   H26111691   6.750   2.688   1.121 -0.8176 -1.1320 -0.2188
   16MOL   H26211692   6.592   2.711   1.033  0.9884 -0.7458 -1.2918
   16MOL   H26311693   6.483   2.759   1.265  0.8393  0.6050 -0.4902
   16MOL   H26411694   6.636   2.751   1.332 -0.1355 -1.5967 -0.3667
   16MOL   H26511695   6.588   2.949   1.106  0.0361  2.6675  0.2241
   16MOL   H26611696   6.723   2.947   1.215 -0.8747  0.6398  0.2961
   16MOL   H26711697   6.466   2.960   1.346  0.1231 -0.2636  0.6395
   16MOL   C26811698   6.581   3.130   1.326 -0.1233 -0.5395 -0.7435
   16MOL   O26911699   6.684   3.181   1.282 -0.0071 -0.0747 -0.4566
   16MOL   C27011700   6.514   3.208   1.439  0.0382 -0.4902 -0.1906
   16MOL   C27111701   6.470   3.352   1.386 -0.0449  0.4847  0.1418
   16MOL   C27211702   6.362   3.421   1.474 -0.0686  0.5387 -0.0168
   16MOL   C27311703   6.334   3.558   1.418 -0.2013 -0.3359  0.5300
   16MOL   C27411704   6.230   3.626   1.512 -0.1153  0.5969  0.1466
   16MOL   O27511705   6.222   3.607   1.633 -0.0434 -0.6030  0.1630
   16MOL   N27611706   6.135   3.697   1.456  0.1443 -0.8447 -0.0857
   16MOL   C27711707   6.031   3.781   1.521 -0.6283  0.8981  0.4319
   16MOL   C27811708   5.902   3.690   1.520 -0.2712 -0.4850 -0.1911
   16MOL   C27911709   5.809   3.722   1.644  0.4177  0.5869 -0.6349
   16MOL   C28011710   5.665   3.665   1.612 -0.2241  0.0861  0.0079
   16MOL   C28111711   5.580   3.628   1.739 -0.6871 -0.5701 -0.1974
   16MOL   C28211712   5.451   3.564   1.697 -0.0124 -0.2583  0.3536
   16MOL   N28311713   5.375   3.524   1.813  0.4090  0.3670 -0.0799
   16MOL   H28411714   6.422   3.155   1.464 -1.2190  0.9774 -1.5560
   16MOL   H28511715   6.586   3.211   1.520 -0.9038  2.0301  0.6009
   16MOL   H28611716   6.556   3.412   1.358  1.8957 -2.0994  0.4193
   16MOL   H28711717   6.414   3.333   1.294 -1.3045  3.3241  0.2595
   16MOL   H28811718   6.390   3.412   1.579  1.1667 -1.8282 -0.5139
   16MOL   H28911719   6.273   3.362   1.452  0.7978 -0.5902 -0.5567
   16MOL   H29011720   6.293   3.543   1.318  0.5985 -2.3726  0.5011
   16MOL   H29111721   6.422   3.623   1.420  0.8807 -1.7146 -1.0158
   16MOL   H29211722   6.135   3.700   1.355  2.2285 -1.2923 -0.1275
   16MOL   H29311723   6.042   3.805   1.627  0.9620  1.5853  0.1206
   16MOL   H29411724   6.021   3.872   1.462 -1.7345 -0.2145 -1.1542
   16MOL   H29511725   5.850   3.714   1.428 -0.8586  1.5860  0.6583
   16MOL   H29611726   5.941   3.588   1.516 -0.6062 -0.5465 -2.0991
   16MOL   H29711727   5.801   3.829   1.661 -1.2769  0.1879  1.1807
   16MOL   H29811728   5.858   3.675   1.729  0.5757 -0.7811 -1.4759
   16MOL   H29911729   5.611   3.739   1.553  4.7186  1.5610 -2.9988
   16MOL   H30011730   5.681   3.575   1.552  1.4185 -0.9341  1.8803
   16MOL   H30111731   5.635   3.566   1.809  1.1245  1.3130  0.0984
   16MOL   H30211732   5.550   3.720   1.790 -1.1084 -0.7733 -0.0778
   16MOL   H30311733   5.458   3.482   1.626 -0.5983  1.3571 -1.6029
   16MOL   H30411734   5.391   3.632   1.638 -0.9763 -0.9255  0.5366
   16MOL   H30511735   5.292   3.575   1.838 -0.2536 -0.5725 -0.3589
   16MOL   C30611736   5.392   3.427   1.899  0.4184  0.2176 -0.6325
   16MOL   O30711737   5.489   3.359   1.895 -0.6092 -0.3532  0.2386
   16MOL   C30811738   5.290   3.413   2.012 -0.0869 -0.9712 -0.8180
   16MOL   C30911739   5.277   3.273   2.076  0.4065  0.2614  0.3032
   16MOL   C31011740   5.177   3.258   2.200  0.3792  0.6649 -0.4243
   16MOL   C31111741   5.208   3.349   2.315  0.4324  0.2776 -0.3898
   16MOL   C31211742   5.181   3.291   2.453  0.8467 -0.1633  0.0883
   16MOL   O31311743   5.109   3.194   2.467  0.0248 -0.8700  0.5529
   16MOL   N31411744   5.230   3.364   2.556 -0.6618  0.0425  0.4829
   16MOL   C31511745   5.255   3.319   2.698  0.2478 -0.5898 -0.4163
   16MOL   C31611746   5.148   3.369   2.795 -0.7271  0.7876 -0.2187
   16MOL   C31711747   5.170   3.310   2.935  0.2654 -0.2851 -0.2617
   16MOL   C31811748   5.049   3.320   3.031 -0.3724  0.0427  0.3432
   16MOL   C31911749   5.066   3.226   3.160  1.1399  0.1097  0.2365
   16MOL   C32011750   4.940   3.213   3.247  0.1458 -0.4583 -0.0587
   16MOL   N32111751   4.954   3.127   3.366 -0.4701  0.3305  1.0243
   16MOL   H32211752   5.315   3.492   2.083 -1.1601 -0.4491 -1.0103
   16MOL   H32311753   5.192   3.431   1.968  0.3682 -0.7644 -1.7694
   16MOL   H32411754   5.249   3.197   2.004  0.5565 -0.9005  1.4493
   16MOL   H32511755   5.381   3.250   2.096  0.5707 -0.6555 -1.5930
   16MOL   H32611756   5.182   3.153   2.230  0.2776  0.4411 -1.1677
   16MOL   H32711757   5.076   3.289   2.173  0.0185  1.2239  1.4673
   16MOL   H32811758   5.162   3.448   2.320 -1.6720 -0.6827 -0.1492
   16MOL   H32911759   5.312   3.380   2.301 -0.2351  1.6740 -2.6645
   16MOL   H33011760   5.294   3.438   2.529 -1.1476  0.6838  1.0776
   16MOL   H33111761   5.266   3.211   2.701  1.5288 -0.4559  0.3095
   16MOL   H33211762   5.352   3.363   2.722 -0.8422  2.0607 -0.7204
   16MOL   H33311763   5.126   3.476   2.804 -0.8224  0.9494 -2.1338
   16MOL   H33411764   5.052   3.336   2.755  0.1849  1.5697 -3.2089
   16MOL   H33511765   5.246   3.355   3.000  0.2129 -1.0493  0.3412
   16MOL   H33611766   5.190   3.203   2.931  0.9499 -0.2135  0.9846
   16MOL   H33711767   5.039   3.424   3.062 -1.2886  0.4845 -1.4044
   16MOL   H33811768   4.958   3.307   2.973 -0.8310  2.7736  0.3957
   16MOL   H33911769   5.108   3.129   3.135 -0.6161 -1.3439  2.7313
   16MOL   H34011770   5.142   3.272   3.224  0.2704 -1.5669  2.5369
   16MOL   H34111771   4.865   3.171   3.180 -1.4807 -0.9936  2.0439
   16MOL   H34211772   4.910   3.312   3.283  3.0026  0.0932  0.9138
   16MOL   H34311773   5.047   3.102   3.396 -0.2315  3.8807  3.6699
   16MOL   C34411774   4.850   3.089   3.451  0.1659 -0.1481 -0.7968
   16MOL   O34511775   4.735   3.132   3.429 -0.3469 -0.4224  0.7718
   16MOL   C34611776   4.884   3.005   3.573  0.6130  0.7108  0.1540
   16MOL   C34711777   4.758   2.978   3.664  0.1721  0.1329 -0.0852
   16MOL   C34811778   4.804   2.922   3.800 -0.0992  0.3787  0.1053
   16MOL   C34911779   4.706   2.944   3.918  0.6211  0.2818 -0.7175
   16MOL   C35011780   4.560   2.920   3.885  0.3713  0.2461  0.3992
   16MOL   O35111781   4.498   3.006   3.830  0.2734  0.4085  0.0021
   16MOL   N35211782   4.511   2.799   3.916  0.4541  0.4132 -0.6960
   16MOL   C35311783   4.380   2.751   3.892 -1.0006  0.4473  0.0536
   16MOL   C35411784   4.384   2.607   3.828  0.5148 -0.0058  0.4428
   16MOL   C35511785   4.438   2.599   3.685  0.3328 -0.0418 -0.4983
   16MOL   C35611786   4.323   2.616   3.578  0.1340 -0.2170 -0.0282
   16MOL   C35711787   4.373   2.654   3.439 -0.4928 -0.4459 -0.3808
   16MOL   C35811788   4.254   2.637   3.335  0.3574 -0.0122 -0.1113
   16MOL   N35911789   4.300   2.624   3.197 -0.4131 -0.2597  0.5676
   16MOL   H36011790   4.944   2.916   3.551  0.4584  0.4846  0.6439
   16MOL   H36111791   4.956   3.068   3.624 -0.4865  0.5200  1.9981
   16MOL   H36211792   4.713   3.076   3.683 -1.2153 -0.4340 -0.3884
   16MOL   H36311793   4.684   2.917   3.611 -1.1431 -0.5604  2.4840
   16MOL   H36411794   4.895   2.972   3.833 -0.2995 -0.0783  1.3753
   16MOL   H36511795   4.842   2.820   3.790  2.8930  1.6585 -2.2776
   16MOL   H36611796   4.709   3.043   3.963 -1.4903 -0.3702  0.9740
   16MOL   H36711797   4.730   2.881   4.003 -0.6706  0.9108  0.1211
   16MOL   H36811798   4.575   2.734   3.960 -1.5775 -0.0889  1.6031
   16MOL   H36911799   4.342   2.747   3.994  1.3051  0.5143  0.9500
   16MOL   H37011800   4.307   2.808   3.835  0.2164  1.4335 -0.5684
   16MOL   H37111801   4.443   2.546   3.896 -1.3853 -2.3148  0.0613
   16MOL   H37211802   4.280   2.578   3.818  0.5741  0.1927 -0.8538
   16MOL   H37311803   4.495   2.506   3.689  0.1649 -0.3186 -3.4212
   16MOL   H37411804   4.515   2.675   3.666  0.0523  0.6293  1.0013
   16MOL   H37511805   4.276   2.519   3.565 -3.3006  1.2781  0.6625
   16MOL   H37611806   4.249   2.689   3.610 -0.3941 -0.5609 -0.4496
   16MOL   H37711807   4.401   2.759   3.438 -1.3064 -0.2018  0.8683
   16MOL   H37811808   4.459   2.591   3.416 -0.1008 -0.5334  1.2838
   16MOL   H37911809   4.190   2.726   3.337 -0.3750 -0.5192 -0.4416
   16MOL   H38011810   4.189   2.553   3.360  0.4820  0.3310  1.3759
   16MOL   H38111811   4.323   2.711   3.151 -2.8347 -0.9423 -2.1378
   16MOL   C38211812   4.349   2.511   3.142  0.1177  0.3469 -0.6647
   16MOL   O38311813   4.330   2.399   3.198 -0.0993  0.1057 -0.1729
   16MOL   C38411814   4.433   2.522   3.012 -0.0240 -0.6076  0.0817
   16MOL   C38511815   4.515   2.398   2.970  0.1719 -0.2494 -0.7460
   16MOL   C38611816   4.455   2.329   2.845  0.2684 -0.5739  0.1834
   16MOL   C38711817   4.325   2.251   2.880 -0.6718 -0.2947  0.4506
   16MOL   C38811818   4.350   2.123   2.950 -0.1084 -0.1558  0.9407
   16MOL   O38911819   4.397   2.024   2.890  0.8850 -0.0087 -0.3624
   16MOL   N39011820   4.327   2.131   3.084  0.1348 -0.8042  0.4770
   16MOL   C39111821   4.367   2.034   3.181 -0.4815 -0.1537 -0.1736
   16MOL   C39211822   4.279   2.044   3.308 -0.2976  0.2522  0.6422
   16MOL   C39311823   4.306   1.930   3.408 -0.6842 -0.1081 -0.1884
   16MOL   C39411824   4.202   1.923   3.518  0.1618 -0.3774  0.1005
   16MOL   C39511825   4.219   1.816   3.627  0.2692  0.4313  0.5814
   16MOL   C39611826   4.107   1.826   3.730  0.3941 -0.0321  0.9889
   16MOL   N39711827   4.113   1.941   3.822  0.1512  0.2808 -0.2352
   16MOL   H39811828   4.356   2.546   2.938  0.6335  0.4064 -0.2871
   16MOL   H39911829   4.497   2.609   3.021 -0.7590  0.0559 -0.9427
   16MOL   H40011830   4.618   2.432   2.967  0.7696 -1.9034  0.3197
   16MOL   H40111831   4.516   2.317   3.043  0.7620 -0.6943 -1.2457
   16MOL   H40211832   4.530   2.262   2.804  1.2618  0.3447  0.4951
   16MOL   H40311833   4.439   2.408   2.772  2.9249  1.0398  1.2734
   16MOL   H40411834   4.268   2.214   2.794  0.4298 -1.1427  0.0805
   16MOL   H40511835   4.252   2.316   2.929  0.4947  0.3307  1.3593
   16MOL   H40611836   4.293   2.221   3.116 -0.7594 -0.5727 -1.0375
   16MOL   H40711837   4.347   1.934   3.143 -0.7360  0.4693 -1.7287
   16MOL   H40811838   4.473   2.043   3.204 -0.1854 -0.2814 -1.4340
   16MOL   H40911839   4.307   2.138   3.355 -1.9670 -0.1805  2.5620
   16MOL   H41011840   4.174   2.054   3.282 -0.3323  0.6484  0.9247
   16MOL   H41111841   4.408   1.944   3.443 -1.1965  2.7670  0.2353
   16MOL   H41211842   4.292   1.840   3.347 -0.4291  2.3200 -4.0280
   16MOL   H41311843   4.208   2.022   3.563 -2.2967  0.2646 -0.8975
   16MOL   H41411844   4.104   1.928   3.472  1.0032  0.8029 -1.6291
   16MOL   H41511845   4.201   1.723   3.573 -1.3802  2.3825 -2.3481
   16MOL   H41611846   4.309   1.803   3.688  1.3992  0.8827 -0.9442
   16MOL   H41711847   4.103   1.726   3.773  0.3529 -0.2559  0.4624
   16MOL   H41811848   4.010   1.843   3.683  1.1318  0.5221 -0.3618
   16MOL   H41911849   4.175   2.019   3.806 -1.1595  1.3244 -0.3301
   16MOL   C42011850   4.060   1.937   3.948 -0.1683  0.1405 -0.1512
   16MOL   O42111851   3.990   1.850   3.989  0.0875  0.2429 -0.0385
   16MOL   C42211852   4.091   2.053   4.045 -0.6596 -0.0722  0.1381
   16MOL   C42311853   3.994   2.071   4.168  0.3021  0.2082 -0.0092
   16MOL   C42411854   3.853   2.106   4.126 -0.1625  0.5069 -0.6585
   16MOL   C42511855   3.770   2.171   4.234 -0.4225 -1.2915 -0.1638
   16MOL   C42611856   3.759   2.093   4.371  0.0284  0.7451 -0.1065
   16MOL   O42711857   3.709   1.983   4.369 -0.1382  0.0112  0.8991
   16MOL   N42811858   3.793   2.158   4.483 -0.0773  0.7843 -0.3471
   16MOL   C42911859   3.820   2.091   4.610 -0.0432 -0.5240  1.0483
   16MOL   C43011860   3.960   2.026   4.624 -0.2815  0.6668  0.2339
   16MOL   C43111861   4.081   2.130   4.625 -0.1842 -0.4512  0.0899
   16MOL   C43211862   4.210   2.049   4.647 -0.0193  0.0893  0.6826
   16MOL   C43311863   4.337   2.111   4.582  0.3449  0.0165 -0.1164
   16MOL   C43411864   4.459   2.026   4.583  0.0266 -0.0981  0.0782
   16MOL   N43511865   4.490   1.970   4.713  0.1751 -0.1424 -0.1014
   16MOL   H43611866   4.191   2.034   4.084 -1.1216  0.8628  1.8398
   16MOL   H43711867   4.103   2.147   3.991  0.3267  0.1872  0.7707
   16MOL   H43811868   4.000   1.989   4.239  1.7945  0.6548  0.4025
   16MOL   H43911869   4.039   2.155   4.221 -0.9684  0.8970  0.0045
   16MOL   H44011870   3.812   2.011   4.094  0.4416 -0.3341  1.0227
   16MOL   H44111871   3.849   2.160   4.031  2.1087  0.2488 -0.9311
   16MOL   H44211872   3.671   2.188   4.191 -0.2324  1.8213  0.4840
   16MOL   H44311873   3.818   2.269   4.246 -1.6547 -0.7240  0.2208
   16MOL   H44411874   3.802   2.258   4.477 -3.8953  1.3882  2.1337
   16MOL   H44511875   3.811   2.168   4.687 -2.2483  0.3678 -0.0438
   16MOL   H44611876   3.740   2.020   4.631 -1.1109  0.4937  0.5032
   16MOL   H44711877   3.966   1.974   4.720  1.1819  1.9708  0.8713
   16MOL   H44811878   3.974   1.956   4.541  2.5212 -0.0943  1.3146
   16MOL   H44911879   4.077   2.204   4.705 -2.3675 -1.0286  0.5591
   16MOL   H45011880   4.082   2.184   4.530  0.1761 -0.3386  0.1571
   16MOL   H45111881   4.214   2.046   4.755  2.3116  1.4584  0.6764
   16MOL   H45211882   4.212   1.946   4.611  1.7190  0.3123  0.0958
   16MOL   H45311883   4.317   2.155   4.485 -0.4340 -0.0863 -0.0035
   16MOL   H45411884   4.369   2.199   4.638  0.1717  0.0746 -0.1085
   16MOL   H45511885   4.554   2.077   4.561 -0.2871  1.1520  1.5243
   16MOL   H45611886   4.449   1.956   4.501  2.3913  0.6285 -0.8722
   16MOL   H45711887   4.447   1.881   4.732  0.9465 -0.6829 -0.9207
   16MOL   C45811888   4.540   2.037   4.813  0.2381 -0.0729  0.5106
   16MOL   O45911889   4.588   2.147   4.811 -0.0487 -0.1348  0.2334
   16MOL   C46011890   4.509   1.964   4.941  0.1673  0.8407  0.3751
   16MOL   C46111891   4.625   1.866   4.982 -0.0947 -0.2391 -0.3025
   16MOL   C46211892   4.575   1.750   5.064  0.2217  0.5728 -0.2060
   16MOL   C46311893   4.533   1.795   5.213 -0.1830  0.5441  0.1990
   16MOL   C46411894   4.491   1.670   5.285  0.1427 -0.5661 -0.0856
   16MOL   O46511895   4.562   1.568   5.298  0.2847 -0.1187  0.1870
   16MOL   N46611896   4.363   1.669   5.334 -0.5054  0.0936 -0.1623
   16MOL   C46711897   4.301   1.541   5.378  0.7200  0.6474 -0.0186
   16MOL   C46811898   4.207   1.483   5.271 -0.8067 -0.4917  0.0661
   16MOL   C46911899   4.151   1.349   5.314  0.2653  0.5473 -0.2959
   16MOL   C47011900   4.080   1.273   5.207  0.2752 -0.5986 -0.3154
   16MOL   C47111901   4.169   1.213   5.094  0.2303 -0.6538 -0.4562
   16MOL   C47211902   4.075   1.150   4.996  0.0874 -0.0509 -0.2221
   16MOL   N47311903   4.162   1.122   4.872  0.0651  0.0520 -0.4616
   16MOL   H47411904   4.497   2.044   5.013 -1.5308  0.7109  0.2473
   16MOL   H47511905   4.415   1.909   4.931  0.7037  0.1753 -1.3208
   16MOL   H47611906   4.668   1.818   4.894 -0.4930  0.5411 -0.9354
   16MOL   H47711907   4.690   1.929   5.044 -0.6380 -2.4503  2.6022
   16MOL   H47811908   4.646   1.668   5.072 -0.6304  0.0032  1.8906
   16MOL   H47911909   4.485   1.713   5.015 -0.0152 -0.1491  0.7496
   16MOL   H48011910   4.460   1.875   5.205 -1.2861 -0.6681 -2.4957
   16MOL   H48111911   4.620   1.840   5.260 -1.0592  0.8127  1.5987
   16MOL   H48211912   4.311   1.755   5.343  0.4749  0.6009  0.7954
   16MOL   H48311913   4.367   1.462   5.414 -0.6844 -0.3676  0.3708
   16MOL   H48411914   4.247   1.559   5.470  0.7555  0.8428 -0.0370
   16MOL   H48511915   4.131   1.556   5.243 -1.9031 -0.5515  2.6995
   16MOL   H48611916   4.277   1.470   5.189  1.5246 -0.9285  2.0555
   16MOL   H48711917   4.088   1.349   5.403 -0.1128 -1.1060 -0.5476
   16MOL   H48811918   4.235   1.287   5.346  0.0840  1.2347  1.5767
   16MOL   H48911919   4.021   1.191   5.247  0.6186  0.1959  1.8557
   16MOL   H49011920   4.004   1.333   5.157 -2.0831 -1.6465  1.9387
   16MOL   H49111921   4.218   1.298   5.045 -0.7076  1.1207  1.6106
   16MOL   H49211922   4.234   1.132   5.126  1.1357  0.0849 -0.3769
   16MOL   H49311923   3.998   1.224   4.975  0.7467  1.0331  1.0016
   16MOL   H49411924   4.024   1.062   5.035 -0.8727  0.7546  0.3730
   16MOL   H49511925   4.174   1.197   4.804  1.6604 -0.7631 -1.1092
   16MOL   C49611926   4.246   1.020   4.850  0.1152 -0.4727 -0.6328
   16MOL   O49711927   4.253   0.927   4.927 -0.5105 -0.1857  0.1245
   16MOL   C49811928   4.353   1.044   4.742 -0.4994 -0.9969 -0.5329
   16MOL   C49911929   4.503   1.040   4.785 -0.2702  0.2616  0.1235
   16MOL   C50011930   4.592   1.053   4.662 -0.4192  0.1962  0.2623
   16MOL   C50111931   4.741   1.032   4.699  0.2596  0.1404  0.4304
   16MOL   C50211932   4.812   1.153   4.761 -0.3124  0.4819  0.5093
   16MOL   O50311933   4.792   1.265   4.713 -0.4216 -0.2524  0.1239
   16MOL   N50411934   4.878   1.145   4.872 -0.1133 -0.4243 -0.4815
   16MOL   C50511935   4.971   1.250   4.932 -0.1382 -0.6687  0.2041
   16MOL   C50611936   5.064   1.195   5.040 -0.0112 -0.2022 -0.2128
   16MOL   C50711937   4.988   1.118   5.149 -0.4121 -0.2558  0.1260
   16MOL   C50811938   5.084   1.068   5.259 -0.2431  0.1432  0.1759
   16MOL   C50911939   4.999   1.012   5.376 -0.2871 -0.7674 -0.6888
   16MOL   C51011940   5.083   0.939   5.486  0.3855 -0.6670  0.1841
   16MOL   N51111941   4.999   0.862   5.575 -0.0831  0.7758 -0.7696
   16MOL   H51211942   4.340   0.981   4.654 -3.0403 -1.6233  0.2588
   16MOL   H51311943   4.339   1.140   4.692  0.9163  0.3547  1.5569
   16MOL   H51411944   4.522   1.116   4.861  0.4782  0.1369  0.0582
   16MOL   H51511945   4.519   0.942   4.831 -0.7858  0.0580 -0.1213
   16MOL   H51611946   4.580   1.140   4.597 -1.0959 -0.9788 -1.2083
   16MOL   H51711947   4.577   0.974   4.589  1.4155  1.7950 -1.9354
   16MOL   H51811948   4.795   1.022   4.605 -0.2805  1.6201 -0.0365
   16MOL   H51911949   4.755   0.934   4.747  1.6585 -1.4156 -3.0003
   16MOL   H52011950   4.891   1.048   4.897  0.2444 -0.4095 -0.6031
   16MOL   H52111951   5.017   1.315   4.858 -0.7375 -0.0980  0.3195
   16MOL   H52211952   4.905   1.321   4.982  0.5938  1.5769 -1.9052
   16MOL   H52311953   5.144   1.133   5.001 -0.3800 -1.1919  0.5856
   16MOL   H52411954   5.103   1.286   5.088 -4.5945  1.3510  0.8376
   16MOL   H52511955   4.927   1.032   5.124 -1.8560  0.1731  1.9848
   16MOL   H52611956   4.916   1.190   5.187 -0.7165 -0.4798 -0.0293
   16MOL   H52711957   5.146   0.987   5.223 -0.9466 -0.9868  1.4918
   16MOL   H52811958   5.160   1.142   5.285  1.6008 -1.3336 -0.8820
   16MOL   H52911959   4.944   1.093   5.424 -0.4401 -1.6406  0.6412
   16MOL   H53011960   4.922   0.947   5.333  0.7247 -1.0769 -2.0399
   16MOL   H53111961   5.153   1.005   5.536 -1.0181  0.1124  1.1670
   16MOL   H53211962   5.136   0.862   5.430  0.0864  0.2437 -1.3898
   16MOL   H53311963   4.899   0.861   5.563 -0.1337  2.1597 -0.5464
   16MOL   C53411964   5.050   0.796   5.681 -0.2194  0.5329 -0.8077
   16MOL   O53511965   5.174   0.787   5.694 -0.3792  0.7431  0.2162
   16MOL   C53611966   4.951   0.740   5.781  0.6999  0.3725 -0.1845
   16MOL   C53711967   5.011   0.728   5.921 -0.3247  0.5431 -0.0758
   16MOL   C53811968   4.906   0.733   6.039  0.1205  0.3979  0.7474
   16MOL   C53911969   4.885   0.874   6.074 -0.2695  0.0960  0.1227
   16MOL   C54011970   4.801   0.893   6.199 -0.0011 -0.5895  0.8531
   16MOL   O54111971   4.713   0.811   6.232  0.1991  0.1540 -0.1983
   16MOL   N54211972   4.815   1.002   6.270 -0.3829  0.0846 -0.6072
   16MOL   C54311973   4.727   1.054   6.377  0.3929  0.5226  0.5996
   16MOL   C54411974   4.797   1.173   6.447 -0.0139 -0.4902  0.3972
   16MOL   C54511975   4.710   1.223   6.561 -0.1214  0.0575 -0.2344
   16MOL   C54611976   4.758   1.336   6.651 -0.0299  0.3279  0.1248
   16MOL   C54711977   4.668   1.354   6.768 -0.3688  0.1792 -0.7868
   16MOL   C54811978   4.688   1.491   6.836  0.2620  0.2494 -0.1199
   16MOL   N54911979   4.668   1.602   6.742  0.2176 -0.0030 -0.0486
   16MOL   H55011980   4.867   0.810   5.782 -1.1158 -1.7294  0.3688
   16MOL   H55111981   4.917   0.639   5.757 -0.8837  0.7601  0.3648
   16MOL   H55211982   5.048   0.625   5.912 -2.2473  0.0081 -2.1033
   16MOL   H55311983   5.094   0.797   5.932  1.0015 -1.3196  2.3425
   16MOL   H55411984   4.938   0.675   6.125  1.0027 -2.0349 -1.1690
   16MOL   H55511985   4.807   0.697   6.009 -1.4025  3.5794  1.6394
   16MOL   H55611986   4.824   0.922   5.998 -1.3387 -0.8564  0.3490
   16MOL   H55711987   4.981   0.923   6.086  1.0040 -2.4490  0.6567
   16MOL   H55811988   4.896   1.060   6.255 -1.5488  1.3881 -1.9759
   16MOL   H55911989   4.630   1.087   6.340  1.0465 -0.2174 -1.8684
   16MOL   H56011990   4.707   0.972   6.446 -1.8787 -0.3436 -1.0304
   16MOL   H56111991   4.901   1.163   6.479 -0.0688  2.2913  1.5309
   16MOL   H56211992   4.793   1.247   6.368  2.2936 -1.6751 -0.9132
   16MOL   H56311993   4.688   1.143   6.632  0.3337 -0.8135 -1.0701
   16MOL   H56411994   4.618   1.250   6.509 -0.8026 -0.9818  0.4195
   16MOL   H56511995   4.856   1.297   6.676 -0.6513 -2.8648 -2.0395
   16MOL   H56611996   4.770   1.430   6.597 -0.1982  1.9590  2.8389
   16MOL   H56711997   4.565   1.341   6.737  0.0245 -0.2477 -1.9547
   16MOL   H56811998   4.683   1.278   6.844 -0.7846  1.4474  0.6008
   16MOL   H56911999   4.789   1.499   6.874 -0.2032  1.4817  0.9007
   16MOL   H57012000   4.635   1.506   6.931  1.2552 -0.5750  0.5857
   16MOL   H57112001   4.681   1.575   6.645 -0.3808 -0.3450 -0.0317
   16MOL   C57212002   4.617   1.724   6.778 -0.4454 -0.3275  0.4008
   16MOL   O57312003   4.590   1.751   6.896 -0.2031 -0.0843 -0.2923
   16MOL   C57412004   4.593   1.844   6.673 -0.9733 -0.4638  0.3111
   16MOL   C57512005   4.619   1.808   6.528  0.9419  0.6680  0.0521
   16MOL   C57612006   4.508   1.711   6.474  0.8186 -0.1080  0.8537
   16MOL   C57712007   4.518   1.663   6.332  0.4579  0.3110 -0.1898
   16MOL   C57812008   4.643   1.579   6.294 -0.3794 -0.6211 -0.2923
   16MOL   O57912009   4.691   1.501   6.377 -0.2981  0.3183 -0.2905
   16MOL   N58012010   4.698   1.600   6.177  0.0783 -0.4306  0.0993
   16MOL   C58112011   4.837   1.566   6.135  0.3937  0.9289 -0.3857
   16MOL   C58212012   4.885   1.688   6.071 -0.3274 -0.5493  0.5741
   16MOL   C58312013   5.032   1.692   6.041 -0.2884  0.0276 -0.0093
   16MOL   C58412014   5.081   1.808   5.958 -0.2319 -0.0745 -0.8409
   16MOL   C58512015   5.232   1.854   5.993 -0.2962 -0.3972 -0.0296
   16MOL   C58612016   5.337   1.796   5.899 -0.6751  0.4913 -0.0280
   16MOL   N58712017   5.337   1.653   5.907  0.7482 -0.4390 -0.0820
   16MOL   H58812018   4.491   1.883   6.676 -1.3841 -1.5290  0.3856
   16MOL   H58912019   4.655   1.930   6.698  0.6608 -1.3644 -0.5454
   16MOL   H59012020   4.615   1.901   6.470  0.0451 -0.3206 -1.5343
   16MOL   H59112021   4.708   1.746   6.520  0.2026 -0.2069 -1.8376
   16MOL   H59212022   4.413   1.765   6.477  0.2074 -1.1446  0.3263
   16MOL   H59312023   4.486   1.629   6.542  2.3604 -2.1527 -1.0450
   16MOL   H59412024   4.517   1.754   6.273  1.9739 -0.2572 -1.1466
   16MOL   H59512025   4.428   1.606   6.308  0.1986  1.8922 -3.1603
   16MOL   H59612026   4.650   1.667   6.119 -1.6057  2.2908  4.3931
   16MOL   H59712027   4.889   1.529   6.223  1.2776  0.1396 -1.2331
   16MOL   H59812028   4.836   1.488   6.059  0.0824 -0.5098  1.0852
   16MOL   H59912029   4.824   1.711   5.984 -1.1898  0.3803  1.4003
   16MOL   H60012030   4.874   1.767   6.145 -0.7637  1.1895 -1.3204
   16MOL   H60112031   5.041   1.593   5.997 -1.6128 -0.6948  1.3070
   16MOL   H60212032   5.081   1.673   6.137 -2.2229  1.6116  1.3403
   16MOL   H60312033   5.067   1.789   5.852 -0.9928  4.0177 -1.5885
   16MOL   H60412034   5.010   1.890   5.973 -0.6570 -0.4617 -0.7317
   16MOL   H60512035   5.229   1.963   5.986  1.7936 -0.0044  3.6950
   16MOL   H60612036   5.257   1.826   6.096  0.2210  0.9398  0.2228
   16MOL   H60712037   5.433   1.832   5.935  0.1321 -0.1374 -1.5310
   16MOL   H60812038   5.319   1.825   5.796  1.9515 -0.4409 -0.7918
   16MOL   H60912039   5.386   1.612   5.985  0.5082  0.5995  0.6294
   16MOL   C61012040   5.271   1.576   5.815 -0.0235  0.2727 -0.0652
   16MOL   O61112041   5.218   1.630   5.718  0.3294 -0.1729  0.4078
   16MOL   C61212042   5.277   1.423   5.823  0.0521 -0.0428  0.6856
   16MOL   C61312043   5.136   1.360   5.824 -0.1995  0.3611 -0.0290
   16MOL   C61412044   5.141   1.209   5.835 -1.1178 -0.7939 -0.2357
   16MOL   C61512045   5.207   1.140   5.961 -0.0397 -0.0116  0.6054
   16MOL   C61612046   5.154   1.182   6.096 -0.5164  0.3156  0.2719
   16MOL   O61712047   5.036   1.175   6.120 -0.7930 -0.2603  0.1688
   16MOL   N61812048   5.242   1.225   6.184 -0.0935  0.8374  0.2432
   16MOL   C61912049   5.209   1.256   6.319 -0.0686  0.4909  0.1897
   16MOL   C62012050   5.107   1.367   6.338 -0.2648 -0.0694  0.0788
   16MOL   C62112051   5.085   1.411   6.485 -0.6731 -0.6467 -0.3201
   16MOL   C62212052   5.212   1.491   6.543  0.2463  0.4059 -0.1550
   16MOL   C62312053   5.218   1.496   6.694  0.2203  0.3548 -0.0047
   16MOL   C62412054   5.251   1.362   6.754 -0.4594  0.3791 -0.1313
   16MOL   N62512055   5.333   1.371   6.873  0.2864  0.0142  0.3390
   16MOL   H62612056   5.325   1.389   5.732  0.0586 -1.8051  1.3348
   16MOL   H62712057   5.340   1.395   5.907  2.3115  3.7765  0.3657
   16MOL   H62812058   5.077   1.406   5.903 -0.2545  0.7266 -0.2811
   16MOL   H62912059   5.078   1.373   5.733  2.3469  1.1352 -1.5979
   16MOL   H63012060   5.167   1.152   5.746  0.0143  2.0095 -1.7400
   16MOL   H63112061   5.035   1.184   5.843 -1.8252  1.7136 -1.3678
   16MOL   H63212062   5.313   1.157   5.947 -0.2687  1.0520  0.0639
   16MOL   H63312063   5.183   1.034   5.951 -0.5797  0.0311  1.3621
   16MOL   H63412064   5.341   1.231   6.166  0.2071  1.4046  2.0066
   16MOL   H63512065   5.178   1.165   6.370 -2.3644  0.5395 -1.0828
   16MOL   H63612066   5.306   1.288   6.358 -0.8228  1.2891  1.4489
   16MOL   H63712067   5.142   1.447   6.273 -1.6814  1.8291  1.5953
   16MOL   H63812068   5.011   1.347   6.289  0.7706  0.5749 -2.2706
   16MOL   H63912069   5.070   1.323   6.548 -0.9199  0.4574  1.1997
   16MOL   H64012070   4.991   1.465   6.496 -0.2698 -0.0136  0.0352
   16MOL   H64112071   5.310   1.457   6.511  0.2683 -0.0094  0.3643
   16MOL   H64212072   5.206   1.593   6.504 -2.0770 -0.9629 -3.6305
   16MOL   H64312073   5.297   1.567   6.720  0.4009  0.3968 -0.6648
   16MOL   H64412074   5.125   1.525   6.743  0.1834 -0.1211  0.2073
   16MOL   H64512075   5.312   1.312   6.679 -0.0158 -1.4764  1.4204
   16MOL   H64612076   5.167   1.297   6.777 -0.6042  0.9083  0.8701
   16MOL   H64712077   5.434   1.371   6.864  0.2332  1.1585 -0.3809
   16MOL   C64812078   5.286   1.417   6.987  0.3026  0.2225 -0.6220
   16MOL   O64912079   5.171   1.462   6.998 -0.7518 -0.0114  0.2045
   16MOL   C65012080   5.381   1.411   7.108  0.5356 -0.3724 -0.3747
   16MOL   C65112081   5.332   1.398   7.252  0.2316 -0.6762 -0.2583
   16MOL   C65212082   5.275   1.526   7.311  0.0308  0.5607  0.0419
   16MOL   C65312083   5.312   1.532   7.459 -0.1283 -0.4213 -0.5077
   16MOL   C65412084   5.308   1.676   7.511 -0.6694 -0.2268  0.2368
   16MOL   O65512085   5.416   1.732   7.531  0.3902  0.0506  0.6424
   16MOL   N65612086   5.197   1.721   7.561  0.1210  0.3853  0.0371
   16MOL   C65712087   5.173   1.852   7.618  1.0302  0.3325  0.2461
   16MOL   C65812088   5.174   1.959   7.506  0.3560 -0.6665  0.5592
   16MOL   C65912089   5.111   2.083   7.556  0.0676 -0.3419 -0.6737
   16MOL   C66012090   5.096   2.196   7.445  0.6972  0.0039  0.1211
   16MOL   C66112091   5.069   2.328   7.514  0.2318  0.1248 -0.6737
   16MOL   C66212092   4.936   2.346   7.580 -0.1047 -1.3691  0.0478
   16MOL   N66312093   4.836   2.352   7.477 -0.0141 -0.2751 -0.4935
   16MOL   H66412094   5.441   1.323   7.086  0.8019 -0.0156 -1.1097
   16MOL   H66512095   5.459   1.486   7.103  0.2110  0.0575  0.8173
   16MOL   H66612096   5.250   1.327   7.246  0.2851 -0.8774  1.2943
   16MOL   H66712097   5.417   1.366   7.312 -0.1072 -0.6194  0.2579
   16MOL   H66812098   5.171   1.531   7.279  0.0247 -1.2072 -0.2848
   16MOL   H66912099   5.318   1.602   7.247  0.0059 -0.2981 -1.0078
   16MOL   H67012100   5.413   1.495   7.478 -0.0705  0.1491  0.3637
   16MOL   H67112101   5.245   1.476   7.524 -1.0012 -0.8203 -1.7308
   16MOL   H67212102   5.127   1.648   7.561  0.0061  0.4965 -0.3624
   16MOL   H67312103   5.074   1.842   7.662  0.3538 -0.4713 -1.4024
   16MOL   H67412104   5.242   1.887   7.694  1.8062 -0.0589 -0.2643
   16MOL   H67512105   5.272   1.992   7.470  0.0409  2.0217  2.0592
   16MOL   H67612106   5.117   1.913   7.425  0.6163 -0.6499  0.3675
   16MOL   H67712107   5.147   2.116   7.653  0.1914 -1.2191 -0.4196
   16MOL   H67812108   5.005   2.056   7.560  0.0510 -0.0557  1.6048
   16MOL   H67912109   5.200   2.198   7.413  1.1373 -3.1625  1.1554
   16MOL   H68012110   5.036   2.183   7.356 -1.5868  1.2773  1.4445
   16MOL   H68112111   5.149   2.359   7.580 -0.0181  1.2525 -0.8821
   16MOL   H68212112   5.072   2.398   7.430 -0.2232  0.0961 -0.7155
   16MOL   H68312113   4.929   2.441   7.631  0.9937 -0.7604 -0.9234
   16MOL   H68412114   4.909   2.268   7.651  0.2678 -1.5648 -0.0213
   16MOL   H68512115   4.858   2.428   7.414  1.1174  0.7593  1.1185
   16MOL   C68612116   4.739   2.257   7.460 -0.4240  0.4920  0.4334
   16MOL   O68712117   4.715   2.165   7.536 -0.2925 -0.7282 -0.8378
   16MOL   C68812118   4.665   2.263   7.330 -0.1148 -0.0285  0.0835
   16MOL   C68912119   4.672   2.130   7.255  0.3297 -0.3687  0.3912
   16MOL   C69012120   4.586   2.145   7.130  0.7546  1.2664 -0.7854
   16MOL   C69112121   4.575   2.017   7.040 -0.0565  0.3367 -1.1984
   16MOL   C69212122   4.481   2.051   6.927 -0.6792  0.3691  0.2061
   16MOL   O69312123   4.522   2.095   6.815  0.2676  0.6552 -0.5571
   16MOL   N69412124   4.357   2.024   6.953  0.1069  0.3344  1.0755
   16MOL   C69512125   4.263   2.005   6.847  0.2310  0.1123 -0.0414
   16MOL   C69612126   4.245   1.854   6.823  0.1883 -0.5044  0.6707
   16MOL   C69712127   4.183   1.824   6.688  0.0789 -0.2032  0.8038
   16MOL   C69812128   4.177   1.679   6.640 -0.3661 -0.1944 -0.3877
   16MOL   C69912129   4.105   1.573   6.717 -0.6225  0.0955 -0.1272
   16MOL   C70012130   4.144   1.428   6.673 -0.4389  0.1052 -0.1438
   16MOL   N70112131   4.076   1.331   6.761  0.0516  0.7422 -0.0108
   16MOL   H70212132   4.560   2.291   7.345 -0.1800  0.7439 -1.6768
   16MOL   H70312133   4.712   2.342   7.272  0.9621  0.9877  2.3142
   16MOL   H70412134   4.778   2.115   7.235 -0.2063  0.9683 -4.0416
   16MOL   H70512135   4.645   2.049   7.323  0.8728 -1.3574 -0.5480
   16MOL   H70612136   4.636   2.223   7.073 -1.1549  2.5682 -0.7469
   16MOL   H70712137   4.488   2.184   7.158  0.6401  1.6419 -1.6865
   16MOL   H70812138   4.543   1.928   7.095  0.4942  1.4396  0.9574
   16MOL   H70912139   4.672   1.982   7.003  0.3896  2.4762 -2.1452
   16MOL   H71012140   4.333   1.993   7.046  0.9592 -1.2622  0.7633
   16MOL   H71112141   4.169   2.051   6.881  0.0201 -0.7301  0.5238
   16MOL   H71212142   4.292   2.055   6.755 -1.0089  2.5981  0.8419
   16MOL   H71312143   4.340   1.802   6.828 -0.5418 -1.7058  2.4013
   16MOL   H71412144   4.188   1.805   6.902  0.8378 -1.3413  0.6294
   16MOL   H71512145   4.231   1.883   6.611 -0.4770 -0.8293 -0.0393
   16MOL   H71612146   4.081   1.863   6.686 -0.2257 -1.0358 -0.9832
   16MOL   H71712147   4.147   1.690   6.536 -0.7334  2.0423 -0.0632
   16MOL   H71812148   4.278   1.639   6.637 -0.5099 -0.5682 -0.2495
   16MOL   H71912149   4.136   1.587   6.821 -0.2093  2.4476 -0.5446
   16MOL   H72012150   3.999   1.598   6.714 -1.3276 -2.8817 -1.6946
   16MOL   H72112151   4.248   1.404   6.695 -0.2919 -0.4842 -1.4411
   16MOL   H72212152   4.115   1.397   6.573  1.0310  1.1355 -0.9175
   16MOL   H72312153   4.134   1.288   6.831 -1.6722 -1.6892 -0.0190
   16MOL   C72412154   3.955   1.274   6.746 -0.2534 -0.2014 -0.7299
   16MOL   O72512155   3.870   1.310   6.664  0.4854 -0.2828 -0.4169
   16MOL   C72612156   3.926   1.168   6.855 -0.1047 -0.0814  0.2523
   16MOL   C72712157   3.801   1.083   6.828  0.3316 -0.1118  0.4211
   16MOL   C72812158   3.683   1.136   6.899 -0.3804 -0.5329 -1.2098
   16MOL   C72912159   3.550   1.058   6.875  0.2986 -0.3117 -0.4306
   16MOL   C73012160   3.436   1.131   6.954 -0.0509 -0.3337 -0.2726
   16MOL   O73112161   3.407   1.246   6.925  0.1698 -0.6235  0.2677
   16MOL   N73212162   3.367   1.068   7.045  0.1516  0.2836 -0.0458
   16MOL   C73312163   3.246   1.118   7.113 -0.2936  0.5992 -0.0635
   16MOL   C73412164   3.137   1.008   7.122 -0.0665  0.5437  0.4603
   16MOL   C73512165   3.100   0.943   6.991 -0.6814  0.0262 -0.1460
   16MOL   C73612166   2.955   0.888   6.986 -0.2134  0.1721  0.1589
   16MOL   C73712167   2.946   0.748   7.041  0.6266  0.7337 -0.1839
   16MOL   C73812168   2.800   0.701   7.062  1.0956  0.1813  0.1194
   16MOL   N73912169   2.800   0.581   7.139  0.4314 -0.0299  0.2084
   16MOL   H74012170   4.012   1.101   6.861 -2.1435 -2.6582  1.6360
   16MOL   H74112171   3.909   1.219   6.950  1.1081 -1.4936  1.2385
   16MOL   H74212172   3.777   1.057   6.725 -0.8537  0.0203  0.6661
   16MOL   H74312173   3.809   0.980   6.864 -1.1213 -1.6298 -3.4373
   16MOL   H74412174   3.675   1.243   6.879  0.4927  0.0813  1.4377
   16MOL   H74512175   3.693   1.129   7.008 -2.7365 -1.3844 -1.0202
   16MOL   H74612176   3.554   0.953   6.904 -1.4899 -0.2568  0.0732
   16MOL   H74712177   3.536   1.060   6.767 -0.6808  3.0057 -0.3017
   16MOL   H74812178   3.384   0.969   7.051 -1.1047  0.0593 -0.0551
   16MOL   H74912179   3.278   1.154   7.211  1.4113  0.2126 -0.4571
   16MOL   H75012180   3.206   1.202   7.056  0.7089 -0.5990 -2.5680
   16MOL   H75112181   3.178   0.934   7.191 -1.2556  0.6795  1.3366
   16MOL   H75212182   3.049   1.053   7.168  0.4803  2.1146  0.0038
   16MOL   H75312183   3.172   0.867   6.960 -0.4385 -0.7866  2.2982
   16MOL   H75412184   3.111   1.021   6.916 -1.2768 -0.2594 -0.5307
   16MOL   H75512185   2.892   0.949   7.050 -0.0291  1.1023 -0.5452
   16MOL   H75612186   2.905   0.890   6.889  1.4937  1.4947 -0.7234
   16MOL   H75712187   2.992   0.673   6.977 -1.6999 -0.6966 -0.2475
   16MOL   H75812188   3.007   0.742   7.131 -0.9104 -0.3377  0.8048
   16MOL   H75912189   2.752   0.676   6.968  2.8891  1.0024 -1.0352
   16MOL   H76012190   2.735   0.767   7.119  2.7964  1.3549  0.7380
   16MOL   H76112191   2.821   0.603   7.235 -0.2616 -0.4105  0.4536
   16MOL   H76212192   2.885   0.537   7.110  0.8195  1.1318 -0.4539
   17MOL     C112193   0.886   1.466   6.592  0.0131 -0.1695  0.5507
   17MOL     O212194   0.831   1.372   6.650 -0.2015 -0.1089 -0.2124
   17MOL     C312195   1.014   1.526   6.662  0.3050  0.0943 -0.4925
   17MOL     C412196   1.074   1.643   6.580  0.3226  0.1032 -0.5204
   17MOL     C512197   1.013   1.782   6.594 -0.0018 -0.1844  0.2328
   17MOL     C612198   1.038   1.841   6.733 -0.3126 -0.8339 -1.2972
   17MOL     C712199   1.147   1.946   6.757 -0.3505  0.7477 -0.2559
   17MOL     O812200   1.228   1.967   6.670  0.7624 -0.0340 -0.0555
   17MOL     N912201   1.138   2.003   6.873 -0.1062 -0.2979 -0.3414
   17MOL    C1012202   1.236   2.084   6.934  0.3717  0.3446  0.4528
   17MOL    C1112203   1.357   2.006   6.981 -0.3204  0.4185  0.4743
   17MOL    C1212204   1.454   2.076   7.060  0.1630 -0.7216  0.1651
   17MOL    C1312205   1.545   1.980   7.135 -0.2606  0.1224 -0.6366
   17MOL    C1412206   1.646   2.059   7.215 -0.5628  0.0195  0.8663
   17MOL    C1512207   1.746   1.973   7.300 -0.0274  0.6319 -0.0285
   17MOL    N1612208   1.822   1.877   7.216  0.0718  0.4000  0.3111
   17MOL    H1712209   0.995   1.560   6.764  2.6882 -0.3136  0.1017
   17MOL    H1812210   1.087   1.445   6.670  0.9907  0.6330 -1.3098
   17MOL    H1912211   1.177   1.645   6.616  0.8559 -3.0288 -1.7261
   17MOL    H2012212   1.074   1.617   6.474  1.4985 -1.6710 -0.1126
   17MOL    H2112213   0.906   1.780   6.575 -0.2214  0.6957  1.3419
   17MOL    H2212214   1.060   1.847   6.520  0.2099 -1.6937 -0.9862
   17MOL    H2312215   1.062   1.769   6.811  1.0843 -0.7451 -1.6319
   17MOL    H2412216   0.938   1.881   6.751 -0.1060 -0.7026 -0.4201
   17MOL    H2512217   1.059   1.976   6.930 -0.9164 -0.2438 -1.4114
   17MOL    H2612218   1.269   2.149   6.854 -0.8313  1.4366  0.8159
   17MOL    H2712219   1.185   2.145   7.009 -0.5316 -3.4006  3.0767
   17MOL    H2812220   1.331   1.915   7.035  2.5102 -0.7043  0.0404
   17MOL    H2912221   1.414   1.976   6.893  0.8649  0.0321  1.3590
   17MOL    H3012222   1.407   2.134   7.139 -0.9437 -0.2558 -0.8213
   17MOL    H3112223   1.523   2.137   7.001 -0.2771 -0.8529 -0.4870
   17MOL    H3212224   1.496   1.906   7.198 -0.4599  0.8748  0.0939
   17MOL    H3312225   1.596   1.918   7.060 -0.6925 -2.4761  1.1558
   17MOL    H3412226   1.706   2.117   7.145  1.8432 -2.9955  0.3275
   17MOL    H3512227   1.590   2.131   7.275 -0.8628 -1.3115  2.1856
   17MOL    H3612228   1.689   1.921   7.377  2.0170 -2.9637 -0.8612
   17MOL    H3712229   1.808   2.040   7.361 -0.7259  0.1064  1.2807
   17MOL    H3812230   1.813   1.876   7.116  1.0792 -0.8932  0.2215
   17MOL    H3912231   0.862   1.514   6.497  3.1512 -1.8078 -1.1693
   17MOL    C4012232   1.933   1.816   7.258  0.0939 -0.1595  0.4743
   17MOL    O4112233   1.973   1.830   7.372  0.3762  0.8081  0.0231
   17MOL    C4212234   2.007   1.741   7.149 -0.3632  0.1855 -0.5857
   17MOL    C4312235   2.160   1.722   7.168  0.1157  0.5458  1.2834
   17MOL    C4412236   2.230   1.646   7.049  0.7688  0.6358 -0.2170
   17MOL    C4512237   2.384   1.651   7.047 -0.1671 -0.6840  1.0813
   17MOL    C4612238   2.455   1.580   7.162  0.5445 -0.5675 -0.6747
   17MOL    O4712239   2.405   1.555   7.267  0.5297 -0.4749  0.0189
   17MOL    N4812240   2.580   1.545   7.140  0.8098 -0.4200  0.1756
   17MOL    C4912241   2.672   1.501   7.245 -0.5150  0.1116 -0.5438
   17MOL    C5012242   2.813   1.490   7.183 -0.5587  0.2080  0.2411
   17MOL    C5112243   2.823   1.372   7.081  0.5299 -0.5782 -0.4576
   17MOL    C5212244   2.947   1.382   6.985  0.3905  0.1966  0.0472
   17MOL    C5312245   2.938   1.269   6.878  0.7706 -0.2576 -0.7938
   17MOL    C5412246   3.068   1.265   6.792 -1.0570 -0.3694 -0.2015
   17MOL    N5512247   3.045   1.175   6.678 -0.2540 -0.0280 -0.4400
   17MOL    H5612248   1.968   1.642   7.125  0.8560 -0.6141  0.6651
   17MOL    H5712249   1.994   1.794   7.054  0.3022  2.4580  0.5549
   17MOL    H5812250   2.213   1.816   7.183  1.7009  0.4209 -2.8838
   17MOL    H5912251   2.173   1.657   7.255  0.4676 -0.3793  0.5399
   17MOL    H6012252   2.194   1.692   6.957 -0.1900  0.5044  0.0822
   17MOL    H6112253   2.192   1.546   7.069  0.8514  0.8914  1.2749
   17MOL    H6212254   2.404   1.758   7.042  0.7295 -0.8963  0.0695
   17MOL    H6312255   2.419   1.594   6.961 -1.4705  1.7384 -1.1164
   17MOL    H6412256   2.620   1.576   7.053  4.5629  0.6541  2.1696
   17MOL    H6512257   2.672   1.560   7.336  2.2529  0.9831 -1.0467
   17MOL    H6612258   2.639   1.401   7.271  0.7883 -0.5368 -1.3243
   17MOL    H6712259   2.822   1.581   7.124 -2.2462 -0.1312 -0.5436
   17MOL    H6812260   2.885   1.479   7.264 -0.3341  0.6606  0.1001
   17MOL    H6912261   2.731   1.368   7.023  0.4113 -2.5333 -0.1976
   17MOL    H7012262   2.822   1.275   7.130 -0.3937 -1.0647 -1.3975
   17MOL    H7112263   2.944   1.485   6.948 -1.1497  0.6513  1.3586
   17MOL    H7212264   3.038   1.359   7.041  0.6322 -1.5062 -1.0249
   17MOL    H7312265   2.917   1.171   6.921 -4.3005  0.6124 -1.0481
   17MOL    H7412266   2.850   1.298   6.821  0.7689  2.8556  0.7134
   17MOL    H7512267   3.163   1.241   6.840 -1.5055  0.5150  1.1676
   17MOL    H7612268   3.071   1.368   6.756 -0.1030 -0.4300 -0.3022
   17MOL    H7712269   2.963   1.116   6.674 -1.3237  1.5351 -1.6548
   17MOL    C7812270   3.097   1.180   6.556 -0.7922 -0.2872 -0.3584
   17MOL    O7912271   3.050   1.113   6.472  0.6163  0.0137  0.1678
   17MOL    C8012272   3.212   1.275   6.532 -0.0983 -0.0631 -0.2356
   17MOL    C8112273   3.254   1.297   6.384  0.1046  0.4706  0.5614
   17MOL    C8212274   3.151   1.379   6.305 -1.2915  0.3923  0.1670
   17MOL    C8312275   3.155   1.341   6.157 -0.1034  1.0629  0.2566
   17MOL    C8412276   3.072   1.435   6.064  0.1965 -0.2294 -0.5303
   17MOL    O8512277   3.056   1.551   6.107  0.1738  0.4794 -0.0989
   17MOL    N8612278   3.010   1.386   5.955 -0.6281  0.6468  0.0407
   17MOL    C8712279   2.933   1.485   5.872 -0.3572 -0.4935  0.2559
   17MOL    C8812280   2.919   1.444   5.720  0.2139 -0.0252  0.1385
   17MOL    C8912281   2.868   1.562   5.647 -0.0672  0.0429  0.1045
   17MOL    C9012282   2.830   1.529   5.501  0.0613 -0.2532 -0.4975
   17MOL    C9112283   2.955   1.489   5.416  0.7056 -0.3165  0.2685
   17MOL    C9212284   2.939   1.508   5.258 -0.1945 -0.4982  0.0133
   17MOL    N9312285   2.841   1.424   5.200 -0.0997 -0.0684  0.0005
   17MOL    H9412286   3.186   1.373   6.571  1.2042  0.2348 -0.0925
   17MOL    H9512287   3.298   1.233   6.585 -0.1359 -1.3920 -1.1907
   17MOL    H9612288   3.350   1.347   6.389  1.3587 -1.6419 -1.4736
   17MOL    H9712289   3.267   1.199   6.338  1.5158  0.9532 -0.0923
   17MOL    H9812290   3.177   1.485   6.310 -0.4976  0.1323  2.0460
   17MOL    H9912291   3.050   1.378   6.344 -1.3487  1.0723  0.0379
   17MOL   H10012292   3.100   1.248   6.148 -1.1665  1.8471 -1.3864
   17MOL   H10112293   3.261   1.338   6.129 -0.1808  2.1824 -0.1739
   17MOL   H10212294   3.011   1.286   5.942  1.8242  0.8525 -1.7160
   17MOL   H10312295   2.829   1.491   5.904 -0.2451  0.3048  0.4654
   17MOL   H10412296   2.991   1.577   5.872 -1.3215  0.1307 -1.3930
   17MOL   H10512297   3.016   1.409   5.685  0.3232 -0.9266  1.3103
   17MOL   H10612298   2.837   1.373   5.710  0.8555 -0.7526 -0.0010
   17MOL   H10712299   2.943   1.641   5.646 -0.1181  0.1620  2.6589
   17MOL   H10812300   2.781   1.599   5.702 -1.5187 -0.4411 -1.8048
   17MOL   H10912301   2.751   1.454   5.491 -0.1622 -0.4319  2.2247
   17MOL   H11012302   2.772   1.612   5.458 -0.5632 -0.8923 -0.9031
   17MOL   H11112303   3.035   1.557   5.444 -0.1175  1.6893 -2.1369
   17MOL   H11212304   2.972   1.382   5.429  0.9842 -0.3677 -0.4794
   17MOL   H11312305   3.033   1.469   5.219 -0.6849 -2.1175  0.3799
   17MOL   H11412306   2.934   1.615   5.243  0.8101 -0.3584  0.6223
   17MOL   H11512307   2.836   1.323   5.204 -0.8256 -0.0248  0.2849
   17MOL   C11612308   2.741   1.465   5.126  0.4686 -0.0029  0.0403
   17MOL   O11712309   2.732   1.580   5.085  0.0381  0.5278  0.2056
   17MOL   C11812310   2.621   1.367   5.093 -0.2688  0.2466 -0.6643
   17MOL   C11912311   2.479   1.444   5.092 -0.4520 -0.3051 -0.1836
   17MOL   C12012312   2.360   1.345   5.105  0.3433  0.6643 -0.1642
   17MOL   C12112313   2.220   1.400   5.078 -0.0364  0.1175 -1.0471
   17MOL   C12212314   2.180   1.494   5.194 -0.3063 -0.4410 -0.5396
   17MOL   O12312315   2.202   1.466   5.311 -0.4341 -0.7543 -0.4474
   17MOL   N12412316   2.137   1.617   5.164  0.0521  0.3415 -0.1876
   17MOL   C12512317   2.099   1.729   5.253  0.0985  0.1916 -0.5581
   17MOL   C12612318   2.133   1.870   5.201  0.0597  0.2820 -0.0449
   17MOL   C12712319   2.052   1.920   5.083 -0.1059  0.0082  0.0425
   17MOL   C12812320   2.122   2.042   5.018 -0.2831 -0.8327 -0.6588
   17MOL   C12912321   2.048   2.104   4.902 -0.2123 -0.3988 -0.2715
   17MOL   C13012322   1.928   2.193   4.951 -0.0432  0.2046  0.7113
   17MOL   N13112323   1.873   2.284   4.849 -0.2298 -0.2009 -0.1030
   17MOL   H13212324   2.633   1.318   4.996 -1.9473 -0.7049 -0.4189
   17MOL   H13312325   2.601   1.293   5.170  1.1439  0.7464  0.2090
   17MOL   H13412326   2.474   1.531   5.157 -1.3085 -0.6424  0.2078
   17MOL   H13512327   2.467   1.498   4.998 -0.5312 -1.7178 -1.0025
   17MOL   H13612328   2.366   1.301   5.204 -0.9786 -1.3893 -0.9601
   17MOL   H13712329   2.387   1.267   5.033  0.0158  0.2513  0.1582
   17MOL   H13812330   2.146   1.321   5.068 -1.5578  0.8900  3.0458
   17MOL   H13912331   2.223   1.461   4.988 -0.2734  1.0165 -0.4500
   17MOL   H14012332   2.130   1.632   5.065  1.5348 -1.5494 -0.5774
   17MOL   H14112333   1.991   1.736   5.267  0.0062 -1.1222 -0.5775
   17MOL   H14212334   2.139   1.723   5.354  0.8054 -2.8850 -0.9857
   17MOL   H14312335   2.122   1.940   5.285  0.5977  1.0668 -0.6235
   17MOL   H14412336   2.240   1.870   5.180 -0.0252  1.3451 -0.5103
   17MOL   H14512337   1.953   1.950   5.118  0.3658  2.4561 -0.5932
   17MOL   H14612338   2.028   1.851   5.003  2.6260 -0.9672  0.0174
   17MOL   H14712339   2.154   2.123   5.083 -2.2547 -0.9210  0.4605
   17MOL   H14812340   2.212   2.006   4.967  0.8328 -3.8760  3.1999
   17MOL   H14912341   2.118   2.163   4.844 -0.3425 -0.2070 -0.2348
   17MOL   H15012342   2.021   2.033   4.822  0.5560 -0.9462 -0.0521
   17MOL   H15112343   1.953   2.251   5.040  0.3402  2.6760 -0.9626
   17MOL   H15212344   1.843   2.132   4.982 -1.6167  1.0207 -1.8163
   17MOL   H15312345   1.924   2.294   4.763  0.0790  2.5557  0.3683
   17MOL   C15412346   1.774   2.372   4.872 -0.1266  0.0495  0.8018
   17MOL   O15512347   1.707   2.377   4.974  0.2851 -0.1545 -0.2899
   17MOL   C15612348   1.759   2.477   4.762 -0.4479  0.0305  0.3879
   17MOL   C15712349   1.624   2.547   4.756  0.2356  0.0294  0.2301
   17MOL   C15812350   1.621   2.642   4.632  0.1107  0.2498  0.0021
   17MOL   C15912351   1.479   2.695   4.610  1.2258 -0.3088 -0.3312
   17MOL   C16012352   1.419   2.784   4.721 -0.3361 -1.0711 -0.6836
   17MOL   O16112353   1.488   2.866   4.774  0.4390 -0.1418 -0.2537
   17MOL   N16212354   1.293   2.758   4.754 -0.2120  0.4861  0.4658
   17MOL   C16312355   1.209   2.815   4.858  0.3354 -0.2640 -0.0207
   17MOL   C16412356   1.104   2.719   4.911 -0.1730  0.2875 -0.7081
   17MOL   C16512357   1.005   2.789   5.006  0.3658  0.7137 -0.3174
   17MOL   C16612358   0.886   2.703   5.034  0.5429 -0.5082 -1.0310
   17MOL   C16712359   0.776   2.692   4.922 -0.1781  0.1792  0.2635
   17MOL   C16812360   0.739   2.831   4.868  0.9613  0.0887  0.1238
   17MOL   N16912361   0.643   2.820   4.759 -0.1893  0.2743  0.2843
   17MOL   H17012362   1.841   2.547   4.776 -0.5585  0.5791 -1.5776
   17MOL   H17112363   1.777   2.424   4.668  2.1870  0.5558  0.5645
   17MOL   H17212364   1.537   2.482   4.745 -0.7807  1.3157  0.5788
   17MOL   H17312365   1.609   2.598   4.851  1.6740 -0.0119  0.4894
   17MOL   H17412366   1.676   2.606   4.546 -1.5259 -0.2226 -0.8543
   17MOL   H17512367   1.677   2.730   4.666  0.3566 -0.0870  0.4740
   17MOL   H17612368   1.415   2.610   4.588  0.2006  0.6340 -1.0065
   17MOL   H17712369   1.480   2.747   4.514  1.8870 -0.6702 -0.5275
   17MOL   H17812370   1.248   2.688   4.696  1.2383  0.4099 -0.6106
   17MOL   H17912371   1.266   2.862   4.937 -0.8142 -0.3288  0.8687
   17MOL   H18012372   1.152   2.888   4.800  0.8530  0.2145  0.0745
   17MOL   H18112373   1.041   2.687   4.829 -0.2688  0.5175 -0.7245
   17MOL   H18212374   1.143   2.626   4.953  0.0414  0.9895  0.6863
   17MOL   H18312375   0.966   2.888   4.984  1.7572  1.0112 -1.4452
   17MOL   H18412376   1.057   2.795   5.102 -0.4202 -1.9561  0.3083
   17MOL   H18512377   0.915   2.605   5.069  0.2251 -0.9546 -1.9899
   17MOL   H18612378   0.834   2.734   5.124  0.7592 -0.6882 -0.8448
   17MOL   H18712379   0.814   2.631   4.841 -3.3581  2.6680 -3.2975
   17MOL   H18812380   0.694   2.639   4.971 -1.5567  0.0496 -2.1199
   17MOL   H18912381   0.830   2.865   4.818  0.2968 -0.0499 -1.2085
   17MOL   H19012382   0.712   2.898   4.949  1.0576 -0.1897  0.3867
   17MOL   H19112383   0.563   2.758   4.761  0.2651 -0.3923 -1.5347
   17MOL   C19212384   0.633   2.899   4.656 -0.2651  0.5660  0.2874
   17MOL   O19312385   0.720   2.977   4.618  0.5795 -0.5133 -0.4621
   17MOL   C19412386   0.518   2.875   4.564 -0.4699  0.6710 -0.3604
   17MOL   C19512387   0.552   2.771   4.458 -0.2879  0.3375 -0.4278
   17MOL   C19612388   0.553   2.617   4.496  0.8128 -0.8956 -0.0549
   17MOL   C19712389   0.550   2.508   4.379  0.3994  0.2586 -0.1669
   17MOL   C19812390   0.410   2.488   4.316 -1.1651 -0.6423  0.0031
   17MOL   O19912391   0.305   2.491   4.386  0.4062  0.2240 -0.0249
   17MOL   N20012392   0.425   2.459   4.187  0.0829  0.2194  0.5686
   17MOL   C20112393   0.311   2.433   4.098 -0.1757 -0.3304  0.1684
   17MOL   C20212394   0.345   2.373   3.959 -0.7038  0.0402 -0.1124
   17MOL   C20312395   0.221   2.318   3.876 -0.7988  0.5099  0.1834
   17MOL   C20412396   0.255   2.226   3.755 -0.1385  0.1421  0.1237
   17MOL   C20512397   0.361   2.273   3.651 -0.3995  0.1729 -0.4867
   17MOL   C20612398   0.370   2.187   3.524  0.3088  0.2218 -0.0370
   17MOL   N20712399   0.469   2.242   3.433 -0.6774 -0.0282 -0.7929
   17MOL   H20812400   0.438   2.836   4.627  0.1287 -2.2175 -1.2924
   17MOL   H20912401   0.498   2.969   4.513  2.7526  0.8580 -1.3689
   17MOL   H21012402   0.492   2.774   4.367 -0.4053  0.6650 -0.3412
   17MOL   H21112403   0.650   2.798   4.417  1.0750 -2.1173  1.1066
   17MOL   H21212404   0.471   2.600   4.567 -0.8532  0.0177 -1.7213
   17MOL   H21312405   0.642   2.601   4.557  1.2726  2.6116  0.2878
   17MOL   H21412406   0.575   2.410   4.419 -0.6512  0.2681  0.5389
   17MOL   H21512407   0.620   2.541   4.302  0.1042 -1.3425 -1.1476
   17MOL   H21612408   0.515   2.450   4.143 -1.7011 -0.4945 -3.2365
   17MOL   H21712409   0.246   2.362   4.150  0.3727  0.9807  2.7004
   17MOL   H21812410   0.253   2.524   4.083  1.5222  1.1883  2.4608
   17MOL   H21912411   0.399   2.447   3.900 -0.2407  0.3790  0.7210
   17MOL   H22012412   0.402   2.283   3.984 -0.9729  0.1101  0.7729
   17MOL   H22112413   0.151   2.397   3.846 -0.0543  0.3410 -2.0748
   17MOL   H22212414   0.164   2.252   3.941 -1.9147 -0.7679 -2.0486
   17MOL   H22312415   0.288   2.130   3.796 -1.5294 -0.4277 -0.0534
   17MOL   H22412416   0.160   2.201   3.707  1.0093  0.6270 -2.4499
   17MOL   H22512417   0.330   2.372   3.617  0.3555  0.5003 -0.2360
   17MOL   H22612418   0.458   2.293   3.698  0.7626 -3.0232 -1.4108
   17MOL   H22712419   0.277   2.173   3.468  0.4858  1.9638 -0.8026
   17MOL   H22812420   0.391   2.085   3.557 -2.4431 -0.3443  0.0881
   17MOL   H22912421   0.511   2.331   3.459 -2.6881  0.3164  1.4448
   17MOL   C23012422   0.489   2.174   3.320  1.4442 -0.2457 -0.4510
   17MOL   O23112423   0.425   2.077   3.291  0.8410  0.0373 -0.2573
   17MOL   C23212424   0.588   2.228   3.225  0.7770 -0.4679  0.3423
   17MOL   C23312425   0.647   2.132   3.119 -0.1923 -0.5241  0.3385
   17MOL   C23412426   0.546   2.118   2.999 -0.4480  0.9513 -0.3528
   17MOL   C23512427   0.602   2.034   2.873  0.6864 -0.0556 -0.0550
   17MOL   C23612428   0.724   2.107   2.813  0.2366  0.5062 -0.0119
   17MOL   O23712429   0.708   2.203   2.745 -0.0495 -0.2770 -0.0429
   17MOL   N23812430   0.842   2.040   2.817 -0.5174  0.6340  0.2583
   17MOL   C23912431   0.959   2.089   2.753 -0.1292 -0.0264 -0.5931
   17MOL   C24012432   1.004   2.224   2.814  0.1542  0.1005  0.4636
   17MOL   C24112433   1.122   2.293   2.727  0.0639 -0.2741 -0.4797
   17MOL   C24212434   1.133   2.446   2.750  0.1130 -0.0761 -0.5296
   17MOL   C24312435   1.023   2.513   2.672 -0.3165  0.7396 -0.6207
   17MOL   C24412436   1.050   2.664   2.661 -0.2883  0.6349 -0.3120
   17MOL   N24512437   0.948   2.719   2.572  0.2933  1.1309 -0.1078
   17MOL   H24612438   0.559   2.324   3.183  1.3661 -0.6857 -0.5849
   17MOL   H24712439   0.669   2.270   3.285  0.2358  0.1582  0.6353
   17MOL   H24812440   0.748   2.162   3.092 -1.7307  2.1411 -2.9683
   17MOL   H24912441   0.655   2.033   3.162 -0.7001 -1.1021 -0.8555
   17MOL   H25012442   0.515   2.216   2.963 -1.2082  0.6714 -0.4708
   17MOL   H25112443   0.452   2.071   3.029 -0.3092 -0.9044 -2.6615
   17MOL   H25212444   0.528   2.043   2.793  0.2282 -0.6460  0.2881
   17MOL   H25312445   0.621   1.928   2.894  0.9702 -0.0541 -0.3127
   17MOL   H25412446   0.855   1.955   2.870  0.1256  0.5245 -0.0703
   17MOL   H25512447   1.040   2.016   2.754  0.0357  0.1739  0.9473
   17MOL   H25612448   0.942   2.089   2.645 -0.5840 -0.5534 -0.5183
   17MOL   H25712449   0.923   2.293   2.837  0.8758  0.6008  1.5168
   17MOL   H25812450   1.046   2.207   2.913  0.3084 -1.1382  0.1966
   17MOL   H25912451   1.097   2.277   2.622 -2.6893 -0.3943  0.1482
   17MOL   H26012452   1.221   2.251   2.745  0.7186  0.5453 -2.1165
   17MOL   H26112453   1.129   2.486   2.852  1.5749  2.1002 -1.2919
   17MOL   H26212454   1.233   2.474   2.717  1.2038 -0.8772  1.9429
   17MOL   H26312455   1.014   2.477   2.570  2.6155 -0.0589 -0.6240
   17MOL   H26412456   0.925   2.501   2.719  0.3049  0.6557  0.6583
   17MOL   H26512457   1.149   2.688   2.622 -0.7763  1.6356 -0.9514
   17MOL   H26612458   1.053   2.704   2.763 -0.0589  0.8171 -0.3898
   17MOL   H26712459   0.894   2.648   2.526 -0.8731  1.3568  0.8908
   17MOL   C26812460   0.893   2.840   2.588  0.5301  0.9723  0.6023
   17MOL   O26912461   0.949   2.918   2.664  0.2033 -0.0401  0.0133
   17MOL   C27012462   0.755   2.879   2.523 -0.5426  0.3498  0.0247
   17MOL   C27112463   0.682   2.999   2.592 -0.0644  0.3214 -0.4123
   17MOL   C27212464   0.556   3.041   2.517 -0.2089 -1.3156  0.3269
   17MOL   C27312465   0.560   3.089   2.366 -0.8261 -0.0444  0.8542
   17MOL   C27412466   0.634   3.217   2.351 -0.4881  0.1760  0.3545
   17MOL   O27512467   0.631   3.308   2.431  0.0357 -0.0115 -0.4432
   17MOL   N27612468   0.711   3.216   2.234 -0.2560 -0.4475  0.5954
   17MOL   C27712469   0.798   3.326   2.195 -0.5178 -0.3768  0.2416
   17MOL   C27812470   0.942   3.277   2.213 -0.2474  0.3854 -0.0469
   17MOL   C27912471   1.049   3.381   2.192 -0.4686 -0.2972  0.2870
   17MOL   C28012472   1.187   3.309   2.195 -1.1788 -0.4010 -0.0698
   17MOL   C28112473   1.299   3.405   2.156  0.5476 -0.2635 -0.1117
   17MOL   C28212474   1.300   3.460   2.011  0.4441 -0.1540  0.8236
   17MOL   N28312475   1.432   3.508   1.980  0.1029 -0.2963 -0.0138
   17MOL   H28412476   0.759   2.896   2.415 -0.1595 -0.6204 -0.1210
   17MOL   H28512477   0.702   2.783   2.522 -0.7163  0.4532 -0.5383
   17MOL   H28612478   0.653   2.976   2.694 -0.2161 -1.8322 -0.9129
   17MOL   H28712479   0.747   3.085   2.608  1.3355 -1.0165  1.3276
   17MOL   H28812480   0.513   3.124   2.573 -0.5909 -1.2036 -0.1357
   17MOL   H28912481   0.478   2.968   2.538  0.3472 -1.9891  0.0751
   17MOL   H29012482   0.460   3.107   2.326  0.0651 -1.2841 -2.0659
   17MOL   H29112483   0.607   3.004   2.316  1.2374  1.8653 -0.5551
   17MOL   H29212484   0.704   3.139   2.169  1.2982  0.4790 -0.6902
   17MOL   H29312485   0.785   3.352   2.090 -1.9665  0.4013  0.5885
   17MOL   H29412486   0.772   3.419   2.246 -4.6822 -2.5875  2.4943
   17MOL   H29512487   0.941   3.234   2.314  2.0345  0.7167  0.1338
   17MOL   H29612488   0.958   3.199   2.138  0.0482 -0.6486  1.0691
   17MOL   H29712489   1.056   3.458   2.270  0.2722  1.4923 -1.5094
   17MOL   H29812490   1.030   3.425   2.094 -1.8825  1.4114  1.2897
   17MOL   H29912491   1.205   3.251   2.286  1.5628  0.5227  0.0225
   17MOL   H30012492   1.191   3.229   2.121 -0.8141  0.5712 -1.0905
   17MOL   H30112493   1.313   3.480   2.234  1.1987 -0.7305  0.2358
   17MOL   H30212494   1.381   3.337   2.182 -0.0590 -0.8813  0.1991
   17MOL   H30312495   1.226   3.539   1.998  0.0464 -0.6595  0.0159
   17MOL   H30412496   1.289   3.379   1.940 -0.1607  0.6187  0.0181
   17MOL   H30512497   1.487   3.453   1.915 -1.8638 -2.5792  0.1861
   17MOL   C30612498   1.466   3.636   2.000  0.1130 -0.3638  0.6098
   17MOL   O30712499   1.412   3.708   2.082 -0.2731  0.6223  0.0554
   17MOL   C30812500   1.581   3.684   1.916 -0.1630  0.3370 -0.6880
   17MOL   C30912501   1.581   3.837   1.907  0.2376 -0.7963 -0.0014
   17MOL   C31012502   1.697   3.896   1.837  0.2045 -0.3463 -0.3871
   17MOL   C31112503   1.680   4.049   1.804  0.5472 -0.6181  0.3071
   17MOL   C31212504   1.793   4.110   1.725 -0.2019 -0.1046 -0.1413
   17MOL   O31312505   1.888   4.039   1.691  0.0886 -1.1989  0.1755
   17MOL   N31412506   1.781   4.242   1.692 -0.3920 -0.3502 -0.5561
   17MOL   C31512507   1.867   4.306   1.586  0.0533  0.5722 -0.6939
   17MOL   C31612508   1.856   4.459   1.591  0.4759 -0.5913  0.0738
   17MOL   C31712509   1.720   4.519   1.616  0.7966 -0.5178 -0.1589
   17MOL   C31812510   1.702   4.659   1.554  0.0092  0.1125  0.5283
   17MOL   C31912511   1.705   4.671   1.403 -0.0754 -0.0921  0.2417
   17MOL   C32012512   1.683   4.810   1.344 -0.6524 -0.6730  0.2829
   17MOL   N32112513   1.698   4.811   1.199 -0.5488 -0.6608 -0.0280
   17MOL   H32212514   1.675   3.651   1.959 -0.9972 -0.3757  0.6442
   17MOL   H32312515   1.591   3.639   1.818 -0.2839  0.3032 -0.6853
   17MOL   H32412516   1.488   3.878   1.868 -1.4353 -0.4932  4.0556
   17MOL   H32512517   1.585   3.874   2.009  0.9813 -2.1532  0.4758
   17MOL   H32612518   1.689   3.845   1.741 -2.6077 -2.0523  0.7087
   17MOL   H32712519   1.787   3.867   1.891 -0.0879 -0.7938 -0.1354
   17MOL   H32812520   1.663   4.101   1.898  0.2469  0.4133 -0.3120
   17MOL   H32912521   1.585   4.052   1.751 -0.2915  2.2150  1.8569
   17MOL   H33012522   1.688   4.280   1.701  0.0171  0.8671 -1.2956
   17MOL   H33112523   1.974   4.287   1.595 -0.2391 -1.0603 -0.3183
   17MOL   H33212524   1.832   4.272   1.489 -0.0064 -0.1671 -0.4231
   17MOL   H33312525   1.918   4.488   1.675 -0.8324  0.2061  0.7777
   17MOL   H33412526   1.902   4.503   1.503 -1.2334 -1.9395 -1.5446
   17MOL   H33512527   1.680   4.498   1.715  3.1837 -0.2807  0.8714
   17MOL   H33612528   1.655   4.452   1.559  2.1444 -1.2323 -0.8724
   17MOL   H33712529   1.608   4.710   1.576  0.5108  1.3920 -0.2249
   17MOL   H33812530   1.783   4.723   1.589  0.5552 -0.2973  0.0308
   17MOL   H33912531   1.783   4.619   1.348 -0.2012 -0.2253  0.1898
   17MOL   H34012532   1.615   4.615   1.376  0.9059 -2.4211  1.6139
   17MOL   H34112533   1.748   4.877   1.402  2.5461 -0.3396 -3.4990
   17MOL   H34212534   1.580   4.829   1.373 -0.7496  0.4126 -0.7321
   17MOL   H34312535   1.789   4.829   1.160 -0.5492 -1.1888 -0.2751
   17MOL   C34412536   1.602   4.783   1.115  0.2971 -0.9318  0.9860
   17MOL   O34512537   1.497   4.735   1.148  0.1457  0.0219 -0.8184
   17MOL   C34612538   1.621   4.810   0.965  0.8747  0.5397  0.7306
   17MOL   C34712539   1.529   4.723   0.874  0.2827 -0.0999 -0.6665
   17MOL   C34812540   1.580   4.584   0.844 -0.4364  0.2777 -0.5551
   17MOL   C34912541   1.587   4.480   0.955  0.0657  0.8622  0.0556
   17MOL   C35012542   1.450   4.420   0.979  0.1943  0.2960  0.0934
   17MOL   O35112543   1.397   4.357   0.892  0.0034 -0.0863 -0.0498
   17MOL   N35212544   1.396   4.449   1.101  0.2327  0.6463  0.3098
   17MOL   C35312545   1.271   4.407   1.160 -1.3309 -0.2897  0.1572
   17MOL   C35412546   1.146   4.486   1.113 -0.6891  0.3834 -0.2591
   17MOL   C35512547   1.016   4.426   1.157 -0.1377 -0.0760 -0.1580
   17MOL   C35612548   0.894   4.526   1.126 -0.1498  0.1594  0.0287
   17MOL   C35712549   0.857   4.559   0.976 -0.1511 -1.4053  0.3770
   17MOL   C35812550   0.720   4.626   0.960 -0.2702 -0.5269  0.4605
   17MOL   N35912551   0.689   4.656   0.819  0.1708 -0.6566 -0.6478
   17MOL   H36012552   1.596   4.915   0.952 -0.0698  0.4167  1.5299
   17MOL   H36112553   1.726   4.793   0.940  1.2152 -0.1589  2.5571
   17MOL   H36212554   1.428   4.711   0.914  0.4002  0.6812 -0.1125
   17MOL   H36312555   1.523   4.776   0.779 -2.6171  0.5506 -0.1714
   17MOL   H36412556   1.682   4.597   0.807 -0.3306  0.6847 -0.1231
   17MOL   H36512557   1.527   4.547   0.756  0.7998 -1.8798 -0.4255
   17MOL   H36612558   1.624   4.516   1.051 -0.1878  1.1245  0.0553
   17MOL   H36712559   1.653   4.403   0.915 -1.5756 -1.7222  2.2050
   17MOL   H36812560   1.442   4.513   1.164  1.6133 -1.5047  1.5770
   17MOL   H36912561   1.255   4.301   1.137  1.2140 -0.9663  1.2912
   17MOL   H37012562   1.278   4.398   1.269  2.1931  1.4788  0.1433
   17MOL   H37112563   1.153   4.592   1.136  1.3903  0.5535 -1.5597
   17MOL   H37212564   1.141   4.493   1.005  0.9138 -0.0244 -0.3783
   17MOL   H37312565   1.023   4.400   1.263 -0.9078 -0.6665 -0.2486
   17MOL   H37412566   1.013   4.327   1.112  1.0649 -0.1336 -0.1259
   17MOL   H37512567   0.797   4.494   1.165 -0.6127  1.4568 -0.0311
   17MOL   H37612568   0.919   4.614   1.184  1.4250 -0.9927  1.1486
   17MOL   H37712569   0.941   4.623   0.950  0.5268 -1.7055  1.7411
   17MOL   H37812570   0.844   4.466   0.919 -0.1559 -1.6859  0.8291
   17MOL   H37912571   0.720   4.717   1.020  1.0115  0.1291 -0.5246
   17MOL   H38012572   0.640   4.567   1.006 -3.6398  3.5151  0.0882
   17MOL   H38112573   0.743   4.727   0.772 -2.0203  1.3063 -0.2559
   17MOL   C38212574   0.595   4.599   0.751  0.1501  0.3157 -0.3076
   17MOL   O38312575   0.517   4.514   0.797  0.3095 -0.0459  0.0886
   17MOL   C38412576   0.578   4.640   0.600  0.2430  0.3421  0.0567
   17MOL   C38512577   0.503   4.539   0.504 -0.0949 -0.0972  0.2811
   17MOL   C38612578   0.475   4.590   0.364 -0.4412  0.1352 -0.5233
   17MOL   C38712579   0.546   4.521   0.246  0.9986 -0.1202 -0.1241
   17MOL   C38812580   0.694   4.551   0.250 -0.5550 -0.2564 -0.0006
   17MOL   O38912581   0.737   4.637   0.178  0.0453 -0.2631  0.3417
   17MOL   N39012582   0.767   4.483   0.339 -0.5758  0.2608  0.6298
   17MOL   C39112583   0.909   4.488   0.359  0.2646 -0.0649  0.2049
   17MOL   C39212584   0.954   4.443   0.498 -0.1708 -0.0474  0.3177
   17MOL   C39312585   1.091   4.391   0.531 -0.0522 -0.4027  0.3448
   17MOL   C39412586   1.196   4.508   0.526  0.3290 -0.4164  0.1084
   17MOL   C39512587   1.222   4.572   0.666  0.0285 -0.3572 -0.1770
   17MOL   C39612588   1.111   4.675   0.706  0.2830  1.1889 -0.0590
   17MOL   N39712589   1.087   4.769   0.603 -0.4233 -0.2653  0.2752
   17MOL   H39812590   0.534   4.739   0.611  0.4319  0.4950 -0.5526
   17MOL   H39912591   0.675   4.667   0.559 -0.1495 -0.4228 -1.3990
   17MOL   H40012592   0.546   4.440   0.510  0.7080  0.1135 -1.5320
   17MOL   H40112593   0.404   4.518   0.545 -0.1398  1.5229  1.0528
   17MOL   H40212594   0.518   4.690   0.358  1.5020 -0.7365 -1.4649
   17MOL   H40312595   0.370   4.584   0.336 -0.8579 -0.5943  1.1335
   17MOL   H40412596   0.512   4.562   0.150  0.5540  1.5967  0.7432
   17MOL   H40512597   0.530   4.414   0.233  0.8186 -0.3761  2.1147
   17MOL   H40612598   0.732   4.403   0.391  3.1460 -1.7794  0.1956
   17MOL   H40712599   0.935   4.425   0.274  1.1689  0.7724 -0.1571
   17MOL   H40812600   0.947   4.587   0.332 -0.6508  0.5317  1.0387
   17MOL   H40912601   0.915   4.518   0.567  0.0596  0.9420 -0.6170
   17MOL   H41012602   0.892   4.357   0.526 -0.1430 -0.9791 -2.3106
   17MOL   H41112603   1.115   4.307   0.466  0.3359 -1.9115  2.3769
   17MOL   H41212604   1.100   4.352   0.632 -0.5779 -0.1990  0.4700
   17MOL   H41312605   1.290   4.459   0.496  0.0670 -0.4207 -0.7218
   17MOL   H41412606   1.177   4.577   0.444 -2.2751 -0.8944  0.2836
   17MOL   H41512607   1.230   4.501   0.748 -0.1989  0.6801  0.7611
   17MOL   H41612608   1.319   4.621   0.660 -0.0924 -0.1127 -0.1533
   17MOL   H41712609   1.148   4.719   0.799  1.2933 -1.2341  0.7114
   17MOL   H41812610   1.023   4.619   0.735  0.9508  0.5341  0.7163
   17MOL   H41912611   1.168   4.783   0.545 -0.5499  2.2477  0.6182
   17MOL   C42012612   0.973   4.830   0.576 -0.1546 -0.1373  0.2009
   17MOL   O42112613   0.880   4.822   0.651 -0.2757  0.4225 -0.4345
   17MOL   C42212614   0.955   4.899   0.441 -0.0907  0.1264  0.4223
   17MOL   C42312615   0.900   5.040   0.463 -0.3933  0.3224  0.0412
   17MOL   C42412616   0.746   5.048   0.448 -0.0633 -0.4637 -0.0398
   17MOL   C42512617   0.695   5.193   0.483  0.8687 -0.5593 -0.9151
   17MOL   C42612618   0.543   5.209   0.503 -0.4635 -0.2740 -0.1269
   17MOL   O42712619   0.476   5.109   0.523  0.2727  0.0989  0.2025
   17MOL   N42812620   0.492   5.332   0.487 -0.2665  0.3916 -0.3067
   17MOL   C42912621   0.354   5.360   0.503  0.1460  0.1209  0.0298
   17MOL   C43012622   0.329   5.420   0.645 -0.2681  0.9526 -0.3307
   17MOL   C43112623   0.414   5.547   0.668  0.2636  0.0898 -0.0447
   17MOL   C43212624   0.391   5.618   0.804 -0.6159 -0.1779  0.4706
   17MOL   C43312625   0.437   5.761   0.798  0.5484  0.1728  0.4477
   17MOL   C43412626   0.581   5.787   0.823 -0.4860  0.4139  0.0820
   17MOL   N43512627   0.627   5.911   0.773  0.2088  0.0745 -0.1133
   17MOL   H43612628   1.047   4.896   0.383 -0.3420  1.9625 -0.0928
   17MOL   H43712629   0.878   4.844   0.388  0.8229  1.8832 -2.8405
   17MOL   H43812630   0.929   5.089   0.556  0.5039  0.5290 -0.3455
   17MOL   H43912631   0.938   5.101   0.381 -1.0576  0.3744 -0.2327
   17MOL   H44012632   0.707   4.992   0.533  3.1029 -2.6110  0.0574
   17MOL   H44112633   0.717   5.015   0.348  0.4958  2.3028 -1.1387
   17MOL   H44212634   0.729   5.261   0.405  2.9773 -1.0505 -0.4315
   17MOL   H44312635   0.730   5.220   0.583 -0.8487  3.5909 -1.3132
   17MOL   H44412636   0.546   5.417   0.481  1.6173 -0.6841  0.8793
   17MOL   H44512637   0.327   5.432   0.426  0.0237  0.0500  0.0061
   17MOL   H44612638   0.292   5.271   0.492  0.1920  0.2424 -1.3605
   17MOL   H44712639   0.225   5.429   0.676 -0.4195 -0.9486 -0.2535
   17MOL   H44812640   0.367   5.350   0.720  0.2081  1.6760  0.1181
   17MOL   H44912641   0.383   5.621   0.595 -1.8520  2.0686  2.7164
   17MOL   H45012642   0.519   5.554   0.640  0.1457 -1.9175 -1.0736
   17MOL   H45112643   0.283   5.612   0.819 -0.8369 -0.6077 -1.1676
   17MOL   H45212644   0.441   5.551   0.874  0.2663  0.5752  0.5603
   17MOL   H45312645   0.401   5.814   0.710  0.0338 -0.3974  0.3116
   17MOL   H45412646   0.372   5.798   0.877  0.0070  1.1645 -0.4511
   17MOL   H45512647   0.627   5.705   0.768 -0.1862  0.1378  0.7301
   17MOL   H45612648   0.605   5.775   0.929 -1.7784 -1.8003  0.1599
   17MOL   H45712649   0.559   5.959   0.716  0.0184  0.6184  0.5566
   17MOL   C45812650   0.747   5.967   0.797  0.5306  0.2191 -0.2519
   17MOL   O45912651   0.823   5.924   0.882  0.1592  1.0410  0.3228
   17MOL   C46012652   0.780   6.098   0.717  0.9937  0.4018 -0.5629
   17MOL   C46112653   0.870   6.200   0.793  0.1220 -0.1916  0.0551
   17MOL   C46212654   0.896   6.335   0.724  0.6542  0.4761 -0.1664
   17MOL   C46312655   0.907   6.441   0.843  0.7938  0.2973 -0.4025
   17MOL   C46412656   0.918   6.585   0.788 -0.2065 -0.1436  0.2826
   17MOL   O46512657   0.817   6.632   0.730  0.2231  0.3159  0.2261
   17MOL   N46612658   1.015   6.661   0.831  0.4628 -0.0194 -0.1207
   17MOL   C46712659   1.014   6.804   0.835  0.0470 -0.1982 -0.0686
   17MOL   C46812660   1.042   6.871   0.697  0.9000 -0.2925  0.4005
   17MOL   C46912661   1.048   7.023   0.695  0.7505  0.8599  0.1393
   17MOL   C47012662   1.035   7.074   0.549  0.0683  0.8632 -0.2676
   17MOL   C47112663   1.049   7.225   0.546  0.8577 -0.4990  0.3604
   17MOL   C47212664   0.910   7.297   0.561 -1.1120  0.0161 -0.1919
   17MOL   N47312665   0.911   7.443   0.571  0.1427 -0.2566  0.5700
   17MOL   H47412666   0.819   6.078   0.617 -0.8121  2.7915 -1.7923
   17MOL   H47512667   0.685   6.145   0.691 -0.4336 -1.0743  1.7549
   17MOL   H47612668   0.814   6.213   0.886 -0.6502  1.3502 -0.6072
   17MOL   H47712669   0.963   6.155   0.828  0.1518 -0.0974  0.0961
   17MOL   H47812670   0.811   6.364   0.662  0.6673  3.5954  1.2041
   17MOL   H47912671   0.988   6.341   0.665  1.1600 -1.9041  0.3215
   17MOL   H48012672   0.997   6.414   0.899 -0.3800 -1.9990  0.4354
   17MOL   H48112673   0.826   6.448   0.915  0.4660  3.0018 -0.9672
   17MOL   H48212674   1.085   6.613   0.886  0.2325 -2.3150 -1.7206
   17MOL   H48312675   0.909   6.827   0.855 -0.6396 -2.8922 -0.3197
   17MOL   H48412676   1.079   6.842   0.914  1.3749  0.9481 -1.6873
   17MOL   H48512677   1.140   6.831   0.671  0.0897 -1.0640 -1.6676
   17MOL   H48612678   0.967   6.847   0.621  2.5148  3.1768 -2.4437
   17MOL   H48712679   1.142   7.050   0.744 -1.3189  0.7276  4.4286
   17MOL   H48812680   0.968   7.068   0.753 -1.0066  1.6373 -2.8470
   17MOL   H48912681   1.116   7.024   0.496  1.5332  0.4106  2.3400
   17MOL   H49012682   0.939   7.048   0.504 -0.0849  1.0268 -0.0354
   17MOL   H49112683   1.124   7.268   0.613  0.4004 -0.7903  1.0599
   17MOL   H49212684   1.080   7.252   0.446  2.3278 -1.0920  0.6453
   17MOL   H49312685   0.872   7.266   0.659  0.1342 -0.6650  0.0900
   17MOL   H49412686   0.845   7.263   0.480 -3.4837  1.4301  1.0736
   17MOL   H49512687   0.989   7.476   0.625  0.5402 -1.3190  0.6513
   17MOL   C49612688   0.814   7.525   0.527 -0.8598 -0.0764  0.4117
   17MOL   O49712689   0.709   7.478   0.480 -0.4006 -0.5712 -0.2692
   17MOL   C49812690   0.828   7.676   0.558 -0.2688 -0.3529  0.2606
   17MOL   C49912691   0.758   0.009   0.681 -0.2921 -0.8012  0.1906
   17MOL   C50012692   0.823   0.128   0.760  0.4382  0.3308 -0.3051
   17MOL   C50112693   0.952   0.090   0.848 -0.1474  0.2718  0.0396
   17MOL   C50212694   1.083   0.078   0.773 -1.3413  0.0031  0.1168
   17MOL   O50312695   1.125   0.160   0.690  0.1328 -0.3129  0.4689
   17MOL   N50412696   1.151   7.676   0.794  0.2030 -0.1343  0.0283
   17MOL   C50512697   1.280   7.638   0.732 -0.5250  0.3490  0.4032
   17MOL   C50612698   1.394   7.641   0.842 -0.0188 -0.0173 -0.1518
   17MOL   C50712699   1.531   7.593   0.798  0.0332 -0.5182 -0.2296
   17MOL   C50812700   1.567   7.454   0.831 -0.3771  0.4237  0.5941
   17MOL   C50912701   1.711   7.412   0.817  0.1914  0.2365 -0.7535
   17MOL   C51012702   1.726   7.264   0.796 -0.5311 -0.1572 -0.6951
   17MOL   N51112703   1.850   7.226   0.725 -0.4817  0.2691  0.1523
   17MOL   H51212704   0.936   7.691   0.566 -0.0734 -1.7530  0.3363
   17MOL   H51312705   0.792   0.024   0.472  0.3141  0.3773  0.4872
   17MOL   H51412706   0.657   0.043   0.658 -0.0763 -0.9746 -1.0590
   17MOL   H51512707   0.744   7.640   0.756  0.3342 -2.9495 -1.8393
   17MOL   H51612708   0.747   0.178   0.821 -1.9974 -2.7679 -0.6232
   17MOL   H51712709   0.860   0.205   0.693 -0.3874  1.0928  0.1019
   17MOL   H51812710   0.945   7.695   0.884  0.4836  0.1346 -0.2298
   17MOL   H51912711   0.965   0.149   0.939  1.0324  1.4483 -0.8685
   17MOL   H52012712   1.118   7.612   0.864  1.2075 -1.2286 -0.4851
   17MOL   H52112713   1.266   7.539   0.689  1.7201 -0.2407  1.0043
   17MOL   H52212714   1.300   0.002   0.652  2.6937  1.0254  1.7541
   17MOL   H52312715   1.408   0.037   0.870  3.3276 -0.3057 -0.5381
   17MOL   H52412716   1.363   7.595   0.936 -0.1662  0.6033  0.1013
   17MOL   H52512717   1.607   7.653   0.850  0.4711 -0.1300 -1.2981
   17MOL   H52612718   1.550   7.612   0.692 -1.8733  1.3189 -0.2723
   17MOL   H52712719   1.529   7.426   0.929 -0.1798 -0.7790  0.3326
   17MOL   H52812720   1.504   7.390   0.770 -1.5554  2.1276 -0.0170
   17MOL   H52912721   1.749   7.462   0.728  0.4592 -1.5928 -1.7048
   17MOL   H53012722   1.764   7.450   0.904 -0.3046  2.8229 -1.5468
   17MOL   H53112723   1.643   7.198   0.768 -0.9482 -1.2638  2.9781
   17MOL   H53212724   1.757   7.228   0.894 -3.1439 -3.1825 -0.8880
   17MOL   H53312725   1.909   7.166   0.780 -1.1628  2.1327  3.0290
   17MOL   C53412726   1.873   7.239   0.600 -0.2980  0.2023  0.5996
   17MOL   O53512727   1.804   7.306   0.518  0.0093 -0.1373  0.3510
   17MOL   C53612728   1.998   7.167   0.547  0.2330  0.8529 -0.4221
   17MOL   C53712729   1.976   7.120   0.400 -1.3164  0.4934 -0.0530
   17MOL   C53812730   2.089   7.029   0.358 -0.9507  0.7917  0.2202
   17MOL   C53912731   2.087   6.991   0.207  0.2165  0.3405  0.2833
   17MOL   C54012732   2.006   6.865   0.162  0.1085 -0.4964  0.5147
   17MOL   O54112733   1.943   6.800   0.244 -0.3305  0.2844 -0.1769
   17MOL   N54212734   2.015   6.815   0.040  0.4932 -0.5066  0.1622
   17MOL   C54312735   1.959   6.692   7.697  0.3722 -0.0976  0.3334
   17MOL   C54412736   1.853   6.726   7.595 -0.2840  0.1228  0.0386
   17MOL   C54512737   1.903   6.812   7.474  0.3343  0.6801 -0.6744
   17MOL   C54612738   1.829   6.790   7.344 -0.1379  0.1692 -0.6793
   17MOL   C54712739   1.684   6.827   7.350 -0.2857 -0.2883 -0.1458
   17MOL   C54812740   1.612   6.788   7.222 -0.5108 -0.1671  0.0451
   17MOL   N54912741   1.604   6.640   7.212  0.4186 -1.1734 -0.0448
   17MOL   H55012742   2.079   7.238   0.560 -0.6694  1.6695  0.7998
   17MOL   H55112743   2.015   7.085   0.616  0.5137  2.4318  1.4230
   17MOL   H55212744   1.877   7.075   0.401 -1.2983  0.4504  1.6328
   17MOL   H55312745   1.968   7.204   0.331 -1.0574 -1.3313 -2.3638
   17MOL   H55412746   2.084   6.937   0.417  0.8784  1.5977  1.6553
   17MOL   H55512747   2.189   7.063   0.385 -0.0946 -0.6690 -1.0144
   17MOL   H55612748   2.189   6.968   0.177  0.6107  3.0072 -0.5969
   17MOL   H55712749   2.059   7.080   0.150  1.2217  1.2209  1.1442
   17MOL   H55812750   2.066   6.875   7.684  0.2056  1.8634  2.0529
   17MOL   H55912751   2.042   6.627   7.669  0.0086  0.0844 -1.2303
   17MOL   H56012752   1.907   6.648   0.074  1.5796 -0.6199  0.7987
   17MOL   H56112753   1.796   6.639   7.564  2.5846 -2.1778  1.0573
   17MOL   H56212754   1.781   6.788   7.649  0.1155 -0.8828  1.7454
   17MOL   H56312755   2.010   6.794   7.464  0.5651  0.9021  1.1576
   17MOL   H56412756   1.896   6.918   7.499  1.1641  0.5048  0.3077
   17MOL   H56512757   1.881   6.840   7.263  0.5975 -0.1433 -0.4040
   17MOL   H56612758   1.836   6.687   7.310 -1.5689  0.2978 -1.3898
   17MOL   H56712759   1.648   6.780   7.441 -1.8926 -0.4042 -0.8347
   17MOL   H56812760   1.668   6.932   7.375 -0.8958 -0.4660  0.2422
   17MOL   H56912761   1.655   6.827   7.130 -0.1122  0.6921  0.5894
   17MOL   H57012762   1.513   6.832   7.232 -1.4282 -2.3532  0.8312
   17MOL   H57112763   1.662   6.602   7.139 -1.1322 -1.4238 -1.1615
   17MOL   C57212764   1.521   6.554   7.282  0.6478 -0.5951  0.8138
   17MOL   O57312765   1.431   6.597   7.360 -0.2081 -0.1969 -0.5611
   17MOL   C57412766   1.539   6.409   7.245 -0.2220 -0.3986 -0.0423
   17MOL   C57512767   1.422   6.315   7.272 -0.1480 -0.1336 -0.1779
   17MOL   C57612768   1.446   6.175   7.219  0.4835 -0.1407  0.3083
   17MOL   C57712769   1.353   6.075   7.289 -0.3622  0.5688  0.7833
   17MOL   C57812770   1.370   5.930   7.241 -0.5123  0.2413 -0.2618
   17MOL   O57912771   1.461   5.889   7.169  0.1669  0.0421 -0.0750
   17MOL   N58012772   1.271   5.851   7.279 -0.9523 -0.1531 -0.3757
   17MOL   C58112773   1.276   5.706   7.296 -0.7365 -0.0714  1.1200
   17MOL   C58212774   1.139   5.649   7.279  0.1598 -0.2052  0.7059
   17MOL   C58312775   1.128   5.501   7.307  0.1320  0.9644  0.1652
   17MOL   C58412776   0.986   5.448   7.295  1.1418  0.2764 -0.9523
   17MOL   C58512777   0.977   5.293   7.317  0.4225  0.2299  0.0647
   17MOL   C58612778   1.036   5.227   7.194  0.1320  0.6436  0.4589
   17MOL   N58712779   1.007   5.081   7.194 -0.2856 -0.2587 -0.2530
   17MOL   H58812780   1.567   6.406   7.140  0.6027 -0.4210  0.1746
   17MOL   H58912781   1.628   6.364   7.289 -0.4338 -1.2557 -0.4717
   17MOL   H59012782   1.404   6.314   7.379 -0.1911 -2.2792 -0.1822
   17MOL   H59112783   1.335   6.359   7.222 -0.0889  1.3554  1.0222
   17MOL   H59212784   1.550   6.148   7.239  0.1593 -0.3899  1.7501
   17MOL   H59312785   1.431   6.177   7.111 -0.6254  0.5724  0.4599
   17MOL   H59412786   1.247   6.098   7.303 -0.7755  1.4856 -3.2896
   17MOL   H59512787   1.382   6.049   7.391  0.9384 -1.1769 -0.0203
   17MOL   H59612788   1.198   5.889   7.338  1.0623  4.0494 -0.4364
   17MOL   H59712789   1.361   5.664   7.242 -0.9531 -0.7557  1.3036
   17MOL   H59812790   1.302   5.690   7.401  4.3352  1.1013  0.1885
   17MOL   H59912791   1.073   5.690   7.356  0.7135 -0.4890  1.3437
   17MOL   H60012792   1.107   5.677   7.179 -1.6621 -1.8431  0.7838
   17MOL   H60112793   1.162   5.476   7.407  0.9233  3.1885  0.4814
   17MOL   H60212794   1.191   5.450   7.234  1.1841 -0.3309  1.9658
   17MOL   H60312795   0.922   5.496   7.369  1.3272 -0.1738 -0.4931
   17MOL   H60412796   0.955   5.487   7.198 -1.0956  1.6201  0.2564
   17MOL   H60512797   1.028   5.260   7.408  1.0690 -3.8351 -1.6824
   17MOL   H60612798   0.874   5.258   7.327  1.1229 -1.6755  0.8369
   17MOL   H60712799   1.144   5.238   7.205  0.1647 -0.0109  0.7995
   17MOL   H60812800   1.012   5.276   7.100 -0.6933 -0.7869 -0.0845
   17MOL   H60912801   0.937   5.049   7.128  0.7134 -1.3286 -0.8239
   17MOL   C61012802   1.076   4.995   7.265 -1.6072  0.3401  0.6891
   17MOL   O61112803   1.176   5.034   7.327 -0.1542 -0.3442 -0.1067
   17MOL   C61212804   1.017   4.852   7.283 -1.0530 -0.0181 -0.4627
   17MOL   C61312805   1.123   4.738   7.270 -0.0761  0.2995 -0.0440
   17MOL   C61412806   1.068   4.610   7.207 -0.2670 -0.3101 -0.1353
   17MOL   C61512807   1.026   4.629   7.063  0.7627  0.0126 -0.3051
   17MOL   C61612808   1.148   4.642   6.974 -0.0257  0.4313  0.6746
   17MOL   O61712809   1.233   4.551   6.967 -0.2057 -0.0071  0.7508
   17MOL   N61812810   1.159   4.748   6.896  0.3054 -0.3637  0.1116
   17MOL   C61912811   1.268   4.788   6.812  0.0062 -0.4823 -0.4103
   17MOL   C62012812   1.351   4.901   6.862 -0.3697  0.3433  0.7305
   17MOL   C62112813   1.291   5.035   6.882 -0.3112 -0.0296 -0.1660
   17MOL   C62212814   1.382   5.141   6.947 -0.1965 -0.5045 -0.2401
   17MOL   C62312815   1.482   5.210   6.857  0.2474 -0.0570 -0.1092
   17MOL   C62412816   1.570   5.305   6.929 -0.0801 -0.0427  0.0236
   17MOL   N62512817   1.662   5.371   6.841 -0.4102  0.0706 -0.6145
   17MOL   H62612818   0.963   4.841   7.377 -0.1391 -0.7835 -0.0157
   17MOL   H62712819   0.935   4.840   7.212 -0.9314 -1.1086 -0.4391
   17MOL   H62812820   1.209   4.777   7.215 -0.5014  1.9728  0.4518
   17MOL   H62912821   1.170   4.716   7.366 -0.9666  1.3968  0.6593
   17MOL   H63012822   0.985   4.564   7.260  1.0943 -2.4731  0.1802
   17MOL   H63112823   1.145   4.533   7.215  0.2015 -0.1770 -2.8208
   17MOL   H63212824   0.940   4.696   7.049 -0.2857 -1.2460  0.0728
   17MOL   H63312825   0.994   4.532   7.026 -0.8110 -0.5576  2.4499
   17MOL   H63412826   1.083   4.814   6.906  0.2924 -0.3942  0.2183
   17MOL   H63512827   1.341   4.707   6.811 -2.3318 -2.6588  0.6363
   17MOL   H63612828   1.221   4.808   6.716 -1.4690 -1.9806 -0.0136
   17MOL   H63712829   1.404   4.878   6.955 -3.4041 -2.6899  1.7812
   17MOL   H63812830   1.439   4.901   6.798 -0.4026  0.0445  0.6851
   17MOL   H63912831   1.206   5.026   6.949 -0.5411  0.7649 -0.3478
   17MOL   H64012832   1.258   5.057   6.780 -0.3202 -0.2591 -0.2130
   17MOL   H64112833   1.308   5.209   6.989 -1.3647  0.2914 -3.4381
   17MOL   H64212834   1.426   5.104   7.039 -2.4560 -0.8106  0.7654
   17MOL   H64312835   1.541   5.134   6.806  1.0218 -0.2175  1.0159
   17MOL   H64412836   1.434   5.267   6.778  0.1986  0.1951  0.1019
   17MOL   H64512837   1.625   5.247   7.002 -0.0825  1.6406  1.3816
   17MOL   H64612838   1.528   5.379   6.996  2.1039  1.7820 -0.5782
   17MOL   H64712839   1.628   5.447   6.783  1.6478  1.2433 -0.3105
   17MOL   C64812840   1.786   5.330   6.819  0.4351 -0.2242  0.9106
   17MOL   O64912841   1.840   5.245   6.882 -0.0289 -0.5424  0.0392
   17MOL   C65012842   1.870   5.381   6.695 -0.7447 -0.1770 -0.3152
   17MOL   C65112843   1.986   5.474   6.746  0.7765 -0.1267 -0.1113
   17MOL   C65212844   2.083   5.523   6.640  0.0335 -0.0087 -0.0973
   17MOL   C65312845   2.184   5.630   6.688 -0.3450  0.2721  0.0473
   17MOL   C65412846   2.116   5.770   6.711 -0.4163  0.0444  0.2823
   17MOL   O65512847   2.052   5.791   6.815  0.1260 -0.2268  0.0701
   17MOL   N65612848   2.148   5.870   6.627  0.1078 -0.4460 -0.2259
   17MOL   C65712849   2.082   6.002   6.626  0.1357  0.5039 -0.1234
   17MOL   C65812850   1.937   5.993   6.575 -0.3469 -0.1225 -0.4562
   17MOL   C65912851   1.906   5.930   6.432 -0.0684  1.1329 -0.3019
   17MOL   C66012852   1.755   5.917   6.405 -0.5914 -0.4907  0.2129
   17MOL   C66112853   1.695   5.803   6.480 -0.4569 -0.3152  0.3126
   17MOL   C66212854   1.561   5.763   6.426 -0.0309  0.1570  0.6404
   17MOL   N66312855   1.534   5.639   6.496  0.4045 -0.5187 -0.0995
   17MOL   H66412856   1.917   5.291   6.654  0.3587  0.6716 -0.9531
   17MOL   H66512857   1.814   5.419   6.609  1.9206  0.6159 -1.7632
   17MOL   H66612858   1.934   5.550   6.804  0.0397 -0.0576 -0.8476
   17MOL   H66712859   2.040   5.411   6.817 -1.7668  0.6324  2.6384
   17MOL   H66812860   2.026   5.563   6.556  1.5370  2.4622 -0.0052
   17MOL   H66912861   2.140   5.437   6.606 -0.5950  0.0104 -1.2123
   17MOL   H67012862   2.267   5.646   6.618  0.0997 -1.7068  0.0883
   17MOL   H67112863   2.231   5.599   6.781 -1.0124  2.2400  1.0641
   17MOL   H67212864   2.220   5.850   6.559 -0.5952 -2.9547 -0.2747
   17MOL   H67312865   2.095   6.048   6.724  0.6124 -3.5229  1.7872
   17MOL   H67412866   2.138   6.062   6.555  0.7468 -0.9310 -0.8565
   17MOL   H67512867   1.888   5.932   6.651  2.4679  0.4328  1.8703
   17MOL   H67612868   1.881   6.086   6.581  0.1215 -0.0287  3.9377
   17MOL   H67712869   1.964   5.839   6.415 -2.0094 -0.4418  1.2167
   17MOL   H67812870   1.942   6.002   6.359 -0.5468 -0.3717 -2.0811
   17MOL   H67912871   1.712   6.014   6.433  1.7671  0.7360 -0.2371
   17MOL   H68012872   1.730   5.912   6.299 -2.0310 -1.1935  0.5724
   17MOL   H68112873   1.761   5.717   6.475  0.6352  0.5133  0.1486
   17MOL   H68212874   1.690   5.836   6.583  0.9235 -0.2856  0.3790
   17MOL   H68312875   1.566   5.749   6.318 -0.1301 -2.2834  0.9272
   17MOL   H68412876   1.483   5.832   6.455  0.7496  0.7928  1.2440
   17MOL   H68512877   1.558   5.632   6.594 -3.2012 -0.6796  0.8435
   17MOL   C68612878   1.467   5.534   6.446  0.0409 -0.4184  0.1906
   17MOL   O68712879   1.416   5.534   6.333 -0.4311  0.3735  0.1456
   17MOL   C68812880   1.470   5.408   6.540  0.1416  0.6556  0.4573
   17MOL   C68912881   1.385   5.291   6.484  0.2480 -0.2682  0.0494
   17MOL   C69012882   1.228   5.309   6.495 -0.7403 -0.4823 -0.6429
   17MOL   C69112883   1.137   5.190   6.464  0.0273 -0.8734 -0.5570
   17MOL   C69212884   1.144   5.147   6.316  0.2913  0.4236 -0.0126
   17MOL   O69312885   1.088   5.217   6.229 -0.2253  0.6318 -0.2267
   17MOL   N69412886   1.205   5.039   6.284  0.1253  0.0564 -0.3848
   17MOL   C69512887   1.214   5.000   6.146 -0.6234  0.1910  0.0200
   17MOL   C69612888   1.243   4.851   6.132  0.7701  0.0571 -0.1802
   17MOL   C69712889   1.214   4.798   5.991  0.4129 -0.6507 -1.1598
   17MOL   C69812890   1.063   4.759   5.974 -0.3861 -0.4508 -0.5273
   17MOL   C69912891   1.029   4.673   5.849  0.1106  0.3331 -0.2932
   17MOL   C70012892   0.878   4.672   5.830 -0.4512 -0.2997 -0.3892
   17MOL   N70112893   0.827   4.586   5.730  0.4039 -0.0657  0.8480
   17MOL   H70212894   1.572   5.377   6.516 -0.1560  0.5168 -0.6661
   17MOL   H70312895   1.461   5.432   6.646  2.8774  0.3320  0.7887
   17MOL   H70412896   1.398   5.285   6.376 -1.9067  0.8022 -0.3085
   17MOL   H70512897   1.427   5.196   6.518 -1.8126 -0.5865  1.8142
   17MOL   H70612898   1.214   5.387   6.421  4.6965  0.7586 -0.5520
   17MOL   H70712899   1.196   5.341   6.595  0.6107  2.0613 -0.9931
   17MOL   H70812900   1.033   5.216   6.484 -0.8420 -1.8589 -3.4584
   17MOL   H70912901   1.151   5.103   6.528 -0.1518 -0.7048 -0.2901
   17MOL   H71012902   1.246   4.981   6.355 -0.2361 -0.7037 -0.7884
   17MOL   H71112903   1.120   5.018   6.094 -0.3482 -0.4167 -0.6906
   17MOL   H71212904   1.293   5.062   6.103  0.2977  0.3820  1.9234
   17MOL   H71312905   1.350   4.844   6.154  1.6135  3.2982 -2.8038
   17MOL   H71412906   1.196   4.789   6.208  0.5089 -2.0195 -1.9971
   17MOL   H71512907   1.279   4.711   5.983 -0.6603 -1.6542  0.5186
   17MOL   H71612908   1.256   4.856   5.910 -0.5814  2.5736  0.5437
   17MOL   H71712909   1.023   4.708   6.062  0.3011  0.1722  0.1479
   17MOL   H71812910   1.006   4.852   5.967 -2.2017 -1.4433  0.4225
   17MOL   H71912911   1.087   4.702   5.761  0.5261  1.4327  0.3317
   17MOL   H72012912   1.062   4.571   5.871 -1.3583 -0.4162 -1.4440
   17MOL   H72112913   0.833   4.771   5.819 -0.7907 -0.5270 -1.0528
   17MOL   H72212914   0.839   4.625   5.920 -0.4020  0.4507  0.0284
   17MOL   H72312915   0.794   4.628   5.644 -0.0373 -1.6659  0.2119
   17MOL   C72412916   0.800   4.453   5.732  0.2504  0.3878 -0.0128
   17MOL   O72512917   0.804   4.387   5.836  0.1906 -0.2823 -0.5132
   17MOL   C72612918   0.742   4.395   5.603  0.5253 -0.1697  0.0204
   17MOL   C72712919   0.844   4.318   5.526 -0.2641 -0.5472 -1.0556
   17MOL   C72812920   0.919   4.394   5.413 -0.1767  0.1244 -0.7171
   17MOL   C72912921   1.012   4.513   5.458  0.0240 -0.3724  0.4515
   17MOL   C73012922   1.100   4.569   5.345  0.4052  0.0402  0.1116
   17MOL   O73112923   1.049   4.626   5.246  0.0147  0.5128  0.5001
   17MOL   N73212924   1.237   4.555   5.358  0.5150 -0.4663  0.6800
   17MOL   C73312925   1.333   4.611   5.264  0.0589 -0.2204 -0.2325
   17MOL   C73412926   1.411   4.501   5.189  0.2199 -0.2326 -0.1371
   17MOL   C73512927   1.500   4.415   5.287 -0.1706  0.7194 -0.1203
   17MOL   C73612928   1.593   4.308   5.223 -0.1992 -0.4047  0.5622
   17MOL   C73712929   1.522   4.183   5.184  0.5471  0.0136 -0.2710
   17MOL   C73812930   1.606   4.088   5.105 -0.1573 -0.6109 -0.2511
   17MOL   N73912931   1.645   4.129   4.970 -0.4503 -0.6572  0.4598
   17MOL   H74012932   0.668   4.321   5.634  0.0616  0.9658  1.7158
   17MOL   H74112933   0.684   4.461   5.537 -2.3774 -2.1855  0.4519
   17MOL   H74212934   0.908   4.270   5.599 -1.3171  0.6229  0.6823
   17MOL   H74312935   0.789   4.237   5.479  0.3009 -1.5269 -0.0493
   17MOL   H74412936   0.833   4.423   5.353 -0.0626  1.2600 -0.3439
   17MOL   H74512937   0.984   4.324   5.360  2.7109  1.2551  1.1601
   17MOL   H74612938   1.053   4.493   5.557 -1.9514 -0.8537  1.2108
   17MOL   H74712939   0.940   4.589   5.491  1.4050  0.4744  1.5672
   17MOL   H74812940   1.270   4.520   5.446  0.4046  0.4375  1.0873
   17MOL   H74912941   1.276   4.678   5.200 -0.2737  0.7486  1.0609
   17MOL   H75012942   1.402   4.673   5.322 -0.7140  0.8142 -0.4035
   17MOL   H75112943   1.340   4.436   5.138 -2.3313  1.7962  0.7493
   17MOL   H75212944   1.486   4.537   5.119  1.7788 -0.1380  1.5239
   17MOL   H75312945   1.439   4.378   5.369  1.7518 -1.5182  0.3682
   17MOL   H75412946   1.569   4.484   5.333 -0.3461  1.3423 -0.7806
   17MOL   H75512947   1.648   4.354   5.141 -2.4060 -0.2223 -0.8593
   17MOL   H75612948   1.665   4.276   5.298  0.1724 -0.9309 -0.0190
   17MOL   H75712949   1.499   4.125   5.273 -1.8658  0.9382 -0.2586
   17MOL   H75812950   1.432   4.201   5.126  0.7856  0.8863 -0.3825
   17MOL   H75912951   1.561   3.989   5.095 -1.3357 -0.2712  1.4337
   17MOL   H76012952   1.698   4.064   5.157 -0.2764 -1.1131 -0.2705
   17MOL   H76112953   1.655   4.040   4.922  1.6539  0.7303 -1.7527
   17MOL   H76212954   1.735   4.176   4.975 -1.9754  2.2819  0.9983
   18MOL     C112955   0.355   1.806   1.417 -0.3445 -0.2321  0.3335
   18MOL     O212956   0.402   1.869   1.510  0.1429 -0.1541  0.0588
   18MOL     C312957   0.338   1.657   1.419  0.1579  0.6784 -0.9082
   18MOL     C412958   0.452   1.594   1.339  0.4423  0.3284 -0.4633
   18MOL     C512959   0.593   1.615   1.404 -0.1808 -0.0118 -0.2146
   18MOL     C612960   0.706   1.527   1.337 -0.3235 -0.3446 -0.5407
   18MOL     C712961   0.744   1.557   1.189 -0.2933 -0.0354  0.4999
   18MOL     O812962   0.737   1.672   1.141  0.1320 -0.3519  0.6232
   18MOL     N912963   0.783   1.452   1.118 -0.1169  0.0596  0.7723
   18MOL    C1012964   0.859   1.458   0.996 -0.0575  0.7558  0.1454
   18MOL    C1112965   0.842   1.330   0.911 -0.3016 -0.1399  0.0550
   18MOL    C1212966   0.906   1.329   0.775 -0.6003 -0.3295  0.6022
   18MOL    C1312967   0.858   1.204   0.684 -0.5767  0.1432 -0.7341
   18MOL    C1412968   0.708   1.198   0.640  0.1916  0.0459  0.0353
   18MOL    C1512969   0.690   1.100   0.527  0.2517 -0.1581  0.1914
   18MOL    N1612970   0.552   1.098   0.482  0.9978  0.1175 -0.0433
   18MOL    H1712971   0.356   1.625   1.522 -2.9868 -0.7310 -0.7542
   18MOL    H1812972   0.239   1.620   1.395  0.1611  0.2801 -0.3105
   18MOL    H1912973   0.444   1.486   1.324  0.4411  0.1744  0.6372
   18MOL    H2012974   0.446   1.632   1.237 -1.8017 -0.7718 -0.7772
   18MOL    H2112975   0.602   1.607   1.512 -1.5782  0.0592 -0.0825
   18MOL    H2212976   0.623   1.719   1.392  0.4162 -0.4197 -2.4685
   18MOL    H2312977   0.682   1.420   1.337 -2.1948  0.0442 -0.7506
   18MOL    H2412978   0.795   1.534   1.399 -0.6210  1.0543 -0.2494
   18MOL    H2512979   0.793   1.357   1.151 -0.7885 -0.1130  0.5006
   18MOL    H2612980   0.823   1.540   0.934  0.8043  0.2253 -1.0876
   18MOL    H2712981   0.966   1.477   1.005 -0.0023 -0.2914  1.7033
   18MOL    H2812982   0.883   1.246   0.967 -1.9640  0.2110  1.8424
   18MOL    H2912983   0.736   1.320   0.892  0.1179 -0.5759 -2.2411
   18MOL    H3012984   1.015   1.325   0.783 -0.4839  1.8924  0.2542
   18MOL    H3112985   0.884   1.424   0.728  0.7744 -0.8648 -1.1933
   18MOL    H3212986   0.929   1.192   0.602  1.1289 -1.7080  0.9668
   18MOL    H3312987   0.871   1.113   0.743  1.9503  2.2557  2.1181
   18MOL    H3412988   0.646   1.193   0.730  1.0648 -2.1396  0.5461
   18MOL    H3512989   0.694   1.303   0.617 -1.5015  0.2108  1.6894
   18MOL    H3612990   0.731   1.003   0.557 -2.0353 -0.4466  2.5663
   18MOL    H3712991   0.747   1.131   0.439 -0.9048  1.8313  0.1129
   18MOL    H3812992   0.545   1.158   0.401  1.3089 -0.2883 -0.3743
   18MOL    H3912993   0.325   1.850   1.322  2.1229  1.7279  0.4205
   18MOL    C4012994   0.451   1.027   0.528 -0.2654 -0.4014  0.1367
   18MOL    O4112995   0.464   0.958   0.633 -0.1559 -0.5728  0.3089
   18MOL    C4212996   0.320   1.024   0.447  1.2027 -0.3759 -0.1712
   18MOL    C4312997   0.207   1.114   0.510  0.2545 -0.2093  0.4737
   18MOL    C4412998   0.081   1.131   0.411  0.0016 -0.1994 -0.6295
   18MOL    C4512999   7.696   1.011   0.411 -0.7048 -0.8025  0.3574
   18MOL    C4613000   7.618   0.995   0.537  0.2548 -0.5342  0.0685
   18MOL    O4713001   7.603   1.089   0.616  0.0838  0.5044  0.2459
   18MOL    N4813002   7.549   0.879   0.558 -0.5053  0.2012  0.1210
   18MOL    C4913003   7.447   0.874   0.659  0.9955 -0.4891  0.0797
   18MOL    C5013004   7.384   0.733   0.665 -0.0453 -0.5224 -0.1888
   18MOL    C5113005   7.469   0.627   0.731  0.0287 -0.6231  0.6840
   18MOL    C5213006   7.503   0.660   0.872 -0.5006  0.0873  0.6577
   18MOL    C5313007   7.566   0.539   0.943 -0.1131 -0.0484  0.2360
   18MOL    C5413008   7.568   0.553   1.096  0.6175 -0.1269  0.3342
   18MOL    N5513009   7.663   0.655   1.140 -0.3303  0.3182 -0.1474
   18MOL    H5613010   0.342   1.055   0.345 -2.4025  1.5845 -0.4364
   18MOL    H5713011   0.298   0.917   0.439 -1.3677  0.1476 -0.5434
   18MOL    H5813012   0.174   1.064   0.601  0.9113 -0.5891  0.5075
   18MOL    H5913013   0.248   1.211   0.536  0.4110  0.3535 -1.8132
   18MOL    H6013014   0.116   1.153   0.310 -0.2582  1.8051 -0.3015
   18MOL    H6113015   0.019   1.214   0.446  0.4302 -0.1228 -0.0355
   18MOL    H6213016   0.042   0.919   0.390 -0.0275 -0.0090 -1.4661
   18MOL    H6313017   7.618   1.025   0.337 -0.5489 -1.5082  0.0642
   18MOL    H6413018   7.555   0.813   0.481 -2.6682  1.5446 -1.2177
   18MOL    H6513019   7.469   0.911   0.759  0.4635 -1.4118  0.5480
   18MOL    H6613020   7.367   0.939   0.623  0.6979  0.3981  2.2209
   18MOL    H6713021   7.296   0.736   0.729  0.3421 -0.4678  0.3394
   18MOL    H6813022   7.348   0.699   0.568  1.1686 -0.1046 -0.7998
   18MOL    H6913023   7.565   0.631   0.678 -1.2135 -1.6593 -1.7406
   18MOL    H7013024   7.434   0.525   0.718 -1.0749 -0.0940 -0.6190
   18MOL    H7113025   7.582   0.735   0.872 -0.3539 -0.0687  0.9564
   18MOL    H7213026   7.414   0.698   0.923 -2.3429 -0.9973 -1.6534
   18MOL    H7313027   7.521   0.441   0.928 -1.2299 -0.2031  4.0234
   18MOL    H7413028   7.670   0.532   0.911  0.9597  1.1944  3.3119
   18MOL    H7513029   7.603   0.458   1.137 -1.6140  0.1080  2.8851
   18MOL    H7613030   7.472   0.562   1.145  1.8379 -0.8057  2.9548
   18MOL    H7713031   7.687   0.721   1.067  1.1396 -0.2755 -0.2170
   18MOL    C7813032   0.023   0.650   1.254 -0.3419  0.4976  0.5576
   18MOL    O7913033   7.703   0.566   1.340  0.1176 -0.2300 -0.3298
   18MOL    C8013034   0.130   0.748   1.290  0.5151  0.1691 -0.0990
   18MOL    C8113035   0.261   0.674   1.316  0.3530  0.5306 -0.1379
   18MOL    C8213036   0.336   0.630   1.192 -0.9322 -0.0865 -0.7050
   18MOL    C8313037   0.454   0.540   1.233 -0.0237  0.1777  1.0810
   18MOL    C8413038   0.495   0.433   1.125 -0.3037  0.0011  0.5158
   18MOL    O8513039   0.458   0.443   1.008  0.6175 -0.5599  0.3598
   18MOL    N8613040   0.581   0.337   1.167 -0.2788  0.1717 -0.1420
   18MOL    C8713041   0.627   0.220   1.094  0.6347 -0.1488 -0.0594
   18MOL    C8813042   0.524   0.102   1.091  0.2354  0.5077  0.0853
   18MOL    C8913043   0.585   7.688   1.017  0.6158 -0.2759 -0.7629
   18MOL    C9013044   0.704   7.619   1.090  0.5810 -0.2256  0.1477
   18MOL    C9113045   0.765   7.495   1.027  0.5138  0.3754 -0.0965
   18MOL    C9213046   0.868   7.424   1.117 -0.0999 -0.2195 -0.1320
   18MOL    N9313047   0.958   7.336   1.041  0.2967 -0.6974 -0.4933
   18MOL    H9413048   0.159   0.808   1.203  2.5774 -0.3226  0.2284
   18MOL    H9513049   0.092   0.787   1.384  2.3056 -0.6723  1.0067
   18MOL    H9613050   0.325   0.741   1.373  0.2571 -0.2185  0.8602
   18MOL    H9713051   0.240   0.593   1.386  0.6414  0.4354 -0.1569
   18MOL    H9813052   0.362   0.727   1.149  0.8545  0.4784  1.5624
   18MOL    H9913053   0.280   0.580   1.112  0.0700 -3.8837  0.8355
   18MOL   H10013054   0.420   0.477   1.315 -3.0597 -0.8783 -0.8865
   18MOL   H10113055   0.532   0.610   1.261  0.8996 -0.8138  1.0497
   18MOL   H10213056   0.622   0.349   1.259  1.0640  0.3679 -0.7583
   18MOL   H10313057   0.645   0.263   0.995 -0.3491 -1.2615 -0.7282
   18MOL   H10413058   0.727   0.188   1.123  0.7414  0.7461  0.5734
   18MOL   H10513059   0.502   0.077   1.195  2.8093 -0.6011  0.3989
   18MOL   H10613060   0.434   0.134   1.039  1.1342  1.5010 -0.8843
   18MOL   H10713061   0.608   0.010   0.915  1.0174  1.4081 -0.1949
   18MOL   H10813062   0.504   7.615   1.007 -0.4083  1.1815 -3.4879
   18MOL   H10913063   0.791   7.685   1.095  0.5791 -0.3342  1.8350
   18MOL   H11013064   0.673   7.585   1.189 -0.5221 -2.6900 -1.0211
   18MOL   H11113065   0.688   7.424   0.998 -0.3627  2.0569 -2.0262
   18MOL   H11213066   0.807   7.525   0.931 -1.3916 -1.2564 -1.4917
   18MOL   H11313067   0.819   7.356   1.188 -0.6911 -0.4339 -0.7360
   18MOL   H11413068   0.918   7.496   1.182  1.2820 -1.1144 -0.1794
   18MOL   H11513069   0.939   7.237   1.049  0.2091 -0.7175 -0.9599
   18MOL   C11613070   1.070   7.372   0.985  0.6654 -0.1697 -0.0377
   18MOL   O11713071   1.098   7.494   0.976  0.2310  0.0804  0.1458
   18MOL   C11813072   1.165   7.269   0.927 -0.2570 -0.2266 -0.0538
   18MOL   C11913073   1.293   7.249   1.005  0.0297 -0.0104 -0.2423
   18MOL   C12013074   1.271   7.167   1.140 -0.3564  0.8113  0.6572
   18MOL   C12113075   1.400   7.142   1.218 -0.0740  0.3736  0.4513
   18MOL   C12213076   1.478   7.026   1.168 -0.2636  0.2212  0.2302
   18MOL   O12313077   1.430   6.917   1.175  0.4197 -0.1488  0.3196
   18MOL   N12413078   1.597   7.054   1.116  0.0719  0.2025  0.2508
   18MOL   C12513079   1.681   6.954   1.057  0.1742  0.1479 -0.2130
   18MOL   C12613080   1.647   6.922   0.910  0.4326  0.7599  0.4452
   18MOL   C12713081   1.756   6.834   0.838 -0.2293  0.6431 -0.7806
   18MOL   C12813082   1.728   6.847   0.688  0.1932 -0.3177  0.4008
   18MOL   C12913083   1.793   6.737   0.607 -0.5314  0.2096  0.7158
   18MOL   C13013084   1.941   6.761   0.584  0.2277  0.4422 -0.9032
   18MOL   N13113085   2.000   6.676   0.476 -0.6938  0.3462 -0.4287
   18MOL   H13213086   1.113   7.173   0.920 -1.3127  0.2892  0.6944
   18MOL   H13313087   1.191   7.303   0.827  0.1442  1.4448  0.6003
   18MOL   H13413088   1.361   7.192   0.941 -1.6159  0.2004 -2.2183
   18MOL   H13513089   1.333   7.346   1.033 -1.0006  0.3463  0.0116
   18MOL   H13613090   1.225   7.070   1.118  0.8692  0.1596  0.9299
   18MOL   H13713091   1.207   7.228   1.203 -1.3075  1.5306 -0.9701
   18MOL   H13813092   1.388   7.116   1.323  1.8433 -1.8438  0.1469
   18MOL   H13913093   1.455   7.236   1.220 -0.2081  0.4819 -0.6006
   18MOL   H14013094   1.629   7.150   1.123  0.4754 -0.0661  2.6655
   18MOL   H14113095   1.780   6.999   1.059  0.3524 -0.1989 -1.1254
   18MOL   H14213096   1.685   6.866   1.121  2.8872  0.0138 -0.5131
   18MOL   H14313097   1.556   6.863   0.901  2.2730 -1.8980 -1.7018
   18MOL   H14413098   1.649   7.019   0.860  1.6826  0.3353 -0.3674
   18MOL   H14513099   1.744   6.734   0.879  0.4302  0.5760 -0.7527
   18MOL   H14613100   1.857   6.866   0.864 -0.1638 -2.1634  2.9147
   18MOL   H14713101   1.621   6.840   0.668  0.5912  1.1816 -2.4339
   18MOL   H14813102   1.769   6.940   0.650  0.4932 -1.4141 -2.0353
   18MOL   H14913103   1.775   6.636   0.644 -0.8271  0.0541  0.1630
   18MOL   H15013104   1.747   6.738   0.508  0.4559  3.0812  0.2411
   18MOL   H15113105   1.998   6.749   0.676  0.6223 -1.4535 -1.3691
   18MOL   H15213106   1.964   6.864   0.559 -1.4732  0.9838 -0.3290
   18MOL   H15313107   1.970   6.706   0.384 -1.2770 -0.1617 -0.4093
   18MOL   C15413108   2.101   6.592   0.488  0.6673 -0.0849 -0.4403
   18MOL   O15513109   2.140   6.552   0.596 -0.2729  0.1125  0.6953
   18MOL   C15613110   2.170   6.568   0.356 -0.7449 -0.1384 -0.1083
   18MOL   C15713111   2.133   6.424   0.304  0.3574 -0.7054 -0.0602
   18MOL   C15813112   2.196   6.394   0.165  0.5476 -0.0851  0.4474
   18MOL   C15913113   2.186   6.248   0.114 -0.2160 -0.2512  0.1334
   18MOL   C16013114   2.300   6.215   0.012  0.0096 -0.1533 -0.3243
   18MOL   O16113115   2.384   6.296   7.691  0.2145  0.4067  0.1509
   18MOL   N16213116   2.318   6.090   7.675  0.1749  0.0617 -0.0555
   18MOL   C16313117   2.225   5.980   7.682 -0.6222  0.9518 -0.3824
   18MOL   C16413118   2.295   5.870   0.059  0.5682 -0.6279  0.7094
   18MOL   C16513119   2.224   5.737   0.027  0.1015  0.6640 -0.0425
   18MOL   C16613120   2.097   5.728   0.115 -0.4173  0.9394 -0.1612
   18MOL   C16713121   2.042   5.586   0.122  0.1744 -0.3281  0.1248
   18MOL   C16813122   1.915   5.563   0.211 -0.5781  0.0060  0.0072
   18MOL   N16913123   1.848   5.434   0.191 -0.3969  0.3750 -0.5110
   18MOL   H17013124   2.142   6.636   0.275 -3.1128 -0.3006  0.5435
   18MOL   H17113125   2.274   6.585   0.387 -0.8916  0.2463  0.1839
   18MOL   H17213126   2.137   6.342   0.376  0.6352  1.4391  2.4483
   18MOL   H17313127   2.026   6.436   0.288  0.2503  0.3144  1.2960
   18MOL   H17413128   2.301   6.422   0.171 -0.3436  3.7635 -0.4683
   18MOL   H17513129   2.155   6.462   0.090 -0.2282  1.3721  2.1728
   18MOL   H17613130   2.088   6.234   0.069  0.1991 -0.6325 -0.6710
   18MOL   H17713131   2.210   6.174   0.190 -0.3995  0.0876  0.5196
   18MOL   H17813132   2.403   6.072   7.623  0.4789 -0.9935  0.7902
   18MOL   H17913133   2.128   6.011   0.010 -0.7795 -0.3198  0.3315
   18MOL   H18013134   2.202   5.950   7.580 -0.0538  0.5366 -0.3933
   18MOL   H18113135   2.394   5.848   0.018 -0.6437 -1.0950 -2.0311
   18MOL   H18213136   2.294   5.894   0.165  0.8505 -0.0725  0.5873
   18MOL   H18313137   2.285   5.649   0.048  0.1844  0.7343  0.0145
   18MOL   H18413138   2.200   5.725   7.629 -3.1946 -1.9220  0.8890
   18MOL   H18513139   2.127   5.748   0.218 -1.0811  0.7534  0.0706
   18MOL   H18613140   2.026   5.802   0.077  0.8749  2.3006  0.0200
   18MOL   H18713141   2.020   5.563   0.018 -0.5143  0.2378  0.1340
   18MOL   H18813142   2.118   5.518   0.159 -0.4330 -0.8566  0.4092
   18MOL   H18913143   1.837   5.639   0.213 -1.7660 -1.2110  3.0500
   18MOL   H19013144   1.944   5.565   0.316  0.9362 -1.0270 -0.3820
   18MOL   H19113145   1.859   5.374   0.271  0.0252  1.9767  0.6448
   18MOL   C19213146   1.774   5.386   0.097 -0.1679  0.3004 -0.0375
   18MOL   O19313147   1.752   5.456   0.000  0.0020 -0.0986  0.3072
   18MOL   C19413148   1.721   5.242   0.105  0.1039 -0.8134 -0.3830
   18MOL   C19513149   1.711   5.152   7.686  0.5797  0.3576  0.4794
   18MOL   C19613150   1.856   5.091   7.644 -0.0250  0.2576  0.0580
   18MOL   C19713151   1.948   5.193   7.577 -0.0958  0.5327 -0.5833
   18MOL   C19813152   2.077   5.137   7.542 -0.3068 -0.6176  0.0977
   18MOL   O19913153   2.089   5.054   7.450  0.1524 -0.6967  0.5008
   18MOL   N20013154   2.180   5.175   7.623 -0.1034  0.4691 -0.7181
   18MOL   C20113155   2.322   5.127   7.620  0.7773 -0.9999  0.6098
   18MOL   C20213156   2.410   5.246   7.569  0.0717 -0.4111  0.2837
   18MOL   C20313157   2.423   5.366   7.663 -0.0101 -0.0277 -0.1217
   18MOL   C20413158   2.474   5.501   7.608  0.1600  0.0707  0.3350
   18MOL   C20513159   2.606   5.476   7.520 -0.3367 -0.3772 -0.6715
   18MOL   C20613160   2.690   5.603   7.495 -0.1566 -0.1360  0.7631
   18MOL   N20713161   2.603   5.717   7.456  0.3623 -0.1781  0.4874
   18MOL   H20813162   1.778   5.188   0.181 -1.6114 -0.0466  1.5175
   18MOL   H20913163   1.621   5.250   0.149  0.6601  1.0306  0.6170
   18MOL   H21013164   1.647   5.065   7.704 -1.0938  1.3655 -0.4870
   18MOL   H21113165   1.656   5.207   7.610  1.3218 -0.0490 -0.3645
   18MOL   H21213166   1.842   5.013   7.569 -0.1223  1.4414 -1.1812
   18MOL   H21313167   1.904   5.041   0.020  0.9475 -0.4928 -0.9309
   18MOL   H21413168   1.957   5.277   7.646  1.1353 -0.7187  0.8187
   18MOL   H21513169   1.897   5.236   7.491  0.8064  0.7698 -0.9946
   18MOL   H21613170   2.169   5.248   7.692  0.1199 -0.9503  0.8497
   18MOL   H21713171   2.352   5.106   0.015  0.2047 -0.4135  0.9064
   18MOL   H21813172   2.334   5.034   7.566  0.8680 -0.3455 -0.5064
   18MOL   H21913173   2.507   5.207   7.537  0.6196  0.6233  0.6394
   18MOL   H22013174   2.360   5.286   7.480  1.6293  1.8693  0.3766
   18MOL   H22113175   2.492   5.341   0.035 -0.7511  1.5843  1.0496
   18MOL   H22213176   2.329   5.377   0.009  0.1634  0.3011  0.1185
   18MOL   H22313177   2.398   5.554   7.551 -0.2911 -0.6110  0.3022
   18MOL   H22413178   2.491   5.582   7.679  1.1297 -1.2200  1.6164
   18MOL   H22513179   2.669   5.404   7.572  1.2495 -0.5926 -2.8309
   18MOL   H22613180   2.574   5.426   7.429  0.8902 -2.3037 -0.1019
   18MOL   H22713181   2.773   5.588   7.426 -0.6462  0.4685  0.0299
   18MOL   H22813182   2.734   5.631   7.591  0.9111 -3.0477  1.1502
   18MOL   H22913183   2.570   5.771   7.535 -2.3776 -0.5333 -0.3509
   18MOL   C23013184   2.556   5.741   7.333 -0.2954 -0.0621  0.1346
   18MOL   O23113185   2.587   5.664   7.241  0.3132 -0.0560  0.1273
   18MOL   C23213186   2.477   5.872   7.303 -0.2668 -0.3379  0.2836
   18MOL   C23313187   2.340   5.830   7.248  0.5343 -0.5165  0.1827
   18MOL   C23413188   2.254   5.958   7.232  0.4732  1.3147  0.0770
   18MOL   C23513189   2.103   5.926   7.197  0.6911 -0.6275  0.3591
   18MOL   C23613190   2.026   5.879   7.320  0.3243 -0.6855 -0.6917
   18MOL   O23713191   2.015   5.952   7.418 -0.2802 -0.2014 -0.2493
   18MOL   N23813192   1.960   5.764   7.319  0.4088 -0.4737  0.4277
   18MOL   C23913193   1.875   5.718   7.428  0.5309  0.7680 -0.7129
   18MOL   C24013194   1.745   5.792   7.428 -0.3718 -0.2277  0.3547
   18MOL   C24113195   1.650   5.759   7.548 -0.0931  0.4637 -0.1700
   18MOL   C24213196   1.671   5.844   7.678 -0.3141 -0.0961  0.4450
   18MOL   C24313197   1.558   5.818   0.066  0.3110 -0.2757 -0.7084
   18MOL   C24413198   1.531   5.908   0.188 -1.5615 -0.0239 -0.8319
   18MOL   N24513199   1.424   5.860   0.263 -0.3078  0.1614  0.1444
   18MOL   H24613200   2.474   5.915   7.403  1.8334  0.8824 -0.1340
   18MOL   H24713201   2.531   5.936   7.234 -1.8931 -0.5843 -1.2295
   18MOL   H24813202   2.334   5.779   7.152  0.7280 -0.6562  0.2449
   18MOL   H24913203   2.293   5.761   7.318  0.3906  0.9864  1.5976
   18MOL   H25013204   2.295   6.015   7.149  0.9298  0.6882 -0.1282
   18MOL   H25113205   2.270   6.020   7.321 -0.0859  1.1102  0.3255
   18MOL   H25213206   2.105   5.857   7.113  2.1319 -0.7216  0.4581
   18MOL   H25313207   2.053   6.011   7.151 -1.4708 -2.5360 -0.9336
   18MOL   H25413208   1.971   5.708   7.236 -1.0651  1.3524 -1.0482
   18MOL   H25513209   1.866   5.610   7.435  1.5730  0.7484  0.5311
   18MOL   H25613210   1.920   5.743   7.524 -0.1950 -2.6059  0.5482
   18MOL   H25713211   1.747   5.898   7.403  1.0553 -0.7125 -1.6613
   18MOL   H25813212   1.695   5.743   7.344  0.6405  0.0902 -0.4440
   18MOL   H25913213   1.646   5.651   7.565  0.3745  0.0821 -2.3080
   18MOL   H26013214   1.550   5.784   7.512 -0.4617  0.5713  0.9149
   18MOL   H26113215   1.770   5.835   0.014 -0.6703 -0.0937  1.2494
   18MOL   H26213216   1.659   5.948   7.649 -1.2258 -0.1672  0.5328
   18MOL   H26313217   1.464   5.812   0.012  1.0364 -1.3571 -1.8584
   18MOL   H26413218   1.579   5.716   0.099 -2.8711 -0.0809  2.2175
   18MOL   H26513219   1.506   6.010   0.158  0.0986  0.3759 -0.9152
   18MOL   H26613220   1.621   5.901   0.250 -3.1912 -1.2312  1.4411
   18MOL   H26713221   1.347   5.827   0.207  0.3906 -1.0864 -0.1237
   18MOL   C26813222   1.416   5.875   0.396 -0.2042  0.1993  0.5370
   18MOL   O26913223   1.498   5.952   0.454 -0.4148  0.4654  0.2899
   18MOL   C27013224   1.304   5.798   0.476  0.3041 -0.2307 -0.0586
   18MOL   C27113225   1.235   5.877   0.587 -0.1367 -0.1974 -0.1423
   18MOL   C27213226   1.145   5.992   0.538 -0.1315  0.1755  0.1893
   18MOL   C27313227   1.204   6.125   0.476  0.7443  0.3524  0.2822
   18MOL   C27413228   1.279   6.210   0.585  0.2072 -0.2813 -0.4541
   18MOL   O27513229   1.215   6.251   0.682  0.5272  0.8834 -0.9476
   18MOL   N27613230   1.409   6.207   0.569  0.2794 -0.3920  0.0219
   18MOL   C27713231   1.502   6.262   0.664 -1.0165  0.4625  0.2390
   18MOL   C27813232   1.630   6.314   0.589 -0.4174  0.2618  0.0947
   18MOL   C27913233   1.695   6.213   0.493 -0.2031  0.9439  0.6215
   18MOL   C28013234   1.842   6.251   0.452 -0.2173 -0.5760 -0.2155
   18MOL   C28113235   1.902   6.143   0.363  0.3881  0.1554 -0.0561
   18MOL   C28213236   1.922   6.008   0.442 -0.0363 -0.1767  0.7654
   18MOL   N28313237   2.033   6.026   0.534 -0.1509 -0.5795  0.4379
   18MOL   H28413238   1.229   5.756   0.409 -2.2332 -2.0661  3.7461
   18MOL   H28513239   1.349   5.713   0.526  0.8705  0.7297  1.1110
   18MOL   H28613240   1.175   5.824   0.660 -1.5147  0.3995 -0.8298
   18MOL   H28713241   1.323   5.921   0.636 -0.2278  0.1561 -0.2892
   18MOL   H28813242   1.062   6.003   0.608  1.5742  0.4316  2.2031
   18MOL   H28913243   1.100   5.946   0.450 -2.2087 -2.8514  2.7424
   18MOL   H29013244   1.121   6.189   0.445 -2.1762 -2.6895  1.4558
   18MOL   H29113245   1.262   6.123   0.384  0.4828 -0.1973  0.1265
   18MOL   H29213246   1.451   6.166   0.487 -1.9106 -1.7831 -0.4382
   18MOL   H29313247   1.455   6.327   0.739 -0.7689 -0.0178  0.8055
   18MOL   H29413248   1.534   6.172   0.716  0.3838  1.8456  1.8207
   18MOL   H29513249   1.608   6.409   0.541  1.1583  1.0173  0.8342
   18MOL   H29613250   1.703   6.321   0.670  0.8892 -0.2066 -1.0354
   18MOL   H29713251   1.624   6.188   0.414 -1.1276  1.2214  1.3460
   18MOL   H29813252   1.700   6.121   0.550  2.2662  0.9134  0.3786
   18MOL   H29913253   1.854   6.342   0.394  2.0510 -0.1984  0.8127
   18MOL   H30013254   1.901   6.260   0.542 -0.6308 -2.3487  0.2653
   18MOL   H30113255   1.847   6.129   0.270  1.5074  1.8167 -0.9984
   18MOL   H30213256   1.996   6.174   0.317  0.5689 -0.3912 -0.0554
   18MOL   H30313257   1.943   5.931   0.367 -1.3249 -0.2501  0.4668
   18MOL   H30413258   1.834   5.970   0.494 -1.3876 -0.4439 -1.6281
   18MOL   H30513259   2.121   6.045   0.489 -2.4825  2.5658 -3.0882
   18MOL   C30613260   2.021   6.050   0.667  0.3198 -0.2996  0.0035
   18MOL   O30713261   1.914   6.062   0.726  0.2904 -0.1237 -0.0718
   18MOL   C30813262   2.154   6.054   0.747 -0.5067 -0.8178 -0.2842
   18MOL   C30913263   2.143   6.113   0.892 -0.5310  0.8393 -0.0304
   18MOL   C31013264   2.250   6.224   0.912 -0.6002 -0.6697  0.5371
   18MOL   C31113265   2.228   6.357   0.840 -0.6061  0.0619  0.6338
   18MOL   C31213266   2.326   6.473   0.881  0.6439 -0.0739 -0.0429
   18MOL   O31313267   2.413   6.462   0.965  0.2825 -0.0900 -0.3135
   18MOL   N31413268   2.301   6.587   0.822  0.2413  0.0558  0.1719
   18MOL   C31513269   2.395   6.698   0.816 -0.0164 -0.6028 -0.4410
   18MOL   C31613270   2.359   6.803   0.703 -0.6651 -0.6771 -0.7351
   18MOL   C31713271   2.441   6.928   0.724 -0.7908  0.0464 -0.0233
   18MOL   C31813272   2.427   7.030   0.612  0.1131  0.3077 -0.5588
   18MOL   C31913273   2.497   7.157   0.644 -0.0495  0.2107  0.2479
   18MOL   C32013274   2.476   7.262   0.534  0.2700 -0.5091  0.6575
   18MOL   N32113275   2.523   7.391   0.579 -0.4003 -0.5089 -0.0819
   18MOL   H32213276   2.200   5.956   0.760  0.0506 -0.8683 -2.4819
   18MOL   H32313277   2.229   6.099   0.682  0.1615 -1.4366  0.0483
   18MOL   H32413278   2.040   6.137   0.916 -0.7456 -0.5829  0.4730
   18MOL   H32513279   2.172   6.038   0.965 -1.3006 -1.0743 -1.6732
   18MOL   H32613280   2.346   6.179   0.886 -0.3179  0.9299 -1.2355
   18MOL   H32713281   2.257   6.254   1.017  0.6108  0.5488  0.1119
   18MOL   H32813282   2.121   6.373   0.854 -1.0965 -1.3983 -1.2061
   18MOL   H32913283   2.238   6.347   0.732  3.8974 -1.0958  1.0549
   18MOL   H33013284   2.233   6.588   0.747  1.9484 -0.2218 -1.4096
   18MOL   H33113285   2.392   6.740   0.916  0.7095 -0.4088 -0.4974
   18MOL   H33213286   2.493   6.657   0.791  0.0889  0.3754 -1.7065
   18MOL   H33313287   2.354   6.763   0.602 -0.4153 -1.0979 -0.5794
   18MOL   H33413288   2.257   6.838   0.722 -1.7992 -1.7371 -4.4003
   18MOL   H33513289   2.546   6.901   0.727 -1.1703 -1.4963  0.0084
   18MOL   H33613290   2.415   6.981   0.816  1.0404 -0.1546  0.6208
   18MOL   H33713291   2.453   6.997   0.511 -0.3272  1.0970 -0.9269
   18MOL   H33813292   2.320   7.048   0.603  0.0469  1.7424  2.5624
   18MOL   H33913293   2.485   7.190   0.747  0.1528 -0.1192  0.3776
   18MOL   H34013294   2.603   7.132   0.640 -0.3696 -0.9735 -1.5784
   18MOL   H34113295   2.372   7.283   0.510  0.6040 -1.0225 -1.3009
   18MOL   H34213296   2.510   7.231   0.436 -2.0148  0.7222 -0.5629
   18MOL   H34313297   2.555   7.393   0.675 -1.6611 -0.7561  0.3548
   18MOL   C34413298   2.539   7.499   0.507 -0.4775  0.4910 -0.0224
   18MOL   O34513299   2.507   7.507   0.389 -0.1921 -0.4417  0.1758
   18MOL   C34613300   2.597   7.629   0.570  0.2518 -0.3342 -0.4653
   18MOL   C34713301   2.679   0.002   0.472 -0.1392  0.9090  0.6429
   18MOL   C34813302   2.708   0.143   0.513 -0.7889  0.2477 -0.2562
   18MOL   C34913303   2.768   0.158   0.656 -0.2889 -0.1978 -0.6311
   18MOL   C35013304   2.920   0.172   0.663  0.2162  0.4667 -0.9109
   18MOL   O35113305   2.987   0.133   0.565  0.1646  0.6983 -0.4161
   18MOL   N35213306   2.972   0.225   0.777 -0.4332  0.8356 -0.0178
   18MOL   C35313307   3.110   0.279   0.775 -0.2465 -0.7351 -0.3954
   18MOL   C35413308   3.222   0.174   0.807  0.6307 -0.5387  0.6295
   18MOL   C35513309   3.213   0.107   0.949  0.2107 -0.1740 -0.6997
   18MOL   C35613310   3.281   7.679   0.953  0.0678 -0.1125 -0.0293
   18MOL   C35713311   3.196   7.564   0.895 -0.2506 -0.2520 -0.5297
   18MOL   C35813312   3.267   7.421   0.911 -0.1699  0.0263  0.4075
   18MOL   N35913313   3.186   7.315   0.854  0.4883  0.7505 -0.2221
   18MOL   H36013314   2.521   7.697   0.610  0.1875 -1.2029  0.9468
   18MOL   H36113315   2.671   7.605   0.646  0.1011 -0.0252 -0.2168
   18MOL   H36213316   2.771   7.659   0.445 -1.3242 -0.6525 -0.5513
   18MOL   H36313317   2.623   0.013   0.379 -1.9478 -2.0117  1.3430
   18MOL   H36413318   2.615   0.200   0.505 -0.8465  0.0526 -1.0262
   18MOL   H36513319   2.767   0.184   0.431 -0.0949 -1.9492 -0.8867
   18MOL   H36613320   2.736   0.077   0.721 -1.8239  0.2704 -0.7807
   18MOL   H36713321   2.723   0.247   0.700 -0.5959 -0.0636 -1.2006
   18MOL   H36813322   2.923   0.266   0.855 -0.5897 -1.4629  1.1048
   18MOL   H36913323   3.122   0.330   0.680  1.4821  0.0602  0.2283
   18MOL   H37013324   3.115   0.354   0.854 -1.0894  0.4869 -1.4769
   18MOL   H37113325   3.212   0.091   0.736 -1.8912  1.3044 -1.3134
   18MOL   H37213326   3.321   0.210   0.781  0.7380  2.2332  4.4754
   18MOL   H37313327   3.109   0.092   0.978 -0.2006 -0.0853 -2.1378
   18MOL   H37413328   3.256   0.170   1.027 -1.2902  0.8372 -0.6640
   18MOL   H37513329   3.376   7.680   0.901  0.2567 -1.8316  0.2505
   18MOL   H37613330   3.308   7.654   1.056  0.5796 -2.1303 -0.6352
   18MOL   H37713331   3.092   7.562   0.926  0.5322 -0.0483  2.2878
   18MOL   H37813332   3.189   7.580   0.788 -2.9928 -2.5724 -0.7464
   18MOL   H37913333   3.286   7.390   1.014 -0.3992 -2.9246 -0.3978
   18MOL   H38013334   3.367   7.423   0.868 -0.4518 -1.1286 -0.3307
   18MOL   H38113335   3.121   7.274   0.920 -0.1241 -0.9414 -1.8179
   18MOL   C38213336   3.178   7.285   0.724 -0.5146 -0.0110  0.6545
   18MOL   O38313337   3.244   7.342   0.642 -0.2530 -0.6582  0.0634
   18MOL   C38413338   3.104   7.154   0.685  0.2562  0.6971  0.4665
   18MOL   C38513339   2.970   7.168   0.604 -0.0089 -0.0415 -0.0190
   18MOL   C38613340   2.978   7.241   0.468  0.4557  0.5354  0.3558
   18MOL   C38713341   2.845   7.276   0.402  0.7819  0.1236  0.3944
   18MOL   C38813342   2.789   7.164   0.311  0.0055  0.0548  0.8711
   18MOL   O38913343   2.726   7.070   0.356 -0.3191 -0.3616 -0.0771
   18MOL   N39013344   2.819   7.160   0.180 -0.3118  0.3088 -0.5914
   18MOL   C39113345   2.798   7.046   0.093 -0.2250  0.4002  0.6632
   18MOL   C39213346   2.751   7.102   7.664  1.0766 -0.4123 -0.3290
   18MOL   C39313347   2.730   6.994   7.551 -0.2142  0.1477  0.3319
   18MOL   C39413348   2.710   7.060   7.414  0.3083  0.1304  0.2980
   18MOL   C39513349   2.710   6.965   7.301 -0.2349 -0.2666 -0.1107
   18MOL   C39613350   2.711   7.023   7.160  0.5142 -0.3564 -0.4099
   18MOL   N39713351   2.589   7.105   7.126 -0.4158 -0.5728 -0.0216
   18MOL   H39813352   3.174   7.089   0.633 -1.3559 -1.3581  0.8055
   18MOL   H39913353   3.073   7.092   0.769 -2.8419  0.8238 -0.5276
   18MOL   H40013354   2.931   7.068   0.584 -3.3776  0.9109  1.3546
   18MOL   H40113355   2.892   7.221   0.659  0.0065  0.2778 -0.3012
   18MOL   H40213356   3.040   7.186   0.398 -2.6635 -2.9018  0.1529
   18MOL   H40313357   3.019   7.341   0.482  0.3070  0.7431 -0.6802
   18MOL   H40413358   2.856   7.365   0.340  1.3797 -2.3994 -3.3098
   18MOL   H40513359   2.776   7.302   0.482  0.5869 -1.3247  0.7080
   18MOL   H40613360   2.884   7.226   0.140  1.2758 -1.5453 -1.1384
   18MOL   H40713361   2.897   7.002   0.085  0.2358  1.7299 -1.3424
   18MOL   H40813362   2.727   6.978   0.139 -0.4093  0.9542  1.2148
   18MOL   H40913363   2.653   7.148   7.675  0.3463 -2.5156  2.8136
   18MOL   H41013364   2.813   7.177   7.615 -0.6147 -0.6463 -2.9034
   18MOL   H41113365   2.648   6.925   7.575 -0.6749  0.1413 -1.1977
   18MOL   H41213366   2.814   6.924   7.548 -1.1338 -0.9578 -0.2937
   18MOL   H41313367   2.613   7.108   7.407  1.3233  2.3462  0.8887
   18MOL   H41413368   2.791   7.130   7.394  2.6978 -2.2158  1.4923
   18MOL   H41513369   2.806   6.914   7.308 -0.0344  0.0633 -0.4712
   18MOL   H41613370   2.626   6.895   7.306 -0.3694 -0.1353 -0.5515
   18MOL   H41713371   2.711   6.946   7.082 -3.8584 -1.0110  0.1177
   18MOL   H41813372   2.802   7.079   7.138 -0.4257  2.9193  3.4445
   18MOL   H41913373   2.514   7.103   7.194 -0.8629  2.6599 -0.3368
   18MOL   C42013374   2.561   7.159   7.007  0.6662 -0.2085  0.4369
   18MOL   O42113375   2.629   7.155   6.906 -0.1918  0.7708  0.4322
   18MOL   C42213376   2.427   7.232   6.994  0.2555 -0.1946 -0.8280
   18MOL   C42313377   2.433   7.374   6.932  0.4350 -0.7665  0.5550
   18MOL   C42413378   2.510   7.473   7.029  0.5181 -0.0830  0.3838
   18MOL   C42513379   2.420   7.513   7.146  0.5366 -0.1680 -0.0863
   18MOL   C42613380   2.454   7.449   7.278  0.3686 -0.3540 -0.1345
   18MOL   O42713381   2.380   7.363   7.324 -0.4857 -0.0903  0.2596
   18MOL   N42813382   2.567   7.498   7.333 -0.3355  1.1749 -0.1694
   18MOL   C42913383   2.634   7.452   7.453  0.7106  0.2262  0.0819
   18MOL   C43013384   2.676   7.572   7.540 -0.1666 -0.2381  0.1061
   18MOL   C43113385   2.768   7.524   7.658 -0.2090  0.3325  0.0950
   18MOL   C43213386   2.821   7.646   0.029  0.1337  1.0144  0.1022
   18MOL   C43313387   2.936   7.612   0.132 -0.5638 -0.1192  0.2472
   18MOL   C43413388   2.991   0.031   0.191 -0.5114 -0.1636  0.0566
   18MOL   N43513389   3.075   0.001   0.312  0.3485  0.7154  0.5967
   18MOL   H43613390   2.367   7.170   6.928 -0.2138  0.0330 -0.6230
   18MOL   H43713391   2.383   7.234   7.094  3.7249 -0.6259  0.7893
   18MOL   H43813392   2.489   7.371   6.838  1.1436  0.0755  0.9450
   18MOL   H43913393   2.336   7.413   6.900  0.5384 -1.3354 -0.4807
   18MOL   H44013394   2.549   7.558   6.973 -2.4849  0.9781 -0.1998
   18MOL   H44113395   2.604   7.432   7.067 -0.4321 -1.9093  0.8511
   18MOL   H44213396   2.313   7.509   7.122  1.0758 -2.8601 -2.1829
   18MOL   H44313397   2.431   7.621   7.162 -1.5130 -0.2010  1.8302
   18MOL   H44413398   2.607   7.582   7.294 -1.5574  1.1545 -1.5112
   18MOL   H44513399   2.591   7.367   7.504  0.3714  1.0640  1.2056
   18MOL   H44613400   2.730   7.411   7.421  0.3082 -1.6353  1.2440
   18MOL   H44713401   2.724   7.650   7.481 -1.4761 -0.4249 -1.2540
   18MOL   H44813402   2.589   7.619   7.586 -0.9765 -2.1665  0.5846
   18MOL   H44913403   2.855   7.481   7.608  0.1996  1.5708 -0.2776
   18MOL   H45013404   2.710   7.456   0.012 -0.6974  0.0697 -0.6291
   18MOL   H45113405   2.867   0.004   7.664  1.7466  1.2224  1.2917
   18MOL   H45213406   2.746   7.693   0.093 -1.8144 -0.1830 -1.2454
   18MOL   H45313407   2.885   7.545   0.201 -0.3834 -0.5703 -0.0520
   18MOL   H45413408   3.014   7.541   0.104 -1.1996 -0.9763  0.6426
   18MOL   H45513409   2.912   0.100   0.220 -1.3702  0.1787 -2.9278
   18MOL   H45613410   3.045   0.090   0.117 -2.3612  1.2063 -0.2369
   18MOL   H45713411   3.033   0.032   0.398  0.4071  0.7484  0.6130
   18MOL   C45813412   3.204   7.664   0.311  0.4907 -0.4258  0.1863
   18MOL   O45913413   3.260   7.639   0.206 -0.2257 -0.3410  0.0851
   18MOL   C46013414   3.257   7.634   0.452  0.1808  0.7568  0.3048
   18MOL   C46113415   3.408   7.614   0.445  0.0365 -0.2704 -0.5107
   18MOL   C46213416   3.474   7.584   0.580 -0.4557  0.9298 -0.4265
   18MOL   C46313417   3.624   7.555   0.566  0.2543  0.4258  0.5550
   18MOL   C46413418   3.688   7.498   0.692  0.1855  0.5736 -0.2793
   18MOL   O46513419   3.618   7.454   0.782 -0.0608 -0.1938 -0.1141
   18MOL   N46613420   3.820   7.505   0.698  0.2894 -0.1729 -0.1671
   18MOL   C46713421   3.892   7.447   0.808  0.1074  0.5832  0.2813
   18MOL   C46813422   4.030   7.509   0.833 -0.2991 -0.1586 -0.7683
   18MOL   C46913423   4.065   7.498   0.974  0.5347  0.6265 -0.0522
   18MOL   C47013424   4.071   7.347   1.019 -0.1376 -0.0237 -0.2316
   18MOL   C47113425   4.113   7.341   1.167 -1.0051  0.3368 -0.2543
   18MOL   C47213426   4.117   7.199   1.229 -0.6046 -0.2916 -0.5003
   18MOL   N47313427   4.174   7.181   1.358  0.3142 -0.8041 -0.4270
   18MOL   H47413428   3.233   7.705   0.532  0.6131  1.4841 -0.1991
   18MOL   H47513429   3.217   7.540   0.489  0.8343 -0.0767 -1.0593
   18MOL   H47613430   3.427   7.525   0.385  2.1478 -0.5639  0.5263
   18MOL   H47713431   3.451   7.701   0.395  0.7918 -0.0693  0.4684
   18MOL   H47813432   3.419   7.504   0.630 -0.1482  1.8267  1.3917
   18MOL   H47913433   3.455   7.676   0.636 -1.5636  0.4839 -0.0605
   18MOL   H48013434   3.665   7.651   0.533  0.3766  0.8043  1.7828
   18MOL   H48113435   3.625   7.476   0.491 -0.4970  1.1651 -0.2418
   18MOL   H48213436   3.859   7.567   0.629 -1.2647 -0.2306 -1.1193
   18MOL   H48313437   3.831   7.461   0.898  1.7708 -2.0685  1.8941
   18MOL   H48413438   3.893   7.339   0.800 -0.8123  0.6267 -0.4759
   18MOL   H48513439   4.107   7.468   0.768  1.4052 -1.5953  2.0086
   18MOL   H48613440   4.024   7.615   0.810 -1.2443  0.0797  0.5535
   18MOL   H48713441   3.999   7.557   1.037 -0.6598 -0.3207 -0.3939
   18MOL   H48813442   4.164   7.540   0.993  0.8228 -0.2176  0.3318
   18MOL   H48913443   3.979   7.292   1.000  0.3052 -0.2426 -1.7652
   18MOL   H49013444   4.143   7.282   0.970  0.6813 -0.3491  1.3554
   18MOL   H49113445   4.208   7.388   1.190 -0.8101  1.1208 -2.5158
   18MOL   H49213446   4.038   7.398   1.222 -1.4186 -0.1851 -0.2802
   18MOL   H49313447   4.178   7.150   1.153  1.1571  2.0699 -0.6697
   18MOL   H49413448   4.022   7.148   1.214  0.1534 -1.0145 -3.2270
   18MOL   H49513449   4.272   7.196   1.375 -0.1459  0.5350  1.1343
   18MOL   C49613450   4.104   7.190   1.468  0.0240  0.1907 -0.3990
   18MOL   O49713451   3.983   7.199   1.467  0.2976  0.0143 -0.3648
   18MOL   C49813452   4.185   7.183   1.595 -0.0505 -0.2910 -0.0757
   18MOL   C49913453   4.123   7.233   1.728  0.0962 -0.9901  0.1978
   18MOL   C50013454   4.217   7.210   1.843  0.7906  0.3973  0.0326
   18MOL   C50113455   4.143   7.254   1.979 -0.8074 -0.0609  0.4197
   18MOL   C50213456   4.228   7.234   2.106 -1.0089 -0.3541  0.1278
   18MOL   O50313457   4.346   7.191   2.100  0.1852  0.5042  0.0283
   18MOL   N50413458   4.164   7.275   2.218  0.4702 -0.2685 -0.2398
   18MOL   C50513459   4.207   7.232   2.350 -0.3935 -0.1491 -0.0309
   18MOL   C50613460   4.195   7.077   2.379 -0.6182  0.1205  0.5158
   18MOL   C50713461   4.064   7.005   2.319 -0.1902  0.0932  0.0017
   18MOL   C50813462   3.943   7.047   2.397 -0.0245  0.5000  0.8044
   18MOL   C50913463   3.805   7.007   2.331 -0.4435 -0.2830  0.1997
   18MOL   C51013464   3.790   7.059   2.186 -0.6718  0.5391  0.0433
   18MOL   N51113465   3.808   6.961   2.085  0.2307 -0.5467 -0.3278
   18MOL   H51213466   4.228   7.083   1.602  1.5555  0.3089 -1.1855
   18MOL   H51313467   4.270   7.249   1.581  0.1668 -0.9641 -2.1922
   18MOL   H51413468   4.109   7.341   1.733 -0.0375 -1.0018  0.0571
   18MOL   H51513469   4.025   7.190   1.748 -0.1963  0.7539  2.8518
   18MOL   H51613470   4.315   7.255   1.826  0.3734  0.2881 -2.9461
   18MOL   H51713471   4.220   7.101   1.849 -1.8219  0.3182  0.3986
   18MOL   H51813472   4.053   7.194   1.991  0.1240 -1.2358  1.6087
   18MOL   H51913473   4.111   7.358   1.966 -0.3481 -0.2325 -2.3445
   18MOL   H52013474   4.066   7.298   2.212 -0.2153 -2.7408  0.6590
   18MOL   H52113475   4.305   7.279   2.363 -0.4492  0.0889 -0.4904
   18MOL   H52213476   4.147   7.279   2.427  0.8523 -0.4968  1.1817
   18MOL   H52313477   4.281   7.027   2.334 -0.4715  1.5860 -0.8835
   18MOL   H52413478   4.203   7.052   2.485 -2.2962 -1.0072  0.3942
   18MOL   H52513479   4.082   6.898   2.321 -0.6351 -0.0488 -2.0759
   18MOL   H52613480   4.050   7.034   2.214  1.6470 -1.0625 -0.5928
   18MOL   H52713481   3.952   7.004   2.497  1.2918  0.8651  0.8527
   18MOL   H52813482   3.943   7.154   2.422  2.0855  0.9217 -0.8089
   18MOL   H52913483   3.790   6.899   2.325 -0.0881 -0.2938 -0.5228
   18MOL   H53013484   3.721   7.048   2.388 -1.9192 -0.7204 -1.6208
   18MOL   H53113485   3.855   7.146   2.176 -1.7178  1.4681  1.0986
   18MOL   H53213486   3.691   7.103   2.173 -0.7282  0.0984 -1.0374
   18MOL   H53313487   3.828   6.865   2.108  2.9691  0.1197  0.1773
   18MOL   C53413488   3.824   6.994   1.958  0.8487 -0.3785  0.1301
   18MOL   O53513489   3.830   7.112   1.918  0.1600  0.3890 -0.6993
   18MOL   C53613490   3.827   6.876   1.862 -0.4727 -0.1109 -0.1126
   18MOL   C53713491   3.877   6.909   1.719 -0.1548  0.6185  0.3661
   18MOL   C53813492   3.773   6.977   1.630 -0.6301  0.4160 -0.0231
   18MOL   C53913493   3.772   6.918   1.480 -0.1799 -0.1929 -0.3814
   18MOL   C54013494   3.689   7.009   1.393  0.3604  0.5400  0.6047
   18MOL   O54113495   3.570   6.987   1.366  0.4556 -0.1462 -0.0444
   18MOL   N54213496   3.743   7.126   1.348 -0.1918 -0.4159  0.1627
   18MOL   C54313497   3.662   7.236   1.281  0.6501 -1.0312  0.2133
   18MOL   C54413498   3.720   7.379   1.269 -0.0779 -0.0053 -0.0213
   18MOL   C54513499   3.659   7.465   1.159  0.2217 -0.4907  0.4125
   18MOL   C54613500   3.587   7.592   1.216 -0.2489  0.5795  0.3450
   18MOL   C54713501   3.483   7.570   1.324 -0.6311 -0.8295 -0.3969
   18MOL   C54813502   3.446   7.698   1.392 -0.4349 -0.8718 -0.0716
   18MOL   N54913503   3.336   7.666   1.487 -0.5207  0.2720 -0.2436
   18MOL   H55013504   3.891   6.803   1.911 -0.7445  0.6530  1.4232
   18MOL   H55113505   3.731   6.823   1.863 -0.4225 -0.1967  0.1752
   18MOL   H55213506   3.966   6.970   1.730  2.1461 -2.8868  1.9177
   18MOL   H55313507   3.916   6.819   1.671 -0.1744 -0.4169  2.2348
   18MOL   H55413508   3.786   7.085   1.633  1.1186  0.2655 -1.2019
   18MOL   H55513509   3.675   6.955   1.671 -0.6400  1.0591  0.2901
   18MOL   H55613510   3.756   6.810   1.475 -1.7363  0.0373 -0.5288
   18MOL   H55713511   3.877   6.928   1.452 -0.4742  2.4809 -0.7052
   18MOL   H55813512   3.829   7.154   1.392 -0.9950  1.6215  0.5089
   18MOL   H55913513   3.649   7.206   1.177  0.1768  1.8945 -0.6209
   18MOL   H56013514   3.562   7.249   1.323  0.9795 -2.3595  1.4388
   18MOL   H56113515   3.710   7.434   1.362  1.0729 -0.4204  0.3493
   18MOL   H56213516   3.828   7.374   1.254 -0.4347 -3.1550 -2.0196
   18MOL   H56313517   3.597   7.399   1.097  0.6501  0.0548 -0.5953
   18MOL   H56413518   3.736   7.487   1.086 -0.3406  0.4772  0.1101
   18MOL   H56513519   3.656   7.667   1.255 -0.6281  0.5223  1.1340
   18MOL   H56613520   3.536   7.639   1.132  0.9337  1.3319  0.0300
   18MOL   H56713521   3.396   7.516   1.286  0.7157 -2.0116 -1.9111
   18MOL   H56813522   3.524   7.503   1.400  1.9212 -0.4603 -1.3837
   18MOL   H56913523   3.423   0.067   1.319 -1.5999 -0.3993  0.7768
   18MOL   H57013524   3.528   0.032   1.451 -2.4186  1.1559  1.3144
   18MOL   H57113525   3.313   7.569   1.502 -2.3532  0.8592  0.9056
   18MOL   C57213526   3.296   0.047   1.580 -0.6715 -0.7746  0.3152
   18MOL   O57313527   3.316   0.170   1.559  0.2655 -0.4628  0.1986
   18MOL   C57413528   3.223   7.704   1.702  0.2546  0.5688 -0.0185
   18MOL   C57513529   3.204   0.110   1.807 -0.5237 -0.3348  0.2104
   18MOL   C57613530   3.140   0.049   1.936 -0.1013 -0.2380  0.0552
   18MOL   C57713531   3.142   0.155   2.051 -0.1344  0.8601 -0.9882
   18MOL   C57813532   3.055   0.098   2.165 -0.5325  0.1070 -0.1735
   18MOL   O57913533   3.022   7.686   2.173 -0.2663  0.2599 -0.1854
   18MOL   N58013534   3.029   0.171   2.275  0.4407  0.0311  0.4352
   18MOL   C58113535   2.927   0.140   2.375 -0.1391 -0.7314 -0.3576
   18MOL   C58213536   2.804   0.237   2.354 -0.4391  0.3812 -0.1547
   18MOL   C58313537   2.701   0.213   2.468  0.1998  0.7409 -0.2617
   18MOL   C58413538   2.579   0.303   2.459 -0.4384 -0.5887 -0.0613
   18MOL   C58513539   2.448   0.248   2.524 -0.3457 -0.4546  0.1731
   18MOL   C58613540   2.325   0.351   2.522 -0.1222  0.0609  0.7000
   18MOL   N58713541   2.347   0.449   2.625  0.2950 -0.0466  0.1622
   18MOL   H58813542   3.129   7.658   1.674  0.6084 -0.5841  0.6212
   18MOL   H58913543   3.284   7.623   1.744 -0.7053 -0.7177 -1.0530
   18MOL   H59013544   3.296   0.160   1.837 -0.4757  0.9753 -2.0020
   18MOL   H59113545   3.132   0.182   1.769 -0.0061 -0.5409 -1.1852
   18MOL   H59213546   3.189   7.667   1.973 -0.3425 -0.0848  0.7464
   18MOL   H59313547   3.042   0.011   1.909 -0.5187 -0.7822  2.2342
   18MOL   H59413548   3.097   0.249   2.017  1.7139  1.0004 -3.2116
   18MOL   H59513549   3.245   0.173   2.082 -0.4792  1.5014 -0.1915
   18MOL   H59613550   3.076   0.260   2.273  1.2735 -0.4172 -0.1584
   18MOL   H59713551   2.893   0.037   2.367 -0.3070 -0.7291  0.3272
   18MOL   H59813552   2.968   0.157   2.474  1.2487 -2.2656 -0.6521
   18MOL   H59913553   2.829   0.343   2.353  2.5271 -0.2628  0.9292
   18MOL   H60013554   2.767   0.224   2.252  2.5979  0.1106 -1.2644
   18MOL   H60113555   2.746   0.224   2.567 -0.4406 -1.3686  0.2722
   18MOL   H60213556   2.658   0.114   2.457  0.4316  0.9007 -2.7441
   18MOL   H60313557   2.596   0.403   2.500  1.5311 -0.3438 -1.4318
   18MOL   H60413558   2.562   0.330   2.355  1.6000 -2.1684 -0.8103
   18MOL   H60513559   2.430   0.163   2.458  0.3234 -1.1361  0.8425
   18MOL   H60613560   2.465   0.197   2.619  1.0810  0.4438  0.4144
   18MOL   H60713561   2.229   0.304   2.546  0.3502 -0.7725  1.0013
   18MOL   H60813562   2.320   0.402   2.426 -1.5803  0.9072  1.2073
   18MOL   H60913563   2.366   0.411   2.717 -0.2730 -0.1531  0.2371
   18MOL   C61013564   2.343   0.583   2.621 -0.3830  1.0369  0.5969
   18MOL   O61113565   2.313   0.648   2.520 -0.6985 -0.0357 -0.7171
   18MOL   C61213566   2.365   0.651   2.749  0.3632 -0.0697 -0.7238
   18MOL   C61313567   2.500   0.723   2.766  0.2457 -0.8337  0.4743
   18MOL   C61413568   2.616   0.625   2.801 -0.4161 -0.7702 -0.1966
   18MOL   C61513569   2.740   0.705   2.854  0.2324  0.2468  0.2153
   18MOL   C61613570   2.831   0.778   2.753  0.3184  0.2565  0.2055
   18MOL   O61713571   2.821   0.768   2.629 -0.0165 -0.1462 -0.2980
   18MOL   N61813572   2.925   0.858   2.810  0.5045  0.0519 -0.5375
   18MOL   C61913573   3.025   0.938   2.738  0.3132 -0.1423  0.0581
   18MOL   C62013574   3.091   1.038   2.827 -0.6313 -0.3570 -0.5172
   18MOL   C62113575   3.216   1.095   2.755 -0.3518  0.3404 -0.3966
   18MOL   C62213576   3.290   1.196   2.843 -1.2748  0.8929  0.1211
   18MOL   C62313577   3.440   1.212   2.806  0.3814  0.6170 -0.1355
   18MOL   C62413578   3.460   1.267   2.665  0.1335  0.0813 -0.3865
   18MOL   N62513579   3.605   1.249   2.641  0.2733 -0.0404 -0.5873
   18MOL   H62613580   2.297   0.736   2.760  0.7612  0.4045 -1.8317
   18MOL   H62713581   2.342   0.591   2.837 -1.3976 -0.4193 -1.3946
   18MOL   H62813582   2.518   0.774   2.672  0.2440  1.7698  1.8626
   18MOL   H62913583   2.491   0.793   2.849  3.7764 -0.4961  0.6458
   18MOL   H63013584   2.630   0.566   2.711  0.6028 -1.7694  0.6030
   18MOL   H63113585   2.592   0.547   2.873  1.0772  0.2601  1.4563
   18MOL   H63213586   2.808   0.643   2.912  0.3002  0.5394  0.4503
   18MOL   H63313587   2.719   0.774   2.936  0.0580 -0.0881  0.4530
   18MOL   H63413588   2.915   0.878   2.909  0.8422 -0.1014 -0.4689
   18MOL   H63513589   3.090   0.867   2.688 -1.8242  1.4242 -5.2463
   18MOL   H63613590   2.969   0.981   2.655 -0.5013  0.2860  0.8227
   18MOL   H63713591   3.023   1.121   2.848 -0.0108 -0.0367  0.2550
   18MOL   H63813592   3.119   0.990   2.920  2.3527 -0.6871 -1.5124
   18MOL   H63913593   3.177   1.138   2.662  1.3353 -2.2197 -2.3655
   18MOL   H64013594   3.277   1.008   2.732  2.4525  2.5340 -1.5731
   18MOL   H64113595   3.243   1.294   2.826 -1.0866  0.2510 -4.7240
   18MOL   H64213596   3.289   1.152   2.943  1.8679  3.1996  1.2377
   18MOL   H64313597   3.482   1.273   2.886 -0.4830 -1.8079  2.2190
   18MOL   H64413598   3.468   1.108   2.816 -0.2368  0.6594  2.2908
   18MOL   H64513599   3.425   1.370   2.668  0.0235  0.0097  3.1138
   18MOL   H64613600   3.401   1.220   2.586  0.9172  1.0236 -1.5421
   18MOL   H64713601   3.664   1.321   2.682  2.1238 -0.1215 -3.0154
   18MOL   C64813602   3.661   1.142   2.584  0.2359 -0.3358  0.3852
   18MOL   O64913603   3.599   1.043   2.545 -0.4955 -0.5255  0.0503
   18MOL   C65013604   3.816   1.130   2.581  0.1488 -0.5897  0.0125
   18MOL   C65113605   3.859   1.041   2.462 -0.1841 -0.0029 -0.0785
   18MOL   C65213606   4.014   1.012   2.459  0.0011 -0.0364 -1.2880
   18MOL   C65313607   4.071   0.960   2.325 -0.9310 -0.3528  0.7885
   18MOL   C65413608   4.067   1.068   2.216  0.0019  0.2692  0.1339
   18MOL   O65513609   3.973   1.068   2.136  0.9485 -0.0883  0.2174
   18MOL   N65613610   4.170   1.150   2.213 -0.1034 -0.1914 -0.2966
   18MOL   C65713611   4.194   1.243   2.108 -0.1203  0.2763 -0.2675
   18MOL   C65813612   4.106   1.370   2.125  0.1957 -0.1471  0.0343
   18MOL   C65913613   4.149   1.475   2.028 -0.3062  0.3643 -0.2508
   18MOL   C66013614   4.046   1.597   2.023 -0.1621 -0.1983 -0.1039
   18MOL   C66113615   4.065   1.684   1.899 -0.0020  0.3702  0.6823
   18MOL   C66213616   3.993   1.819   1.916 -0.4568 -0.2788  0.0726
   18MOL   N66313617   3.854   1.806   1.960 -0.2700 -0.1139  0.0305
   18MOL   H66413618   3.857   1.231   2.583 -1.9135  0.2527  1.4083
   18MOL   H66513619   3.847   1.080   2.672 -2.6333 -2.1290  0.1533
   18MOL   H66613620   3.814   0.944   2.480  0.2884 -0.0243  1.0834
   18MOL   H66713621   3.824   1.086   2.369 -0.2157  0.4135  0.1323
   18MOL   H66813622   4.053   0.944   2.534  0.8551  1.3140 -0.4946
   18MOL   H66913623   4.058   1.108   2.483 -4.1887  2.0819 -1.6151
   18MOL   H67013624   4.020   0.873   2.283  0.3054 -0.6660 -0.1131
   18MOL   H67113625   4.177   0.936   2.335 -1.2474 -2.5496 -0.7835
   18MOL   H67213626   4.242   1.130   2.280  0.2305 -2.5906 -1.3387
   18MOL   H67313627   4.302   1.256   2.112 -0.2083  0.8963  0.1606
   18MOL   H67413628   4.182   1.202   2.007  2.4567 -0.2950 -0.3794
   18MOL   H67513629   4.000   1.348   2.109  0.2406 -1.3613  1.2827
   18MOL   H67613630   4.125   1.411   2.224  0.4765  1.4361 -0.6490
   18MOL   H67713631   4.147   1.429   1.929 -0.1312 -0.6267  0.1987
   18MOL   H67813632   4.250   1.515   2.038  0.6785 -2.2051  0.6161
   18MOL   H67913633   3.949   1.548   2.023  0.6339 -1.8321 -0.7858
   18MOL   H68013634   4.065   1.662   2.108 -0.0935  0.9161 -0.9675
   18MOL   H68113635   4.167   1.696   1.862 -0.6250  0.0944 -1.2211
   18MOL   H68213636   4.018   1.641   1.810 -1.6831  2.5221  0.4691
   18MOL   H68313637   4.007   1.857   1.815 -0.4914 -0.2701  0.0710
   18MOL   H68413638   4.043   1.892   1.980  0.9233 -0.9943 -0.1686
   18MOL   H68513639   3.840   1.802   2.060  2.0915  2.3884  0.5499
   18MOL   C68613640   3.756   1.772   1.878  0.2023 -0.6950  0.0501
   18MOL   O68713641   3.764   1.772   1.760 -0.2998  0.3730 -0.4058
   18MOL   C68813642   3.616   1.757   1.941  0.3085  0.5170 -0.4465
   18MOL   C68913643   3.560   1.615   1.930  1.2345 -0.2092 -0.2571
   18MOL   C69013644   3.488   1.576   1.798 -0.3879  0.3008  1.0563
   18MOL   C69113645   3.368   1.675   1.763 -0.0280  0.5014  1.2114
   18MOL   C69213646   3.260   1.609   1.679  0.4702  0.2138 -0.2842
   18MOL   O69313647   3.216   1.501   1.722  0.4947 -0.2883  0.4680
   18MOL   N69413648   3.223   1.668   1.566  0.0249  0.4717  0.1415
   18MOL   C69513649   3.135   1.623   1.463 -0.6266  0.2473  1.0391
   18MOL   C69613650   3.181   1.663   1.322 -0.6466  0.0698  0.6163
   18MOL   C69713651   3.178   1.813   1.293 -0.3888  0.1701  0.4580
   18MOL   C69813652   3.234   1.848   1.155 -0.5948  0.3662 -0.2555
   18MOL   C69913653   3.240   1.995   1.116 -0.0559  0.2761 -0.2171
   18MOL   C70013654   3.294   2.031   0.977 -0.4367 -0.1812 -0.8756
   18MOL   N70113655   3.206   1.982   0.871  0.1192  0.7588 -0.4335
   18MOL   H70213656   3.622   1.775   2.049  1.1124  0.3496 -0.4631
   18MOL   H70313657   3.534   1.823   1.910  0.2096  0.2536 -0.7469
   18MOL   H70413658   3.640   1.545   1.954  0.1613 -1.0198  1.0733
   18MOL   H70513659   3.494   1.593   2.014 -0.7949 -1.1454 -2.0352
   18MOL   H70613660   3.458   1.471   1.805  3.2302 -0.8564  0.5918
   18MOL   H70713661   3.542   1.586   1.703 -0.2502 -1.9983  0.8571
   18MOL   H70813662   3.398   1.768   1.715  0.6647  0.0594  0.7749
   18MOL   H70913663   3.324   1.711   1.856 -1.6463 -0.1885  0.7214
   18MOL   H71013664   3.253   1.763   1.553  3.0637 -0.5135 -0.5608
   18MOL   H71113665   3.125   1.514   1.468 -1.1503  0.4027  3.9387
   18MOL   H71213666   3.036   1.665   1.478 -0.2062  1.8398 -0.5561
   18MOL   H71313667   3.285   1.633   1.309 -0.2588  1.7494 -0.3174
   18MOL   H71413668   3.119   1.618   1.245 -0.3748  0.2708  0.2810
   18MOL   H71513669   3.237   1.867   1.367 -0.2822  1.8580 -0.8375
   18MOL   H71613670   3.079   1.856   1.308 -1.4227 -2.1490  0.5458
   18MOL   H71713671   3.323   1.793   1.125 -0.0033  1.0872  0.1717
   18MOL   H71813672   3.160   1.805   1.087 -0.6259 -0.7194  0.4684
   18MOL   H71913673   3.140   2.037   1.124  0.7419  2.2364 -0.2507
   18MOL   H72013674   3.292   2.042   1.200 -2.8680 -0.5639  2.0773
   18MOL   H72113675   3.390   1.980   0.969 -0.0640  0.1727  1.1782
   18MOL   H72213676   3.321   2.136   0.962 -2.7675  0.7029  0.9533
   18MOL   H72313677   3.230   1.896   0.825  0.5195  1.4007 -1.4576
   18MOL   C72413678   3.107   2.051   0.820 -0.0592 -0.0885  0.3533
   18MOL   O72513679   3.083   2.166   0.860  0.4957 -0.1725 -0.0479
   18MOL   C72613680   3.025   1.987   0.702 -0.0810 -0.0872 -0.2463
   18MOL   C72713681   2.996   2.097   0.594  0.4587  0.9883 -0.2235
   18MOL   C72813682   2.877   2.070   0.517  0.0219  0.6163  0.4276
   18MOL   C72913683   2.741   2.081   0.587 -0.6574 -0.1158  0.2107
   18MOL   C73013684   2.629   1.993   0.528  0.3212  0.3479 -0.8851
   18MOL   O73113685   2.652   1.939   0.417  0.5360  0.6574 -0.6357
   18MOL   N73213686   2.511   2.002   0.590 -0.1074 -0.5127 -0.6732
   18MOL   C73313687   2.398   1.912   0.567 -0.1837  0.2814 -0.4259
   18MOL   C73413688   2.282   1.957   0.669 -0.0250 -0.3657 -0.2595
   18MOL   C73513689   2.181   1.854   0.699 -0.3730  0.0717 -0.2883
   18MOL   C73613690   2.095   1.894   0.820  0.8591  0.0143  0.2530
   18MOL   C73713691   1.952   1.840   0.786 -0.8272  0.5999 -0.5084
   18MOL   C73813692   1.875   1.808   0.927 -0.1299 -0.0454 -1.1374
   18MOL   N73913693   1.748   1.745   0.893  0.1039 -0.6127 -0.3531
   18MOL   H74013694   3.078   1.910   0.645  0.7367  0.0128  0.3670
   18MOL   H74113695   2.939   1.942   0.751 -0.7231  2.6445  1.2178
   18MOL   H74213696   2.988   2.199   0.632  0.5669  1.1688 -0.6761
   18MOL   H74313697   3.082   2.103   0.526  1.1033 -3.5021  0.0870
   18MOL   H74413698   2.894   1.968   0.483  0.3464  0.4070  1.2104
   18MOL   H74513699   2.874   2.144   0.437 -0.8836 -1.2874 -1.3505
   18MOL   H74613700   2.704   2.183   0.585 -1.3638 -0.3739 -0.3373
   18MOL   H74713701   2.751   2.057   0.693 -0.2567 -0.5350  0.0817
   18MOL   H74813702   2.518   2.057   0.675  0.4270  1.8080 -2.1583
   18MOL   H74913703   2.356   1.930   0.468 -2.0951 -3.1281 -0.3408
   18MOL   H75013704   2.436   1.813   0.591 -0.9735  0.5115  1.9700
   18MOL   H75113705   2.317   1.999   0.763  2.7149  0.6501 -1.6531
   18MOL   H75213706   2.226   2.042   0.629 -1.8908 -0.9342  1.1164
   18MOL   H75313707   2.224   1.759   0.731 -0.5994  0.1675  0.3114
   18MOL   H75413708   2.124   1.838   0.608 -0.2772  1.1038 -0.5353
   18MOL   H75513709   2.130   1.857   0.917 -2.5854  0.3678  1.6943
   18MOL   H75613710   2.079   2.001   0.826 -0.5307 -0.1905  0.3020
   18MOL   H75713711   1.898   1.914   0.727 -0.2752  0.1870 -1.5219
   18MOL   H75813712   1.956   1.740   0.743 -0.7099  0.5552 -0.3924
   18MOL   H75913713   1.869   1.890   0.999 -1.0261 -1.3499  0.2893
   18MOL   H76013714   1.934   1.732   0.978 -0.1400  1.9655  2.0052
   18MOL   H76113715   1.742   1.644   0.892  2.4486 -0.7873 -3.0393
   18MOL   H76213716   1.672   1.778   0.950 -1.3940 -0.2340 -2.5321
   19MOL     C113717   5.876   7.494   4.081  0.3448  0.4114 -0.6691
   19MOL     O213718   5.800   7.575   4.127 -0.1564 -0.0724  0.5452
   19MOL     C313719   5.821   7.362   4.032  0.3942 -0.3592  0.1077
   19MOL     C413720   5.778   7.357   3.879 -0.0634 -0.1747 -0.5553
   19MOL     C513721   5.884   7.339   3.771  0.0898 -0.6669  1.1032
   19MOL     C613722   5.935   7.200   3.738 -0.7461 -0.1125 -0.4931
   19MOL     C713723   5.830   7.093   3.722  0.5130  0.5665 -0.4468
   19MOL     O813724   5.718   7.114   3.676  0.2459  0.1799  0.0234
   19MOL     N913725   5.868   6.979   3.779  0.3764  0.1024  0.3014
   19MOL    C1013726   5.772   6.875   3.821  0.8759 -0.1421 -0.5305
   19MOL    C1113727   5.688   6.917   3.941 -0.7666  0.7091  0.2038
   19MOL    C1213728   5.768   6.966   4.062  0.2725 -0.6162 -0.3851
   19MOL    C1313729   5.851   6.854   4.125 -1.0211  0.3868 -0.4664
   19MOL    C1413730   5.936   6.905   4.247 -0.8219  0.1603  0.1984
   19MOL    C1513731   6.026   6.807   4.321 -0.0359  1.0746 -0.3088
   19MOL    N1613732   6.075   6.691   4.240  0.2932 -0.0123 -0.2077
   19MOL    H1713733   5.886   7.280   4.061  0.9796  0.4354  1.0572
   19MOL    H1813734   5.728   7.357   4.087  0.3911  1.0762  0.2635
   19MOL    H1913735   5.697   7.287   3.860  2.4330 -3.1684 -0.5461
   19MOL    H2013736   5.726   7.452   3.868  1.4556  0.7310 -0.1136
   19MOL    H2113737   5.973   7.398   3.796  0.0632 -0.3289  0.3995
   19MOL    H2213738   5.846   7.382   3.678 -0.6998  0.1218  1.7777
   19MOL    H2313739   6.002   7.171   3.818 -1.7769 -1.7829 -0.2227
   19MOL    H2413740   5.989   7.206   3.643 -1.3555  1.6454 -0.7567
   19MOL    H2513741   5.961   6.964   3.816  1.0503  0.9744 -1.0034
   19MOL    H2613742   5.702   6.844   3.742 -0.3746 -0.8188  0.8108
   19MOL    H2713743   5.822   6.782   3.849  0.0993 -0.8007 -1.2854
   19MOL    H2813744   5.630   7.002   3.906  0.2892  0.2489 -2.8002
   19MOL    H2913745   5.617   6.837   3.964 -2.0656  1.4220 -1.1873
   19MOL    H3013746   5.691   7.001   4.130 -1.4643  1.4289 -3.3042
   19MOL    H3113747   5.833   7.051   4.039 -0.6456  0.5211  1.1437
   19MOL    H3213748   5.792   6.765   4.150 -0.8837  0.4128 -0.0318
   19MOL    H3313749   5.924   6.832   4.048 -1.6718 -1.4571 -0.5894
   19MOL    H3413750   5.998   6.991   4.219  2.4767 -2.7068 -1.6653
   19MOL    H3513751   5.868   6.941   4.325 -1.1854  2.5692 -1.1553
   19MOL    H3613752   5.957   6.764   4.394  1.4627 -1.1013 -0.1292
   19MOL    H3713753   6.108   6.858   4.370  0.1533 -0.1944  0.7048
   19MOL    H3813754   6.166   6.713   4.203  0.0588  1.2369 -0.0657
   19MOL    H3913755   5.983   7.513   4.087  0.2536  0.8220 -0.3694
   19MOL    C4013756   6.023   6.567   4.222  0.2504 -0.4283 -0.3719
   19MOL    O4113757   5.911   6.546   4.266  0.0858  0.6635 -0.1650
   19MOL    C4213758   6.101   6.464   4.148 -0.3975  0.1285 -0.4009
   19MOL    C4313759   6.038   6.414   4.015  0.3002 -0.3303 -0.0471
   19MOL    C4413760   6.041   6.517   3.902  0.3731 -0.0360 -0.4904
   19MOL    C4513761   5.995   6.457   3.766 -0.2752  0.0948 -0.0797
   19MOL    C4613762   6.110   6.386   3.691 -0.2733 -0.1244 -0.7496
   19MOL    O4713763   6.155   6.439   3.595 -0.3768  0.4804 -0.3133
   19MOL    N4813764   6.144   6.263   3.736  0.0592  0.0027  0.1504
   19MOL    C4913765   6.275   6.198   3.710 -0.4765  0.0856 -0.5451
   19MOL    C5013766   6.374   6.223   3.823  0.4604  0.7919 -0.0540
   19MOL    C5113767   6.524   6.208   3.782 -0.0075  0.1857  0.2354
   19MOL    C5213768   6.565   6.295   3.660 -0.2241 -0.0498 -0.0711
   19MOL    C5313769   6.528   6.447   3.672  0.3963 -0.6558  0.1253
   19MOL    C5413770   6.511   6.530   3.546 -0.0008  0.2017  0.0026
   19MOL    N5513771   6.401   6.488   3.462  0.5822  0.1896  0.0303
   19MOL    H5613772   6.201   6.506   4.132  0.1837 -1.6959 -1.6936
   19MOL    H5713773   6.111   6.376   4.211  0.7982  1.5361  1.4532
   19MOL    H5813774   6.087   6.321   3.986 -2.1754 -1.0272 -2.1152
   19MOL    H5913775   5.935   6.381   4.026  1.3965 -3.1047  2.8067
   19MOL    H6013776   6.140   6.563   3.897  0.7835 -0.5634  1.9240
   19MOL    H6113777   5.970   6.598   3.916  1.5178  1.1193 -1.2322
   19MOL    H6213778   5.957   6.534   3.699 -1.9807 -1.5508 -1.0795
   19MOL    H6313779   5.922   6.378   3.782  0.4655 -0.7521 -0.8140
   19MOL    H6413780   6.088   6.223   3.810 -3.5250  2.2186 -1.2048
   19MOL    H6513781   6.255   6.099   3.668 -0.9835  0.0003 -0.0970
   19MOL    H6613782   6.320   6.250   3.625 -2.2062  0.8936 -0.9810
   19MOL    H6713783   6.361   6.318   3.874 -0.6002  2.1853 -2.8158
   19MOL    H6813784   6.356   6.155   3.907  0.6637 -1.4381 -1.7681
   19MOL    H6913785   6.557   6.105   3.768  0.2194  0.2563  0.2398
   19MOL    H7013786   6.579   6.243   3.870 -2.1215  2.5714  0.6416
   19MOL    H7113787   6.671   6.275   3.648 -0.3813 -1.5733  0.9349
   19MOL    H7213788   6.516   6.261   3.568 -0.9834  1.4364 -0.2268
   19MOL    H7313789   6.428   6.451   3.716  1.1805  1.4512  1.8512
   19MOL    H7413790   6.595   6.493   3.745  3.1571 -3.1106 -0.7551
   19MOL    H7513791   6.608   6.523   3.498 -0.3095 -1.4935 -0.4333
   19MOL    H7613792   6.495   6.634   3.575  0.0444  0.6857 -1.6295
   19MOL    H7713793   6.312   6.487   3.510  0.9131 -0.4593  0.6409
   19MOL    C7813794   6.408   6.474   3.330  0.5662  0.9067  0.1345
   19MOL    O7913795   6.504   6.490   3.258  0.0232  0.4828 -0.3859
   19MOL    C8013796   6.273   6.444   3.258 -0.1502 -0.1539  0.5673
   19MOL    C8113797   6.241   6.289   3.215 -0.0884  0.1179 -0.0305
   19MOL    C8213798   6.248   6.198   3.335 -0.8425  0.8481 -0.4683
   19MOL    C8313799   6.250   6.050   3.290 -0.1856 -0.6789 -0.0362
   19MOL    C8413800   6.298   5.961   3.402  0.3446 -0.9265 -0.4081
   19MOL    O8513801   6.381   6.003   3.479  1.0162  0.0678 -0.0670
   19MOL    N8613802   6.246   5.838   3.412 -0.1413  0.0476  0.5568
   19MOL    C8713803   6.294   5.725   3.493 -0.0547  0.5687 -0.4778
   19MOL    C8813804   6.200   5.693   3.612 -0.2327 -0.0719 -0.1857
   19MOL    C8913805   6.161   5.828   3.680  0.0290 -0.6851 -0.1476
   19MOL    C9013806   6.073   5.806   3.804 -0.1910  0.1211 -0.0821
   19MOL    C9113807   6.052   5.927   3.895  0.2748 -0.3723 -0.0172
   19MOL    C9213808   5.969   5.905   4.020  0.2349  0.2840 -0.3740
   19MOL    N9313809   5.950   6.022   4.103 -0.2885 -0.3514  0.2105
   19MOL    H9413810   6.182   6.479   3.307  0.1690 -0.7796  1.6350
   19MOL    H9513811   6.274   6.506   3.169 -1.9766  0.2628  0.8278
   19MOL    H9613812   6.141   6.285   3.174  0.4166  1.1912 -1.4042
   19MOL    H9713813   6.307   6.267   3.131  0.9914  1.3519  0.4752
   19MOL    H9813814   6.168   6.214   3.407 -1.6180  0.4755 -1.2369
   19MOL    H9913815   6.341   6.220   3.389  0.4217 -2.1019 -1.3079
   19MOL   H10013816   6.317   6.040   3.205  2.5499  0.1663  1.9542
   19MOL   H10113817   6.147   6.029   3.261 -0.3435 -0.1768  0.1573
   19MOL   H10213818   6.177   5.811   3.342 -0.9954 -0.6136  1.6325
   19MOL   H10313819   6.301   5.636   3.429  0.2634  0.0281  0.3016
   19MOL   H10413820   6.396   5.744   3.527  0.4760 -2.1713 -0.3532
   19MOL   H10513821   6.118   5.638   3.565  0.1315 -0.0860 -0.8136
   19MOL   H10613822   6.253   5.618   3.671  1.6375  0.8416 -0.6735
   19MOL   H10713823   6.105   5.895   3.614  1.7700  0.2396 -0.7385
   19MOL   H10813824   6.243   5.895   3.707  0.6960 -1.9588  1.0192
   19MOL   H10913825   5.976   5.766   3.774  0.5558 -1.7414 -0.0996
   19MOL   H11013826   6.118   5.729   3.867  0.4381 -0.7949 -1.6198
   19MOL   H11113827   6.148   5.962   3.931  0.1027 -0.1172  0.1946
   19MOL   H11213828   6.009   6.004   3.830 -0.9675  0.4700  1.7769
   19MOL   H11313829   6.000   5.815   4.074  0.9576 -1.6807 -3.9243
   19MOL   H11413830   5.870   5.877   3.983  0.0452 -0.3159  0.5733
   19MOL   H11513831   5.921   6.109   4.062  0.4448 -0.1036  0.2154
   19MOL   C11613832   5.994   6.036   4.232  0.0017  0.2074 -0.3698
   19MOL   O11713833   6.053   5.946   4.290  0.2591 -0.6580  0.3380
   19MOL   C11813834   5.949   6.169   4.311  0.3298  0.4678 -0.5203
   19MOL   C11913835   5.870   6.128   4.436  0.2448 -0.4020  0.1572
   19MOL   C12013836   5.842   6.239   4.535  0.4218 -0.2412 -0.1000
   19MOL   C12113837   5.730   6.337   4.485 -0.2679 -0.3311 -0.5038
   19MOL   C12213838   5.717   6.470   4.554 -0.1528  0.3067 -0.5256
   19MOL   O12313839   5.708   6.485   4.676 -0.6602  0.2309  0.3799
   19MOL   N12413840   5.715   6.575   4.476 -0.0244 -1.1954  0.7698
   19MOL   C12513841   5.690   6.717   4.506  0.4337  0.3773  0.2746
   19MOL   C12613842   5.553   6.780   4.468  0.0609 -0.0360 -0.0262
   19MOL   C12713843   5.549   6.931   4.511  0.5108 -1.1350 -0.3221
   19MOL   C12813844   5.499   6.966   4.652  0.1677  0.4433  0.2527
   19MOL   C12913845   5.514   7.118   4.684 -0.5314 -0.1665  0.3838
   19MOL   C13013846   5.463   7.153   4.820  0.1700  0.7219  0.0043
   19MOL   N13113847   5.315   7.156   4.825  0.1379  0.1050 -1.0434
   19MOL   H13213848   6.040   6.211   4.352  2.2357 -1.8445 -2.2464
   19MOL   H13313849   5.908   6.248   4.248 -2.8495  0.0573  0.9231
   19MOL   H13413850   5.782   6.065   4.423 -1.3298  0.9133  3.8307
   19MOL   H13513851   5.937   6.066   4.496 -1.3563 -1.9743  0.3901
   19MOL   H13613852   5.932   6.291   4.569 -0.1138  0.0331  0.9134
   19MOL   H13713853   5.817   6.189   4.628 -0.6990 -1.2352 -0.9300
   19MOL   H13813854   5.637   6.280   4.483 -2.2961  2.8868 -1.3887
   19MOL   H13913855   5.756   6.368   4.384  3.2367 -2.9715 -0.5165
   19MOL   H14013856   5.741   6.553   4.381 -0.9649 -0.2894  0.2906
   19MOL   H14113857   5.699   6.733   4.614  3.5031  2.8497 -0.2743
   19MOL   H14213858   5.767   6.772   4.453  0.0924 -1.0453 -1.7503
   19MOL   H14313859   5.539   6.769   4.360 -0.2691  0.3375 -0.0233
   19MOL   H14413860   5.473   6.724   4.517  0.5751 -0.9018 -0.1676
   19MOL   H14513861   5.500   6.999   4.442 -3.8092 -2.2029  1.5600
   19MOL   H14613862   5.654   6.960   4.524  0.1160 -0.5568  1.7655
   19MOL   H14713863   5.395   6.933   4.658  0.2757  0.0943  0.2281
   19MOL   H14813864   5.550   6.901   4.724  0.3921  2.2397  1.7526
   19MOL   H14913865   5.615   7.149   4.660 -1.2151  0.9363 -1.1071
   19MOL   H15013866   5.460   7.175   4.609 -0.2025 -0.0541  0.2373
   19MOL   H15113867   5.512   7.245   4.853  1.4304 -0.6667  2.1258
   19MOL   H15213868   5.499   7.074   4.885  1.5047  1.2620 -0.0546
   19MOL   H15313869   5.265   7.166   4.737 -1.0401 -3.0749 -0.8159
   19MOL   C15413870   5.247   7.135   4.942  0.1513 -0.3519  0.4142
   19MOL   O15513871   5.302   7.109   5.048 -0.4036 -0.0285 -0.1672
   19MOL   C15613872   5.095   7.148   4.931  0.2947 -0.2068  0.1289
   19MOL   C15713873   5.018   7.117   5.062 -0.1802 -0.1569  0.0126
   19MOL   C15813874   4.866   7.153   5.055  0.0330 -0.5317  0.5502
   19MOL   C15913875   4.822   7.302   5.023 -0.3873  0.8597 -0.1915
   19MOL   C16013876   4.836   7.397   5.145  0.0510 -0.2901 -1.3746
   19MOL   O16113877   4.941   7.460   5.169  0.3233  0.0915 -0.4928
   19MOL   N16213878   4.728   7.408   5.225  0.3834  0.4576  0.1086
   19MOL   C16313879   4.734   7.468   5.349 -0.1499  0.1445  0.0983
   19MOL   C16413880   4.601   7.445   5.431 -0.2524  0.0865  1.2680
   19MOL   C16513881   4.617   7.495   5.579  0.6335  0.1333 -0.1189
   19MOL   C16613882   4.483   7.519   5.658 -0.7300  0.5938  0.5021
   19MOL   C16713883   4.507   7.586   5.789  0.3599  0.2455 -0.3187
   19MOL   C16813884   4.543   7.482   5.889 -0.3804  0.1668 -0.3153
   19MOL   N16913885   4.607   7.557   5.995 -0.0792 -0.1592  0.2212
   19MOL   H17013886   5.078   7.244   4.882  2.0382  1.5608  2.8599
   19MOL   H17113887   5.057   7.086   4.850 -0.9368  1.1737 -0.3945
   19MOL   H17213888   5.039   7.014   5.089  1.2971  0.5291  1.5978
   19MOL   H17313889   5.067   7.185   5.133  1.9959  1.1109 -2.6120
   19MOL   H17413890   4.816   7.112   5.143  0.9678 -0.3367  1.1818
   19MOL   H17513891   4.843   7.094   4.967  1.5211 -1.5958  0.8496
   19MOL   H17613892   4.723   7.316   4.980 -0.0497 -1.6057 -1.8855
   19MOL   H17713893   4.884   7.348   4.946 -0.5842  1.3381 -0.0655
   19MOL   H17813894   4.640   7.362   5.205  1.2004 -1.2432  0.3418
   19MOL   H17913895   4.819   7.438   5.409 -0.7310  2.6704  2.3310
   19MOL   H18013896   4.749   7.576   5.347  1.7338 -0.0370  2.2275
   19MOL   H18113897   4.521   7.491   5.374 -1.2735  0.2549  2.7869
   19MOL   H18213898   4.581   7.339   5.417  2.4537 -0.1480 -1.1565
   19MOL   H18313899   4.670   7.590   5.571 -2.8589  2.0553 -1.4917
   19MOL   H18413900   4.685   7.427   5.632  0.3053  0.7281  1.0915
   19MOL   H18513901   4.411   7.572   5.594 -0.3273  0.3551 -0.1504
   19MOL   H18613902   4.425   7.428   5.675 -0.9751  1.2654  3.5522
   19MOL   H18713903   4.590   7.655   5.781  1.1218 -0.2764  2.3784
   19MOL   H18813904   4.423   7.646   5.826 -0.5430 -1.4092  0.3641
   19MOL   H18913905   4.613   7.407   5.850 -2.1442 -1.6220 -0.1433
   19MOL   H19013906   4.462   7.427   5.937 -1.8114  1.4379 -1.2396
   19MOL   H19113907   4.540   7.598   6.059 -1.5007 -0.6880 -0.8867
   19MOL   C19213908   4.736   7.587   6.002  0.1535  0.1908 -0.2028
   19MOL   O19313909   4.818   7.539   5.922 -0.0107 -0.2629 -0.2674
   19MOL   C19413910   4.770   7.681   6.123 -0.1984  0.4235 -0.0619
   19MOL   C19513911   4.813   0.108   6.071  0.2720  0.2353  0.7259
   19MOL   C19613912   4.956   0.110   6.005 -0.6734  0.3322  0.2119
   19MOL   C19713913   5.011   0.253   5.997 -1.0862 -0.1664  0.3676
   19MOL   C19813914   5.140   0.259   5.913 -0.1351 -0.2623  0.0980
   19MOL   O19913915   5.237   0.204   5.958 -0.2479  0.1573 -0.0020
   19MOL   N20013916   5.124   0.318   5.794  0.0701 -0.1797  0.2045
   19MOL   C20113917   5.233   0.342   5.698  0.7696  0.6155 -0.3478
   19MOL   C20213918   5.179   0.438   5.582 -0.6527  0.2221  0.1172
   19MOL   C20313919   5.265   0.449   5.447 -0.1664  0.2814  0.4342
   19MOL   C20413920   5.255   0.320   5.359  0.7069 -0.0330  0.2580
   19MOL   C20513921   5.360   0.318   5.242  0.1981  0.3989 -0.7102
   19MOL   C20613922   5.508   0.293   5.283 -0.7501 -0.2832 -0.0286
   19MOL   N20713923   5.527   0.166   5.357  0.0156  0.4725 -0.7199
   19MOL   H20813924   4.686   7.695   6.192  0.2462 -0.9900  0.7912
   19MOL   H20913925   4.846   7.621   6.173  2.5006  2.4725 -1.5799
   19MOL   H21013926   4.737   0.153   6.007 -0.2882  1.0028  1.9278
   19MOL   H21113927   4.811   0.172   6.159  2.0286  1.2848 -0.0032
   19MOL   H21213928   4.954   0.053   5.911 -0.9620  2.1913 -0.9346
   19MOL   H21313929   5.038   0.065   6.061 -0.2448 -0.7887 -1.2496
   19MOL   H21413930   5.025   0.307   6.090 -0.2821  2.4606 -1.2110
   19MOL   H21513931   4.938   0.315   5.943 -1.0966  0.5035  1.1467
   19MOL   H21613932   5.028   0.327   5.763 -0.4177 -0.7325  1.5340
   19MOL   H21713933   5.318   0.387   5.750  2.1982 -3.1100  0.6964
   19MOL   H21813934   5.263   0.246   5.658  0.4280  1.0115 -1.5766
   19MOL   H21913935   5.079   0.402   5.557 -1.0972  1.3454  0.2535
   19MOL   H22013936   5.162   0.532   5.635 -0.8039 -0.5639  1.4858
   19MOL   H22113937   5.372   0.466   5.458  0.0323 -0.3304 -0.5465
   19MOL   H22213938   5.238   0.522   5.371 -1.4800 -1.9660 -1.3094
   19MOL   H22313939   5.273   0.239   5.430 -2.6043 -1.9735 -1.0262
   19MOL   H22413940   5.155   0.308   5.318  0.1651  0.9174  1.2650
   19MOL   H22513941   5.338   0.243   5.166 -0.2641 -0.3411  0.1433
   19MOL   H22613942   5.350   0.415   5.193 -1.8694  1.6236  1.9706
   19MOL   H22713943   5.538   0.373   5.351  1.9797 -0.4283 -0.9993
   19MOL   H22813944   5.577   0.291   5.199  0.6624 -0.1363  1.0910
   19MOL   H22913945   5.527   0.081   5.302 -2.3073 -0.3686  0.5200
   19MOL   C23013946   5.557   0.157   5.486 -0.2393  0.2829 -0.2239
   19MOL   O23113947   5.566   0.256   5.559  0.1456  0.0028  0.3786
   19MOL   C23213948   5.565   0.014   5.545 -0.1347 -0.2589 -0.0125
   19MOL   C23313949   5.705   7.652   5.546  0.1510 -0.0901 -0.4606
   19MOL   C23413950   5.758   7.619   5.407  0.2522 -0.4521 -0.3406
   19MOL   C23513951   5.699   7.485   5.353 -0.2070  0.0734  0.0694
   19MOL   C23613952   5.558   7.499   5.289 -0.0056  0.4809  0.7614
   19MOL   O23713953   5.538   7.603   5.218  0.2378 -0.0700 -0.3253
   19MOL   N23813954   5.476   7.395   5.307  0.0691  0.5358 -0.4233
   19MOL   C23913955   5.345   7.384   5.243 -0.4856  0.5865 -0.3746
   19MOL   C24013956   5.254   7.491   5.312  0.3343 -0.5176 -0.0122
   19MOL   C24113957   5.180   7.430   5.437  0.0830 -0.4976 -0.1856
   19MOL   C24213958   5.096   7.535   5.504 -0.0060  0.6335  1.0292
   19MOL   C24313959   5.056   7.499   5.648  0.3451  0.8921 -0.2142
   19MOL   C24413960   4.985   7.358   5.658  0.4494 -0.1158 -0.2919
   19MOL   N24513961   4.939   7.331   5.789 -0.4331  0.2906  0.7862
   19MOL   H24613962   5.537   0.025   5.649 -0.0206 -0.1335  0.0047
   19MOL   H24713963   5.491   7.661   5.492 -1.0352  3.0324 -2.7583
   19MOL   H24813964   5.769   0.008   5.607 -1.1627  0.6806  0.1448
   19MOL   H24913965   5.699   7.563   5.609 -0.1454 -0.6918 -1.3170
   19MOL   H25013966   5.864   7.604   5.428  0.3654  2.2112  1.2586
   19MOL   H25113967   5.741   7.699   5.334  2.4015  0.9841  0.6836
   19MOL   H25213968   5.703   7.407   5.429 -0.1210  0.0571  0.0476
   19MOL   H25313969   5.753   7.451   5.264 -1.4413  0.2885 -0.7793
   19MOL   H25413970   5.511   7.321   5.366 -2.4688 -1.3823 -1.2490
   19MOL   H25513971   5.358   7.428   5.144 -2.0565 -1.1348 -1.3802
   19MOL   H25613972   5.302   7.284   5.241 -0.4809  0.5649  0.5144
   19MOL   H25713973   5.310   7.577   5.347 -0.0408 -1.3340  2.7484
   19MOL   H25813974   5.181   7.536   5.246 -1.1594 -1.1706  1.1608
   19MOL   H25913975   5.266   7.396   5.495 -0.7790  1.2782  2.2178
   19MOL   H26013976   5.127   7.337   5.416 -2.6012  1.0619 -0.6174
   19MOL   H26113977   5.147   7.631   5.511  1.9213 -0.0307 -2.7127
   19MOL   H26213978   5.009   7.554   5.442 -0.3190 -1.7907  0.6611
   19MOL   H26313979   5.132   7.505   5.725 -0.3478 -0.0738  0.5514
   19MOL   H26413980   4.988   7.580   5.676 -0.7623  0.7199 -2.2263
   19MOL   H26513981   5.044   7.277   5.614  0.9892  0.2890 -0.3292
   19MOL   H26613982   4.896   7.360   5.596  0.4359  2.8936 -0.2252
   19MOL   H26713983   4.895   7.400   5.848  0.2629  0.2772  1.3237
   19MOL   C26813984   4.964   7.211   5.845 -0.8154 -0.6623  0.4134
   19MOL   O26913985   5.025   7.123   5.785  0.2468 -0.0405 -0.4916
   19MOL   C27013986   4.895   7.177   5.975  0.2689 -0.2075 -0.1780
   19MOL   C27113987   4.988   7.183   6.090 -0.4586  0.3681 -0.2336
   19MOL   C27213988   5.023   7.315   6.158  0.1960 -0.4109 -0.7298
   19MOL   C27313989   5.091   7.303   6.298  1.0117  0.0260  0.1906
   19MOL   C27413990   4.980   7.307   6.410  0.5672 -0.0675  0.5689
   19MOL   O27513991   4.905   7.406   6.421 -0.5010 -0.0234 -0.0869
   19MOL   N27613992   4.971   7.198   6.476  0.1209  0.6556 -0.7071
   19MOL   C27713993   4.885   7.171   6.589 -0.6345 -0.0931 -0.3288
   19MOL   C27813994   4.965   7.107   6.709  0.1152  0.7993 -0.1499
   19MOL   C27913995   5.028   6.967   6.684 -0.5969  0.4947 -0.4178
   19MOL   C28013996   5.101   6.918   6.807  0.0343 -0.4351  0.0928
   19MOL   C28113997   5.179   6.783   6.795 -0.3091  0.2399  0.0349
   19MOL   C28213998   5.096   6.655   6.788 -0.3824  0.1321 -0.2062
   19MOL   N28313999   5.179   6.544   6.735 -0.0167 -0.4349  0.1191
   19MOL   H28414000   4.800   7.229   5.987 -0.0465 -0.8433  0.1178
   19MOL   H28514001   4.861   7.073   5.967  0.1198 -0.0629 -1.5517
   19MOL   H28614002   4.951   7.114   6.167  0.8178 -0.2553 -0.1593
   19MOL   H28714003   5.076   7.127   6.059 -1.1077 -0.7278 -0.1322
   19MOL   H28814004   4.932   7.373   6.174  0.9058  0.4353  0.3469
   19MOL   H28914005   5.089   7.369   6.090 -0.4712 -1.1218 -1.9312
   19MOL   H29014006   5.160   7.386   6.315 -0.6547  1.3711  0.5567
   19MOL   H29114007   5.159   7.218   6.302  0.0884 -0.7099  0.6741
   19MOL   H29214008   5.019   7.117   6.439 -1.0810 -0.0548 -0.7134
   19MOL   H29314009   4.826   7.260   6.610 -1.3939 -0.9642  1.2923
   19MOL   H29414010   4.810   7.100   6.556 -0.4754 -0.6677  0.5384
   19MOL   H29514011   5.049   7.174   6.729 -1.5107  2.7803  0.2371
   19MOL   H29614012   4.897   7.109   6.794 -0.1869  1.9100 -0.4097
   19MOL   H29714013   5.112   6.982   6.616 -1.2872  2.3813 -0.8769
   19MOL   H29814014   4.972   6.885   6.640  0.0628 -1.1625  1.7014
   19MOL   H29914015   5.167   7.000   6.837  1.7587 -0.9067 -2.3266
   19MOL   H30014016   5.022   6.908   6.882  1.5332 -1.6385  1.5545
   19MOL   H30114017   5.241   6.793   6.706 -3.2257  1.3311 -1.9425
   19MOL   H30214018   5.256   6.776   6.871  1.2397 -1.1393 -1.6010
   19MOL   H30314019   5.019   6.665   6.712 -0.7115  1.5671  0.3014
   19MOL   H30414020   5.048   6.636   6.884 -1.8421 -0.6092 -1.0801
   19MOL   H30514021   5.158   6.511   6.641  1.3751  1.6853 -0.9608
   19MOL   C30614022   5.264   6.477   6.808  0.1117 -0.4983 -0.3966
   19MOL   O30714023   5.278   6.494   6.930 -0.3579 -0.4812 -0.5399
   19MOL   C30814024   5.330   6.368   6.735 -0.0196 -0.5987 -0.1352
   19MOL   C30914025   5.422   6.281   6.821  0.8403 -0.3340  0.3718
   19MOL   C31014026   5.479   6.165   6.741 -0.2011 -0.1716  0.2128
   19MOL   C31114027   5.566   6.068   6.811 -0.0215 -0.3436  0.2153
   19MOL   C31214028   5.615   5.964   6.715 -0.9482  1.1907  1.0124
   19MOL   O31314029   5.533   5.889   6.667  0.3031  0.0544 -0.2349
   19MOL   N31414030   5.747   5.960   6.681  0.1204 -0.4685 -0.1441
   19MOL   C31514031   5.813   5.859   6.604 -0.5478  0.3340 -0.2554
   19MOL   C31614032   5.766   5.866   6.459 -0.2868  0.1273 -0.3228
   19MOL   C31714033   5.763   6.008   6.389  0.6031  0.0478 -0.4213
   19MOL   C31814034   5.899   6.050   6.352 -0.1419  0.2455  0.7333
   19MOL   C31914035   5.889   6.182   6.276  0.4033 -0.3152  0.3899
   19MOL   C32014036   6.019   6.231   6.209  0.5429  0.2853 -0.3770
   19MOL   N32114037   6.139   6.185   6.283  0.2480  0.7153  0.2275
   19MOL   H32214038   5.252   6.299   6.703  0.2427 -1.0380  0.1605
   19MOL   H32314039   5.370   6.403   6.640 -1.5937 -3.7371 -2.0309
   19MOL   H32414040   5.503   6.338   6.866 -0.3445  1.9493 -0.2676
   19MOL   H32514041   5.368   6.236   6.904  1.6434 -0.3998  0.8587
   19MOL   H32614042   5.520   6.211   6.651  1.5473  1.6044  1.8887
   19MOL   H32714043   5.394   6.106   6.708  1.8181 -1.7266 -2.5120
   19MOL   H32814044   5.507   6.018   6.888  1.0038 -0.5818  0.8557
   19MOL   H32914045   5.652   6.119   6.854  1.5108  0.7893 -3.9574
   19MOL   H33014046   5.817   6.028   6.707 -0.6008  1.2459 -2.4437
   19MOL   H33114047   5.918   5.884   6.620  0.0196 -2.9735  1.8234
   19MOL   H33214048   5.782   5.772   6.663 -0.4290  0.6245  0.2432
   19MOL   H33314049   5.816   5.799   6.390 -1.4087 -0.5566 -0.4919
   19MOL   H33414050   5.661   5.835   6.459 -1.3224  3.3571  1.2442
   19MOL   H33514051   5.723   6.087   6.453 -0.0314 -0.5280 -0.0971
   19MOL   H33614052   5.688   6.004   6.309  0.3511 -0.5471 -0.1612
   19MOL   H33714053   5.970   6.067   6.433  1.8512  1.3342 -1.2033
   19MOL   H33814054   5.938   5.971   6.288  0.2412  1.2287 -0.2550
   19MOL   H33914055   5.814   6.178   6.197 -0.7503  0.8527  1.4058
   19MOL   H34014056   5.857   6.256   6.349  0.6523  0.6566 -0.4690
   19MOL   H34114057   6.021   6.334   6.175 -0.8826  0.7007  0.7238
   19MOL   H34214058   6.027   6.178   6.114  3.8317 -0.5089  0.2866
   19MOL   H34314059   6.182   6.097   6.261 -0.8102 -0.3426  2.2700
   19MOL   C34414060   6.189   6.257   6.388 -0.1763  0.2439 -0.2260
   19MOL   O34514061   6.135   6.362   6.425  0.1304  0.0519 -0.9716
   19MOL   C34614062   6.316   6.210   6.457 -0.3897  0.2715 -0.1481
   19MOL   C34714063   6.377   6.082   6.403 -0.3149 -0.2589  0.0335
   19MOL   C34814064   6.512   6.043   6.473 -0.2335  0.9674  0.4607
   19MOL   C34914065   6.615   5.981   6.375  0.7912 -0.3843  0.2829
   19MOL   C35014066   6.722   6.076   6.341  0.2099  0.1001 -0.0254
   19MOL   O35114067   6.746   6.178   6.405 -0.3258 -0.4766 -0.1240
   19MOL   N35214068   6.801   6.044   6.232  0.2569  0.5002 -0.1839
   19MOL   C35314069   6.931   6.102   6.208 -0.4751 -0.3729  0.0393
   19MOL   C35414070   6.958   6.084   6.058 -0.0589 -0.0222  0.2053
   19MOL   C35514071   6.846   6.141   5.966  0.1962  0.6580 -0.3304
   19MOL   C35614072   6.893   6.132   5.816  0.8734 -0.0330 -0.4123
   19MOL   C35714073   6.785   6.152   5.720  0.0197 -0.1347  0.2997
   19MOL   C35814074   6.668   6.053   5.698 -0.2981  0.4664  0.7813
   19MOL   N35914075   6.722   5.922   5.687  0.0594 -0.2977 -0.1197
   19MOL   H36014076   6.391   6.286   6.434  1.3705 -1.3366  0.1468
   19MOL   H36114077   6.301   6.202   6.565 -2.0283 -0.8657 -0.4461
   19MOL   H36214078   6.309   5.997   6.394  0.3668 -0.7200 -0.9071
   19MOL   H36314079   6.406   6.106   6.300 -0.1626 -0.4805  0.0248
   19MOL   H36414080   6.493   5.971   6.553  1.6172 -0.3183 -0.2368
   19MOL   H36514081   6.548   6.131   6.528  1.1517  1.1936 -0.7850
   19MOL   H36614082   6.574   5.937   6.284  1.2754 -1.0902  0.4030
   19MOL   H36714083   6.657   5.900   6.435 -1.2371 -0.2947  1.9086
   19MOL   H36814084   6.778   5.956   6.188  0.7795  1.0413 -1.5753
   19MOL   H36914085   6.951   6.207   6.229  0.5382 -0.7984  1.3200
   19MOL   H37014086   6.994   6.041   6.274  2.1144  0.5701 -1.4979
   19MOL   H37114087   7.052   6.131   6.029 -0.5235  1.5680  1.2462
   19MOL   H37214088   6.957   5.981   6.023  1.0444  1.2825 -3.9805
   19MOL   H37314089   6.832   6.246   5.993  0.0983  1.2617 -2.6451
   19MOL   H37414090   6.751   6.091   5.980 -0.1849  1.3908 -0.2756
   19MOL   H37514091   6.970   6.208   5.803  0.8088  0.7298  3.1675
   19MOL   H37614092   6.941   6.035   5.805  1.8423  0.2239  1.3730
   19MOL   H37714093   6.741   6.248   5.746  0.9309 -0.0272  1.4691
   19MOL   H37814094   6.831   6.169   5.622  1.9707  0.2720  1.2608
   19MOL   H37914095   6.600   6.069   5.615  0.7325 -1.2038 -0.4388
   19MOL   H38014096   6.596   6.070   5.777 -2.0877  0.1633 -0.7623
   19MOL   H38114097   6.764   5.897   5.599  2.8914  0.4183  0.9466
   19MOL   C38214098   6.724   5.827   5.783 -1.2032  0.4508  0.3452
   19MOL   O38314099   6.692   5.845   5.899 -0.1773 -0.1399  0.2408
   19MOL   C38414100   6.778   5.686   5.747 -0.0087  0.2855  0.2051
   19MOL   C38514101   6.855   5.618   5.864  0.1899 -0.4575  0.6036
   19MOL   C38614102   6.770   5.576   5.985 -0.2308  0.1397 -0.0006
   19MOL   C38714103   6.853   5.503   6.096  0.0112 -0.0177  0.4347
   19MOL   C38814104   6.927   5.612   6.186 -0.3980  0.5895 -0.6511
   19MOL   O38914105   6.876   5.720   6.232 -0.4245  0.4690  0.1247
   19MOL   N39014106   7.056   5.574   6.224  0.5678 -0.1920  0.4227
   19MOL   C39114107   7.137   5.652   6.312 -0.2552 -0.0408  0.8723
   19MOL   C39214108   7.279   5.608   6.319 -0.2487 -0.2165  0.2433
   19MOL   C39314109   7.367   5.701   6.405 -0.3622  0.4386  0.1273
   19MOL   C39414110   7.509   5.669   6.421 -1.1272  0.5131 -0.3732
   19MOL   C39514111   7.593   5.751   6.526 -0.0257 -0.3939 -0.2508
   19MOL   C39614112   7.605   5.894   6.479  0.4783  0.2690 -0.4731
   19MOL   N39714113   7.669   5.982   6.583  0.8329 -0.1080 -0.8645
   19MOL   H39814114   6.700   5.621   5.709  0.7605 -1.7809  2.0196
   19MOL   H39914115   6.829   5.678   5.651  0.9876  3.0530  0.4653
   19MOL   H40014116   6.915   5.538   5.820  0.7131 -0.1657  0.7697
   19MOL   H40114117   6.928   5.689   5.902 -0.7383 -0.6911  2.8551
   19MOL   H40214118   6.693   5.504   5.954  2.4372 -1.7687 -2.4496
   19MOL   H40314119   6.710   5.649   6.039 -1.2816 -1.1560  0.6055
   19MOL   H40414120   6.919   5.426   6.055  1.8905  1.7920 -0.0136
   19MOL   H40514121   6.782   5.452   6.161  2.5784 -2.6453  1.2957
   19MOL   H40614122   7.097   5.497   6.173 -0.0941 -0.8134  0.8326
   19MOL   H40714123   7.144   5.754   6.276 -1.9007  0.4600  1.9340
   19MOL   H40814124   7.091   5.654   6.411  0.5216  1.2210  1.2162
   19MOL   H40914125   7.285   5.510   6.366 -2.8002 -0.0354  1.0001
   19MOL   H41014126   7.312   5.588   6.217 -0.5159 -1.5230  0.4100
   19MOL   H41114127   7.318   5.708   6.502  0.4726  0.1174  0.5712
   19MOL   H41214128   7.358   5.801   6.362  2.4177  0.4462 -0.5673
   19MOL   H41314129   7.528   5.563   6.439 -0.9074  0.7869  1.0726
   19MOL   H41414130   7.558   5.687   6.325 -1.0014 -3.2807 -1.0756
   19MOL   H41514131   7.551   5.753   6.626 -0.1258  0.4302 -0.3086
   19MOL   H41614132   7.691   5.706   6.541 -0.5406 -1.1707  0.8840
   19MOL   H41714133   7.502   5.929   6.470  0.7963  1.2358 -0.4309
   19MOL   H41814134   7.656   5.903   6.383  1.4293  2.6926  0.2175
   19MOL   H41914135   0.061   5.988   6.579  0.7300  2.3011 -0.4414
   19MOL   C42014136   7.595   6.046   6.670  0.4265  0.0216  0.6722
   19MOL   O42114137   7.472   6.029   6.680  0.1177  0.2430  0.5933
   19MOL   C42214138   7.658   6.133   6.770 -0.2128  0.4814 -0.7269
   19MOL   C42314139   7.573   6.162   6.896  0.0216  0.3680  0.8454
   19MOL   C42414140   7.595   6.067   7.013  0.5581  0.1340  0.9782
   19MOL   C42514141   7.504   6.084   7.132  0.0789 -0.8818 -0.7518
   19MOL   C42614142   7.567   6.028   7.260  0.4494 -0.2599 -0.1174
   19MOL   O42714143   7.631   5.921   7.257 -0.1228  0.9124  0.1134
   19MOL   N42814144   7.551   6.108   7.370  0.0468  0.3161 -0.1369
   19MOL   C42914145   7.590   6.075   7.505  0.6106  0.7088  0.0258
   19MOL   C43014146   0.019   6.143   7.543 -0.5122 -0.1222  0.1880
   19MOL   C43114147   0.015   6.301   7.535 -0.2092  0.3575  0.0534
   19MOL   C43214148   0.146   6.372   7.561 -0.0336  0.4218 -0.2672
   19MOL   C43314149   0.144   6.521   7.518 -0.7480 -0.1573  0.2569
   19MOL   C43414150   0.112   6.538   7.373 -0.0149  0.3006  0.2942
   19MOL   N43514151   0.128   6.679   7.340 -0.7750  0.8127 -0.0855
   19MOL   H43614152   0.047   6.088   6.793 -1.7892 -2.1700  1.0196
   19MOL   H43714153   7.680   6.230   6.724 -0.7424  1.5891  1.2815
   19MOL   H43814154   7.605   6.257   6.941 -1.1005  1.5403 -0.7719
   19MOL   H43914155   7.467   6.172   6.876 -0.1304  1.1484  1.9538
   19MOL   H44014156   7.698   6.085   7.046  1.2677 -2.5457  0.3911
   19MOL   H44114157   7.600   5.962   6.985  2.7901  0.9669 -2.0779
   19MOL   H44214158   7.402   6.046   7.126 -0.0155 -0.7244 -0.1490
   19MOL   H44314159   7.494   6.192   7.149 -4.4114 -1.0161 -2.0277
   19MOL   H44414160   7.474   6.171   7.354  0.8918  1.4327  0.1434
   19MOL   H44514161   7.516   6.112   7.576 -1.1019 -1.8862 -0.3425
   19MOL   H44614162   7.590   5.967   7.517 -2.1369  0.6519 -0.2762
   19MOL   H44714163   0.034   6.114   7.646  1.5810  2.1779  0.5950
   19MOL   H44814164   0.093   6.091   7.481  0.4013  0.2418  0.9599
   19MOL   H44914165   7.635   6.332   7.592 -0.2427  0.4071 -0.0283
   19MOL   H45014166   7.694   6.316   7.432 -1.0108 -2.3702 -0.1633
   19MOL   H45114167   0.168   6.366   7.668 -3.0270 -1.0646  0.3144
   19MOL   H45214168   0.231   6.322   7.513 -1.2502  0.6139 -2.6379
   19MOL   H45314169   0.076   6.580   7.579 -0.6189  0.5992 -0.3203
   19MOL   H45414170   0.236   6.572   7.549  1.1013 -1.3480 -2.9769
   19MOL   H45514171   0.014   6.499   7.348  0.1808  0.1634 -0.2726
   19MOL   H45614172   0.190   6.484   7.318  0.6558  0.0482  1.4611
   19MOL   H45714173   0.173   6.735   7.410 -1.7778  1.0909  0.3322
   19MOL   C45814174   0.105   6.727   7.217 -0.7026  0.1941 -0.0702
   19MOL   O45914175   0.066   6.654   7.126 -0.0194  0.4355 -0.8382
   19MOL   C46014176   0.122   6.875   7.208 -0.8827 -0.0839  0.4775
   19MOL   C46114177   0.219   6.911   7.101  0.1475  0.1027  0.1115
   19MOL   C46214178   0.367   6.891   7.150 -0.2663 -0.1553 -0.1452
   19MOL   C46314179   0.460   6.975   7.060  0.0842  0.0735  0.4617
   19MOL   C46414180   0.601   6.992   7.113 -0.2873 -0.2065 -0.5096
   19MOL   O46514181   0.632   7.075   7.195 -0.3110 -0.0246  0.3728
   19MOL   N46614182   0.692   6.918   7.057  0.6829 -0.1758 -0.2511
   19MOL   C46714183   0.837   6.917   7.090  0.4040 -0.1042 -0.6138
   19MOL   C46814184   0.916   6.951   6.960 -0.0183  0.4161  0.2575
   19MOL   C46914185   1.060   6.975   7.013 -0.1106 -0.5142  0.4618
   19MOL   C47014186   1.162   6.969   6.899  0.8922  0.4374  0.3332
   19MOL   C47114187   1.144   7.072   6.777  0.0161  0.2525 -0.5226
   19MOL   C47214188   1.266   7.063   6.681 -0.3384  0.7869  0.3657
   19MOL   N47314189   1.283   7.173   6.589 -0.2476 -0.3367  0.3901
   19MOL   H47414190   0.029   6.928   7.187 -0.3519  0.2431 -1.1600
   19MOL   H47514191   0.146   6.920   7.304  0.3418  1.6322 -0.5995
   19MOL   H47614192   0.205   6.863   7.005 -0.7389  0.5266  0.0312
   19MOL   H47714193   0.215   7.018   7.081  2.1894  0.4281  1.2440
   19MOL   H47814194   0.393   6.785   7.147 -1.6924 -0.5326  0.5997
   19MOL   H47914195   0.380   6.927   7.252  0.5164 -0.1960 -0.2270
   19MOL   H48014196   0.416   7.071   7.033  1.5940  0.4631 -0.6352
   19MOL   H48114197   0.463   6.924   6.964 -0.7494 -0.0033  0.4707
   19MOL   H48214198   0.653   6.857   6.987 -0.1018 -3.0627  2.5971
   19MOL   H48314199   0.859   6.987   7.171  0.2208 -0.8517  0.0958
   19MOL   H48414200   0.858   6.820   7.137  1.4228 -0.9217 -2.6907
   19MOL   H48514201   0.902   6.873   6.884  2.8634  0.4290 -0.3440
   19MOL   H48614202   0.871   7.037   6.910  0.9864  0.2120 -1.0168
   19MOL   H48714203   1.099   6.918   7.097  0.7026  0.1764  0.5640
   19MOL   H48814204   1.060   7.071   7.065  2.2844  0.6087 -1.4788
   19MOL   H48914205   1.255   6.992   6.951  0.8456  0.9379  0.1997
   19MOL   H49014206   1.175   6.864   6.871 -1.2238  0.1394  0.3953
   19MOL   H49114207   1.053   7.058   6.720  0.1389 -0.7618 -0.4715
   19MOL   H49214208   1.145   7.171   6.824  1.0568 -0.1888  0.4120
   19MOL   H49314209   1.267   6.963   6.636  0.5147 -0.5954  3.3268
   19MOL   H49414210   1.359   7.062   6.737  0.7787  0.6392 -1.4300
   19MOL   H49514211   1.265   7.266   6.624  0.9543  1.0998 -2.5865
   19MOL   C49614212   1.301   7.179   6.452 -0.2500 -0.4713 -0.2269
   19MOL   O49714213   1.318   7.083   6.383 -0.0257  0.0512  0.5313
   19MOL   C49814214   1.295   7.320   6.395  0.0588 -0.1643 -0.5707
   19MOL   C49914215   1.424   7.355   6.314 -0.5589  0.2725 -0.2299
   19MOL   C50014216   1.552   7.381   6.394  0.2669 -0.4859 -0.1805
   19MOL   C50114217   1.668   7.415   6.305 -0.2963  0.2378  0.6061
   19MOL   C50214218   1.795   7.370   6.379  0.4650  0.1430 -0.3442
   19MOL   O50314219   1.823   7.415   6.489  0.0345  0.4426 -0.1523
   19MOL   N50414220   1.884   7.289   6.319  0.3399  0.8100  0.4925
   19MOL   C50514221   2.005   7.244   6.379 -0.3190  0.4805 -0.4414
   19MOL   C50614222   2.109   7.187   6.283 -0.1822  0.4798  0.4710
   19MOL   C50714223   2.218   7.105   6.365 -0.0418  0.1093 -0.4391
   19MOL   C50814224   2.330   7.193   6.408  0.0850 -0.2098  0.3750
   19MOL   C50914225   2.444   7.128   6.474 -0.5035  0.6349  0.3241
   19MOL   C51014226   2.395   7.084   6.615  0.1224  0.0876 -0.2184
   19MOL   N51114227   2.502   7.026   6.689 -0.8478  0.2660  0.1236
   19MOL   H51214228   1.220   7.313   6.317  1.2067 -0.7706 -1.6276
   19MOL   H51314229   1.261   7.385   6.475  0.9151 -1.3093  0.7553
   19MOL   H51414230   1.449   7.276   6.243  0.5628  0.4864 -0.0724
   19MOL   H51514231   1.406   7.440   6.248  2.6162  0.3742 -1.0330
   19MOL   H51614232   1.580   7.295   6.456  1.3897  0.7994  1.1227
   19MOL   H51714233   1.541   7.467   6.461  1.0542 -0.5879  0.0835
   19MOL   H51814234   1.679   7.516   6.266  1.7904 -0.1576  0.0776
   19MOL   H51914235   1.661   7.359   6.212  0.3862  0.6036  0.3345
   19MOL   H52014236   1.870   7.267   6.222  1.0958  0.9565  0.3434
   19MOL   H52114237   2.054   7.329   6.426  0.9229 -0.4701  0.0320
   19MOL   H52214238   1.985   7.175   6.461 -1.2652  1.6927  0.3603
   19MOL   H52314239   2.056   7.115   6.219 -2.5172  1.4281  1.2977
   19MOL   H52414240   2.155   7.266   6.224  0.0980  1.3163  1.7990
   19MOL   H52514241   2.259   7.025   6.304  0.6059  1.2552 -1.5421
   19MOL   H52614242   2.161   7.066   6.449 -1.0702 -1.0302 -1.6376
   19MOL   H52714243   2.367   7.235   6.314  0.0196 -1.6106 -0.2919
   19MOL   H52814244   2.301   7.277   6.471  2.1641  0.4630  0.4477
   19MOL   H52914245   2.488   7.058   6.404  0.9742  2.4211 -0.5856
   19MOL   H53014246   2.526   7.199   6.488  0.6769 -0.4642 -0.9191
   19MOL   H53114247   2.308   7.018   6.611  0.4486 -0.3930  0.5914
   19MOL   H53214248   2.362   7.173   6.668  0.5339 -0.2043  0.5266
   19MOL   H53314249   2.537   7.079   6.767 -1.1723 -0.4893  0.7895
   19MOL   C53414250   2.572   6.913   6.659 -0.2681 -0.6623 -0.0139
   19MOL   O53514251   2.517   6.831   6.590 -0.1792  0.1070 -0.1927
   19MOL   C53614252   2.721   6.906   6.691 -0.8881 -0.5741  0.2657
   19MOL   C53714253   2.807   6.907   6.566  0.7901 -0.4077  0.1503
   19MOL   C53814254   2.955   6.913   6.598 -0.5073  0.0979 -0.1986
   19MOL   C53914255   3.001   7.048   6.660  0.0630 -0.3571  0.4047
   19MOL   C54014256   3.152   7.063   6.668  0.6941  0.0536  0.1645
   19MOL   O54114257   3.229   6.983   6.613 -0.0264  0.1094  0.2846
   19MOL   N54214258   3.195   7.161   6.752 -0.0188  0.7444  0.5238
   19MOL   C54314259   3.337   7.186   6.768 -0.6468  0.5330 -0.6102
   19MOL   C54414260   3.350   7.260   6.901  0.0620 -0.1925  0.1973
   19MOL   C54514261   3.289   7.181   7.018 -0.0860  0.2633  1.2162
   19MOL   C54614262   3.317   7.259   7.150  0.3356  0.2518 -0.1652
   19MOL   C54714263   3.435   7.211   7.236 -0.0199 -0.7939 -0.3041
   19MOL   C54814264   3.476   7.312   7.346 -0.7515 -0.4741  0.3156
   19MOL   N54914265   3.593   7.270   7.418  0.1324  0.0653 -0.9571
   19MOL   H55014266   2.740   6.983   6.767  0.8059  0.7180 -1.4186
   19MOL   H55114267   2.734   6.812   6.744  0.5905 -0.6461 -0.2017
   19MOL   H55214268   2.790   6.816   6.507  0.1466  0.1423 -0.5164
   19MOL   H55314269   2.791   6.988   6.496 -0.0220 -1.7903 -1.2896
   19MOL   H55414270   3.017   6.897   6.510 -0.2113 -0.6936  0.1427
   19MOL   H55514271   2.993   6.831   6.660 -1.4766  0.4185  0.8508
   19MOL   H55614272   2.963   7.052   6.762 -1.2824 -1.7655 -0.0290
   19MOL   H55714273   2.955   7.132   6.609  1.9615  0.5206  0.0853
   19MOL   H55814274   3.121   7.218   6.788  0.3728  0.9912  0.9426
   19MOL   H55914275   3.393   7.093   6.771 -0.3077  0.7803  1.0744
   19MOL   H56014276   3.372   7.232   6.676 -2.6934  1.4204 -0.9895
   19MOL   H56114277   3.456   7.262   6.926  0.5462 -2.3440 -1.5130
   19MOL   H56214278   3.310   7.361   6.891  0.9988  0.1336 -0.2715
   19MOL   H56314279   3.330   7.080   7.020 -1.0001 -0.1849 -0.6717
   19MOL   H56414280   3.181   7.173   7.001 -0.1320  3.8652 -0.5933
   19MOL   H56514281   3.324   7.363   7.117  3.2241 -0.1088 -0.8295
   19MOL   H56614282   3.220   7.260   7.199  0.1657 -0.9662 -0.4662
   19MOL   H56714283   3.404   7.118   7.283  0.6918 -1.2031 -0.6319
   19MOL   H56814284   3.519   7.181   7.173 -0.6088 -2.3734 -0.3575
   19MOL   H56914285   3.398   7.324   7.420 -2.4865 -0.7638 -1.4221
   19MOL   H57014286   3.502   7.410   7.306  1.4738 -1.3413 -0.4622
   19MOL   H57114287   3.681   7.288   7.372 -0.5444  2.2472 -1.4308
   19MOL   C57214288   3.590   7.177   7.509 -0.2429  0.6600 -0.0197
   19MOL   O57314289   3.484   7.135   7.549  0.0329  0.5939 -0.1603
   19MOL   C57414290   3.723   7.134   7.574  0.1557  0.1683  0.5815
   19MOL   C57514291   3.731   7.167   0.018  0.2570 -0.9273 -0.5047
   19MOL   C57614292   3.784   7.309   0.045  0.2881 -0.0507  0.6984
   19MOL   C57714293   3.791   7.350   0.192 -0.4148  0.3616  0.0964
   19MOL   C57814294   3.864   7.255   0.286 -0.1918  0.5273 -0.3562
   19MOL   O57914295   3.976   7.219   0.251  0.2271  0.2856 -0.2693
   19MOL   N58014296   3.816   7.202   0.398  0.1586 -0.6215  0.3554
   19MOL   C58114297   3.881   7.105   0.478 -0.2736  0.8915  0.2732
   19MOL   C58214298   3.834   7.096   0.621  0.0114  0.2369 -1.0886
   19MOL   C58314299   3.921   7.011   0.703  0.1858 -0.3514 -0.3258
   19MOL   C58414300   3.869   6.970   0.840  0.5664 -0.4368  0.2524
   19MOL   C58514301   3.964   6.892   0.932 -0.7495  0.6195 -0.3639
   19MOL   C58614302   3.890   6.842   1.057  0.1605 -0.0665  0.4708
   19MOL   N58714303   3.977   6.786   1.155 -0.1562 -0.4057 -0.1975
   19MOL   H58814304   3.725   7.026   7.569  1.4256  0.1440  1.5150
   19MOL   H58914305   3.808   7.160   7.511 -1.0411 -0.3135 -1.2789
   19MOL   H59014306   3.641   7.151   0.078  1.7595 -4.0020  1.0459
   19MOL   H59114307   3.805   7.107   0.071  0.0363  1.7688  3.0245
   19MOL   H59214308   3.732   7.387   7.698 -1.0037 -1.5758 -0.2665
   19MOL   H59314309   3.880   7.309   7.701  0.4456  0.1003  0.9832
   19MOL   H59414310   3.691   7.378   0.226 -0.3155  1.3730 -0.4118
   19MOL   H59514311   3.840   7.447   0.191 -1.0132  0.6811  1.3929
   19MOL   H59614312   3.732   7.248   0.432  0.2436 -0.0723 -0.1820
   19MOL   H59714313   3.877   7.009   0.426 -1.2069  0.2173  1.5674
   19MOL   H59814314   3.986   7.132   0.486  0.3044 -1.4095  0.8824
   19MOL   H59914315   3.835   7.197   0.663 -0.3053 -1.2318  2.6175
   19MOL   H60014316   3.729   7.066   0.621 -0.6528  2.4338 -0.9914
   19MOL   H60114317   4.020   7.056   0.707  1.2884 -2.5828 -1.8464
   19MOL   H60214318   3.933   6.918   0.648  1.8563  0.4131 -1.2688
   19MOL   H60314319   3.839   7.064   0.887 -0.9652  0.1892 -1.9196
   19MOL   H60414320   3.783   6.906   0.822 -0.4439  1.0900 -0.4098
   19MOL   H60514321   4.015   6.811   0.881 -0.6100  0.6277 -0.2392
   19MOL   H60614322   4.051   6.953   0.954  0.1483 -1.0361  0.7574
   19MOL   H60714323   3.823   6.763   1.023  0.1924  0.8735 -1.8976
   19MOL   H60814324   3.838   6.928   1.099  0.4715  0.1764  0.3676
   19MOL   H60914325   4.077   6.797   1.142  0.2249 -2.0104  1.2161
   19MOL   C61014326   3.936   6.698   1.249  0.3220  0.2819 -0.1951
   19MOL   O61114327   3.827   6.641   1.252 -0.6749 -0.0426 -0.4315
   19MOL   C61214328   4.031   6.669   1.370  0.4180 -0.1018  0.3939
   19MOL   C61314329   4.017   6.530   1.437 -0.2401 -0.5596 -0.2899
   19MOL   C61414330   4.148   6.476   1.503  0.4175  0.5786  0.0524
   19MOL   C61514331   4.204   6.548   1.636  0.2860 -0.6056 -0.7983
   19MOL   C61614332   4.339   6.496   1.678  0.8116  0.4780 -0.1059
   19MOL   O61714333   4.349   6.378   1.694 -0.4532 -0.3981 -0.2266
   19MOL   N61814334   4.432   6.585   1.697  0.4289  1.0755 -0.0277
   19MOL   C61914335   4.562   6.547   1.757 -0.3805  0.3805  0.0132
   19MOL   C62014336   4.653   6.470   1.665  0.4767 -0.6303  0.3380
   19MOL   C62114337   4.797   6.459   1.713 -0.2074  0.0013 -0.2407
   19MOL   C62214338   4.882   6.592   1.705  0.3462 -0.2365  0.4641
   19MOL   C62314339   4.888   6.656   1.563  0.0775 -0.1008 -0.9960
   19MOL   C62414340   4.952   6.794   1.557 -0.3136 -0.4781  0.2315
   19MOL   N62514341   4.998   6.830   1.419 -0.0232  0.1609 -0.3495
   19MOL   H62614342   4.135   6.672   1.339  0.3212 -0.2006  0.0585
   19MOL   H62714343   4.024   6.753   1.439  1.0156 -1.7888  2.5711
   19MOL   H62814344   3.932   6.539   1.504  0.9741  0.3293  1.1541
   19MOL   H62914345   3.975   6.452   1.372 -1.3662 -1.9150  1.9919
   19MOL   H63014346   4.231   6.504   1.438  1.8159 -0.9891  1.1150
   19MOL   H63114347   4.134   6.371   1.525  2.6780  0.6015  1.6988
   19MOL   H63214348   4.132   6.517   1.712  0.5975  1.2474  0.2859
   19MOL   H63314349   4.211   6.654   1.612 -2.9866  0.0968  1.0533
   19MOL   H63414350   4.417   6.682   1.670  1.3558  1.5141  1.0014
   19MOL   H63514351   4.617   6.638   1.782  2.6116 -1.5758  0.7657
   19MOL   H63614352   4.533   6.497   1.849 -1.1745 -1.6358 -1.2896
   19MOL   H63714353   4.607   6.374   1.645 -1.4009  0.1805  0.6597
   19MOL   H63814354   4.652   6.534   1.577  1.6097  0.4713  1.0941
   19MOL   H63914355   4.852   6.389   1.651 -0.2489  0.2241 -0.5294
   19MOL   H64014356   4.800   6.420   1.815 -0.9467 -0.6681 -0.4650
   19MOL   H64114357   4.836   6.667   1.770 -0.3806  0.2753 -0.6395
   19MOL   H64214358   4.979   6.568   1.749 -0.1412  0.6528  2.0993
   19MOL   H64314359   4.961   6.595   1.510 -0.1839 -0.4673 -0.9370
   19MOL   H64414360   4.797   6.674   1.507  0.2532 -0.8314 -1.5183
   19MOL   H64514361   5.042   6.804   1.618  0.5899  0.8010 -1.2479
   19MOL   H64614362   4.877   6.864   1.596  1.3125  0.8149  1.1232
   19MOL   H64714363   5.063   6.771   1.369  0.4566  0.2287  0.1805
   19MOL   C64814364   4.949   6.930   1.353 -0.5710  0.8175 -0.5162
   19MOL   O64914365   4.862   6.999   1.406 -0.0901  0.8281 -0.1687
   19MOL   C65014366   5.000   6.958   1.219  0.3995  0.7891  0.2980
   19MOL   C65114367   4.915   7.052   1.138  0.7344 -0.4303  0.7177
   19MOL   C65214368   4.998   7.098   1.014  0.2158  0.6721  0.2754
   19MOL   C65314369   4.922   7.190   0.917 -0.1254  0.1205 -0.0439
   19MOL   C65414370   4.808   7.119   0.857 -0.0358  0.1469  0.0122
   19MOL   O65514371   4.694   7.147   0.888  0.8977 -0.1249  0.6252
   19MOL   N65614372   4.851   7.027   0.766  0.4779  0.6443 -0.2536
   19MOL   C65714373   4.762   6.955   0.680 -0.5964  1.1289 -0.1847
   19MOL   C65814374   4.839   6.906   0.559  0.5363  0.5747 -0.3615
   19MOL   C65914375   4.741   6.846   0.457  0.5020 -0.7517 -0.1484
   19MOL   C66014376   4.822   6.789   0.340  0.6767  0.1704 -0.6154
   19MOL   C66114377   4.734   6.746   0.228 -0.1313 -0.6997  0.3228
   19MOL   C66214378   4.673   6.857   0.128  0.5736  0.1528  0.6203
   19MOL   N66314379   4.613   6.796   0.011  0.2294  0.2236  0.6019
   19MOL   H66414380   5.102   6.991   1.235  0.5890 -0.2972  1.4565
   19MOL   H66514381   5.015   6.865   1.164 -1.7567  1.1085 -0.8708
   19MOL   H66614382   4.829   7.000   1.096 -0.7307  0.0582  3.0325
   19MOL   H66714383   4.893   7.143   1.194  1.9260 -0.3674  1.0964
   19MOL   H66814384   5.028   7.001   0.973 -4.4569 -0.9411  0.3498
   19MOL   H66914385   5.082   7.159   1.047  0.7470  1.9038 -3.1261
   19MOL   H67014386   4.986   7.236   0.843  0.1938  0.0199  0.1690
   19MOL   H67114387   4.874   7.267   0.978  1.2948  1.8530 -1.0913
   19MOL   H67214388   4.950   7.022   0.745  0.2286  0.4744 -1.4132
   19MOL   H67314389   4.722   6.869   0.733  2.5503 -0.9104 -0.9885
   19MOL   H67414390   4.688   7.032   0.660  0.9063  3.1176  1.6436
   19MOL   H67514391   4.891   6.994   0.520  4.6320 -0.2106  2.9462
   19MOL   H67614392   4.912   6.831   0.588 -2.2895 -1.0852  2.8718
   19MOL   H67714393   4.670   6.919   0.418 -0.7584 -1.7533  0.2460
   19MOL   H67814394   4.690   6.760   0.500  0.5852 -0.1854  1.1217
   19MOL   H67914395   4.897   6.861   0.308  0.7128  0.4795  0.1791
   19MOL   H68014396   4.887   6.706   0.369 -0.9674 -0.3126  1.7545
   19MOL   H68114397   4.791   6.676   0.167  1.9115  1.3090 -0.1689
   19MOL   H68214398   4.652   6.687   0.268 -2.1241  1.8437  0.1414
   19MOL   H68314399   4.755   6.926   0.108  0.9450 -0.2189  0.8550
   19MOL   H68414400   4.590   6.904   0.181  1.9991  1.2000  1.9522
   19MOL   H68514401   4.575   6.703   0.025  2.1001 -0.7420 -0.6347
   19MOL   C68614402   4.603   6.856   7.599  0.7071  0.3281  0.2545
   19MOL   O68714403   4.636   6.976   7.594 -0.5366 -0.2482  0.4974
   19MOL   C68814404   4.528   6.782   7.480  0.1436 -0.1760 -0.5586
   19MOL   C68914405   4.610   6.810   7.345  0.0042 -0.9301 -0.5687
   19MOL   C69014406   4.540   6.762   7.219 -0.1718 -0.1165 -0.6218
   19MOL   C69114407   4.622   6.783   7.089  0.2426 -0.1354 -0.1214
   19MOL   C69214408   4.751   6.706   7.083  0.6964 -0.4755 -0.3926
   19MOL   O69314409   4.753   6.586   7.069  0.1395  0.1450  0.2725
   19MOL   N69414410   4.857   6.787   7.090 -0.2585  0.2572 -0.3286
   19MOL   C69514411   4.998   6.749   7.124  0.0537  0.0609  0.4638
   19MOL   C69614412   5.021   6.762   7.272 -0.0740  0.4598  0.2842
   19MOL   C69714413   5.172   6.748   7.309 -0.0447 -0.4050  0.0870
   19MOL   C69814414   5.207   6.781   7.455  0.2536 -0.8242  0.4742
   19MOL   C69914415   5.314   6.691   7.521 -0.7760  1.1922  0.1917
   19MOL   C70014416   5.373   6.765   7.644  1.0302  0.2028  0.2606
   19MOL   N70114417   5.478   6.681   7.699  0.0454  0.7820  0.0804
   19MOL   H70214418   4.524   6.675   7.498 -1.4319 -0.0390 -0.0951
   19MOL   H70314419   4.425   6.818   7.485 -0.3189 -1.3980 -1.2113
   19MOL   H70414420   4.633   6.917   7.341 -1.4630 -0.4426  2.2893
   19MOL   H70514421   4.714   6.779   7.357  0.2996  0.3721  0.3213
   19MOL   H70614422   4.455   6.830   7.215 -1.4558 -1.6788 -0.2727
   19MOL   H70714423   4.500   6.662   7.233  3.1913 -2.0318 -3.8650
   19MOL   H70814424   4.643   6.890   7.083  0.1579 -0.2238 -2.2537
   19MOL   H70914425   4.568   6.752   7.000  0.5399  0.6329 -0.5715
   19MOL   H71014426   4.837   6.886   7.090 -0.5983  0.1965 -1.5954
   19MOL   H71114427   5.006   6.644   7.099 -0.6755 -0.4815  2.3591
   19MOL   H71214428   5.079   6.801   7.074  0.8449 -0.7251  0.9355
   19MOL   H71314429   4.992   6.861   7.308 -0.7773  0.1739  0.5007
   19MOL   H71414430   4.956   6.695   7.328  0.7601 -0.4182  0.2206
   19MOL   H71514431   5.232   6.819   7.252 -1.3595  0.1832 -0.5827
   19MOL   H71614432   5.206   6.648   7.283 -0.9225 -0.4119 -1.0838
   19MOL   H71714433   5.242   6.884   7.456 -0.5926 -0.4455 -2.4690
   19MOL   H71814434   5.117   6.775   7.516 -0.5119  0.9514 -0.4365
   19MOL   H71914435   5.274   6.596   7.558 -0.6419  1.7583  1.8296
   19MOL   H72014436   5.389   6.665   7.447  1.3189 -0.4604  2.7690
   19MOL   H72114437   5.305   6.794   0.016  0.2715 -0.7701 -0.0195
   19MOL   H72214438   5.414   6.863   7.618 -1.9244  1.3831 -0.0935
   19MOL   H72314439   5.564   6.676   7.646  0.1906 -0.3593  0.4041
   19MOL   C72414440   5.448   6.589   0.083 -0.5642 -1.0011  0.0052
   19MOL   O72514441   5.345   6.589   0.145 -0.6438  0.1920 -0.2393
   19MOL   C72614442   5.550   6.479   0.114  0.1800  0.6676 -0.1258
   19MOL   C72714443   5.486   6.343   0.076 -0.6224  0.3096  0.0826
   19MOL   C72814444   5.463   6.328   7.635  0.2604  0.4024  0.2845
   19MOL   C72914445   5.427   6.178   7.602  0.2747  0.6026 -0.4087
   19MOL   C73014446   5.277   6.133   7.618  0.5457 -0.1242  0.1427
   19MOL   O73114447   5.206   6.167   0.004  0.3487 -0.2285 -0.0287
   19MOL   N73214448   5.221   6.048   7.525 -0.4849 -0.0192 -0.1023
   19MOL   C73314449   5.078   6.040   7.502 -0.3721  1.0036  0.2019
   19MOL   C73414450   5.001   5.972   7.613 -0.1273  0.1669 -0.0541
   19MOL   C73514451   5.049   5.839   7.647 -0.0470 -0.4277  0.8038
   19MOL   C73614452   4.968   5.768   0.048  0.2467 -0.6429 -0.2653
   19MOL   C73714453   5.029   5.638   0.097  0.5920 -0.2966  0.4970
   19MOL   C73814454   4.926   5.561   0.178 -0.0296 -0.1641  0.0603
   19MOL   N73914455   4.963   5.419   0.197  0.1012 -0.0812 -0.0967
   19MOL   H74014456   5.647   6.507   0.072  1.1031  2.0971  2.8104
   19MOL   H74114457   5.557   6.482   0.223 -1.1772 -2.5701  0.1233
   19MOL   H74214458   5.550   6.276   0.133 -0.4581  1.9663  1.8844
   19MOL   H74314459   5.394   6.329   0.132  0.2645 -2.6216  0.9381
   19MOL   H74414460   5.561   6.355   7.596 -0.4253  1.1865 -0.9366
   19MOL   H74514461   5.384   6.393   7.596 -0.4900 -0.7202 -0.1096
   19MOL   H74614462   5.484   6.107   7.662  0.8631  1.8251  0.4968
   19MOL   H74714463   5.450   6.172   7.495  1.9247  2.1888 -0.1670
   19MOL   H74814464   5.276   6.061   7.442 -0.3995  2.4841  0.3071
   19MOL   H74914465   5.034   6.136   7.473 -3.7756  0.0814  2.0314
   19MOL   H75014466   5.069   5.975   7.415 -0.5305  1.7817 -0.3671
   19MOL   H75114467   5.003   6.022   0.002 -0.4713  1.1196 -0.5321
   19MOL   H75214468   4.894   5.962   7.593 -0.0865  1.1367 -0.7888
   19MOL   H75314469   5.149   5.844   7.690 -0.7436 -0.2300  2.4637
   19MOL   H75414470   5.060   5.771   7.562  1.2834 -1.5500  1.8549
   19MOL   H75514471   4.947   5.840   0.128  3.6369  0.8982 -0.6864
   19MOL   H75614472   4.871   5.761   7.706 -0.7199  1.2736  1.2280
   19MOL   H75714473   5.047   5.574   0.012 -1.0047 -0.6330  0.3896
   19MOL   H75814474   5.125   5.654   0.147  1.2196 -1.3142 -0.3702
   19MOL   H75914475   4.831   5.565   0.124  0.2885 -0.8456 -0.5633
   19MOL   H76014476   4.914   5.604   0.277 -0.7533  0.2006 -0.1830
   19MOL   H76114477   4.912   5.392   0.280 -1.6852  0.7122 -0.9101
   19MOL   H76214478   5.058   5.414   0.231 -0.1507  0.0103  0.6343
   20MOL     C114479   6.287   2.645   0.820  0.5062 -0.2339  0.3095
   20MOL     O214480   6.262   2.663   0.701  0.1852  0.7460  0.1670
   20MOL     C314481   6.194   2.725   0.915 -0.3673  0.0469  0.1250
   20MOL     C414482   6.249   2.742   1.066  0.9706 -0.3435 -0.2073
   20MOL     C514483   6.208   2.641   1.167 -0.1735 -0.3951  0.1168
   20MOL     C614484   6.059   2.636   1.196 -0.9891 -0.5407 -0.1974
   20MOL     C714485   6.030   2.561   1.330 -0.0359 -0.4811 -1.0026
   20MOL     O814486   6.120   2.538   1.409  0.4486 -0.2434  0.3361
   20MOL     N914487   5.906   2.510   1.341 -0.3436  0.1539 -0.6029
   20MOL    C1014488   5.860   2.421   1.443  0.5431  0.6466  0.4917
   20MOL    C1114489   5.921   2.280   1.452  0.4127 -0.2495 -0.0587
   20MOL    C1214490   5.892   2.217   1.588  0.2383 -1.2626  0.5979
   20MOL    C1314491   5.904   2.064   1.590 -0.3667  0.6375  0.1031
   20MOL    C1414492   5.913   2.010   1.738  0.2673 -0.2324  0.0317
   20MOL    C1514493   5.948   1.862   1.754 -0.3049 -0.4733 -0.4426
   20MOL    N1614494   5.898   1.788   1.638 -0.3630  0.2016  0.3866
   20MOL    H1714495   6.182   2.828   0.880 -0.4544 -0.4311 -1.2849
   20MOL    H1814496   6.099   2.674   0.926 -0.7240  0.4398 -1.0638
   20MOL    H1914497   6.357   2.748   1.060  0.7786  0.8059 -3.9986
   20MOL    H2014498   6.213   2.839   1.101 -2.2216 -0.7259 -2.1271
   20MOL    H2114499   6.267   2.671   1.254 -0.2902  2.4500 -0.7466
   20MOL    H2214500   6.245   2.541   1.145 -1.2904 -0.8599  0.3040
   20MOL    H2314501   6.004   2.572   1.127  1.8462 -0.4833 -2.5860
   20MOL    H2414502   6.004   2.730   1.199 -0.9336 -0.5284  0.4612
   20MOL    H2514503   5.830   2.558   1.295 -0.9585  0.0456  0.2929
   20MOL    H2614504   5.878   2.475   1.536  3.3480  1.3539 -0.4123
   20MOL    H2714505   5.751   2.420   1.447  0.4921 -1.0005 -0.8774
   20MOL    H2814506   5.901   2.212   1.369  0.7947 -2.9099  1.9283
   20MOL    H2914507   6.029   2.288   1.444  0.5794 -0.5631  1.6650
   20MOL    H3014508   5.789   2.239   1.616  0.6081  0.6825  0.4786
   20MOL    H3114509   5.946   2.262   1.671 -1.5543 -1.0042  1.6552
   20MOL    H3214510   5.816   2.014   1.550  0.2930 -1.1722  0.8216
   20MOL    H3314511   5.983   2.013   1.535 -1.4466 -0.8748 -0.0738
   20MOL    H3414512   5.990   2.075   1.779  0.2632 -0.7254  0.8442
   20MOL    H3514513   5.817   2.016   1.790  0.6297  0.9562  0.5822
   20MOL    H3614514   5.906   1.822   1.847 -0.7180 -0.7398 -0.7410
   20MOL    H3714515   6.055   1.850   1.769 -0.1275  2.3364  0.7362
   20MOL    H3814516   5.957   1.782   1.556 -2.1846 -0.2559 -0.9112
   20MOL    H3914517   6.363   2.587   0.872  1.2987  0.0095 -0.5695
   20MOL    C4014518   5.787   1.721   1.621  0.1119  0.2580  0.0131
   20MOL    O4114519   5.717   1.694   1.720 -0.2567  0.1701 -0.2330
   20MOL    C4214520   5.755   1.685   1.479  0.0039 -0.3022  0.4950
   20MOL    C4314521   5.706   1.538   1.466 -0.8699  0.3269 -0.0325
   20MOL    C4414522   5.694   1.486   1.325  0.4672 -0.2362 -1.1887
   20MOL    C4514523   5.681   1.333   1.315  0.5854 -0.0517 -0.6948
   20MOL    C4614524   5.542   1.289   1.359 -0.3697 -0.0522 -0.1554
   20MOL    O4714525   5.451   1.290   1.270  0.2131 -0.1159 -0.1069
   20MOL    N4814526   5.518   1.245   1.486  0.4444  0.6243 -0.1008
   20MOL    C4914527   5.391   1.193   1.536  0.4372 -0.6166  0.2130
   20MOL    C5014528   5.310   1.304   1.594  0.0532 -0.0291 -0.2184
   20MOL    C5114529   5.185   1.237   1.651  0.0239  0.2675  0.2739
   20MOL    C5214530   5.085   1.339   1.692 -0.3409  0.0743 -0.9767
   20MOL    C5314531   4.981   1.294   1.798 -0.7416 -0.0302  0.1556
   20MOL    C5414532   5.039   1.231   1.919 -0.1849  0.0941  0.0500
   20MOL    N5514533   4.939   1.216   2.023 -0.4826  0.4784 -0.0264
   20MOL    H5614534   5.680   1.753   1.438  0.6124  1.4874  2.3117
   20MOL    H5714535   5.837   1.714   1.414 -0.4415 -1.1650 -0.4787
   20MOL    H5814536   5.768   1.473   1.526 -0.0765  0.2241 -0.9599
   20MOL    H5914537   5.606   1.542   1.510 -1.2668  0.4771 -0.9192
   20MOL    H6014538   5.792   1.514   1.288  0.4921 -1.1460 -1.8366
   20MOL    H6114539   5.613   1.533   1.269 -2.0789 -1.3595  1.4151
   20MOL    H6214540   5.757   1.279   1.371 -0.7664 -0.4685  0.7623
   20MOL    H6314541   5.691   1.302   1.211 -1.4474 -1.2343 -0.5640
   20MOL    H6414542   5.599   1.238   1.545  1.5843 -2.2295 -1.9040
   20MOL    H6514543   5.338   1.141   1.456 -0.6744  0.3488  0.3042
   20MOL    H6614544   5.415   1.126   1.618  0.4400 -1.2331 -0.2865
   20MOL    H6714545   5.368   1.356   1.670 -1.4815  2.6703 -0.8226
   20MOL    H6814546   5.286   1.375   1.514  0.9733  0.7003  0.1382
   20MOL    H6914547   5.211   1.180   1.740  0.2468 -1.6371 -0.9808
   20MOL    H7014548   5.144   1.161   1.585 -1.4273  2.5726 -1.5480
   20MOL    H7114549   5.141   1.423   1.732  0.3323 -0.4054 -0.9148
   20MOL    H7214550   5.028   1.370   1.604 -0.9790 -0.9179 -0.9291
   20MOL    H7314551   4.925   1.380   1.835  1.3806  0.2713  2.8598
   20MOL    H7414552   4.903   1.231   1.757 -0.3121 -0.4374 -0.0476
   20MOL    H7514553   5.124   1.287   1.958  1.1742 -1.5711 -0.4957
   20MOL    H7614554   5.075   1.136   1.882  1.5766  1.3384 -1.5286
   20MOL    H7714555   4.907   1.304   2.061 -3.0715 -0.6626  0.5692
   20MOL    C7814556   4.897   1.110   2.090  0.2118  0.1808  0.0847
   20MOL    O7914557   4.809   1.112   2.171 -0.0922 -0.2549 -0.3752
   20MOL    C8014558   4.947   0.973   2.037  0.4552  0.2607 -0.5384
   20MOL    C8114559   4.885   0.846   2.097 -0.4701 -0.0075 -0.2727
   20MOL    C8214560   4.948   0.798   2.225  0.1121  0.2673 -0.3834
   20MOL    C8314561   5.066   0.701   2.219  0.6031 -0.2232  0.5935
   20MOL    C8414562   5.200   0.756   2.183  0.1240  0.0425  0.4227
   20MOL    O8514563   5.226   0.784   2.065  0.1678  0.6964  0.5437
   20MOL    N8614564   5.287   0.780   2.284  0.3954 -0.4672 -0.4727
   20MOL    C8714565   5.396   0.881   2.279  0.9745  0.1454 -0.2507
   20MOL    C8814566   5.396   0.971   2.401 -0.4479  0.4413  0.1901
   20MOL    C8914567   5.267   1.056   2.421  0.6161 -0.7603  0.2867
   20MOL    C9014568   5.253   1.169   2.313  0.2489 -0.7414 -0.0169
   20MOL    C9114569   5.153   1.276   2.352  0.1376 -0.6177 -0.0958
   20MOL    C9214570   5.171   1.415   2.284  0.2904  0.2234 -0.2745
   20MOL    N9314571   5.060   1.504   2.323 -0.5746 -0.0637  0.1810
   20MOL    H9414572   4.903   0.965   1.938 -1.3133  0.2946  0.2327
   20MOL    H9514573   5.056   0.966   2.025  0.1288 -1.1196 -3.1868
   20MOL    H9614574   4.777   0.866   2.102 -0.8539 -1.5866 -1.7948
   20MOL    H9714575   4.906   0.772   2.020  0.1708  0.5042 -0.5958
   20MOL    H9814576   4.872   0.749   2.286 -1.0749  0.6145 -1.5391
   20MOL    H9914577   4.970   0.882   2.291  0.9008  0.6064 -1.0687
   20MOL   H10014578   5.041   0.621   2.149  0.6396 -0.2365  0.5958
   20MOL   H10114579   5.074   0.642   2.310  1.5663  1.6860  1.7642
   20MOL   H10214580   5.265   0.742   2.375  1.1275  2.0669  0.7822
   20MOL   H10314581   5.491   0.828   2.280  0.6536 -0.4374  1.0353
   20MOL   H10414582   5.384   0.943   2.190  2.6371  0.5526 -0.2122
   20MOL   H10514583   5.417   0.919   2.495  0.4852 -0.1159 -0.3230
   20MOL   H10614584   5.479   1.041   2.390  1.1683 -1.4581  0.0465
   20MOL   H10714585   5.265   1.099   2.521 -1.2320 -1.3768  0.5374
   20MOL   H10814586   5.171   1.003   2.424  0.2495 -0.3309 -2.4546
   20MOL   H10914587   5.352   1.207   2.287 -0.4986  0.6662 -0.8096
   20MOL   H11014588   5.213   1.114   2.228  0.3878 -1.9909  0.6972
   20MOL   H11114589   5.054   1.241   2.326 -0.0452  0.2432 -0.5989
   20MOL   H11214590   5.149   1.292   2.460 -0.3492 -0.0712 -0.1908
   20MOL   H11314591   5.191   1.406   2.177  2.3125 -0.7104  0.1494
   20MOL   H11414592   5.270   1.453   2.310  1.2846 -1.4042 -1.4808
   20MOL   H11514593   5.082   1.560   2.405 -0.8966  3.0787 -1.7820
   20MOL   C11614594   4.948   1.531   2.263  0.6765  0.7127 -0.5552
   20MOL   O11714595   4.917   1.478   2.156  0.4269 -0.2792  0.3490
   20MOL   C11814596   4.858   1.641   2.328 -0.0646  0.0122  0.0523
   20MOL   C11914597   4.862   1.774   2.250  0.4595  0.3491 -0.4648
   20MOL   C12014598   4.781   1.880   2.314  0.5248  0.0881 -0.0848
   20MOL   C12114599   4.816   2.016   2.254 -0.0098  0.0294 -0.0892
   20MOL   C12214600   4.722   2.133   2.291  0.0548  0.4897  0.4551
   20MOL   O12314601   4.645   2.165   2.205 -0.2231 -0.2606  0.1776
   20MOL   N12414602   4.742   2.197   2.404 -0.1972  0.1463 -0.0238
   20MOL   C12514603   4.675   2.325   2.428  0.8453  0.0859 -0.5655
   20MOL   C12614604   4.700   2.375   2.570  0.0987 -0.3119 -0.0388
   20MOL   C12714605   4.837   2.438   2.573 -0.1768  0.7493 -0.4106
   20MOL   C12814606   4.862   2.500   2.705 -1.1358 -0.2715 -0.1851
   20MOL   C12914607   5.004   2.540   2.746  0.1375 -0.2539 -0.3455
   20MOL   C13014608   5.105   2.422   2.728 -0.5434  0.2473 -0.3833
   20MOL   N13114609   5.241   2.455   2.779  0.5483  0.4633 -0.1184
   20MOL   H13214610   4.755   1.604   2.335 -0.1690  0.3745  0.4415
   20MOL   H13314611   4.879   1.649   2.435 -1.1061 -1.4360  0.3819
   20MOL   H13414612   4.965   1.800   2.225  1.8108 -2.2922  2.0037
   20MOL   H13514613   4.812   1.753   2.155 -1.5321 -1.0199  0.8333
   20MOL   H13614614   4.820   1.886   2.416  3.0961 -0.2544 -1.0141
   20MOL   H13714615   4.674   1.861   2.315  0.6417 -0.6384  1.4891
   20MOL   H13814616   4.815   2.011   2.145  3.0141  2.2315 -0.2570
   20MOL   H13914617   4.915   2.052   2.282  0.8640 -0.8011 -2.0363
   20MOL   H14014618   4.805   2.161   2.475 -0.3019 -1.4552 -0.7161
   20MOL   H14114619   4.700   2.385   2.340 -0.3051 -1.9192 -2.3228
   20MOL   H14214620   4.568   2.317   2.412  0.6737  1.6592 -0.2863
   20MOL   H14314621   4.626   2.451   2.594 -0.2440 -0.5960 -0.1820
   20MOL   H14414622   4.698   2.300   2.649 -0.4899 -0.3311 -0.0693
   20MOL   H14514623   4.843   2.512   2.493  0.1039  1.4045  0.2147
   20MOL   H14614624   4.914   2.362   2.556 -0.2392  0.5580  0.1743
   20MOL   H14714625   4.794   2.584   2.716 -1.0566  0.0793 -2.1446
   20MOL   H14814626   4.823   2.425   2.773 -0.0958  0.2691  1.0268
   20MOL   H14914627   5.032   2.629   2.689  1.4663 -0.1576  0.4233
   20MOL   H15014628   5.005   2.563   2.853  2.5802 -1.3108 -0.0996
   20MOL   H15114629   5.111   2.395   2.623  1.5401  2.0043 -0.7642
   20MOL   H15214630   5.069   2.333   2.780  0.4038  0.3217  0.4253
   20MOL   H15314631   5.272   2.547   2.748  2.1496  0.4978  1.4966
   20MOL   C15414632   5.315   2.381   2.858 -0.3684 -0.7386  0.0562
   20MOL   O15514633   5.286   2.264   2.883  0.0758 -0.3776 -0.3468
   20MOL   C15614634   5.433   2.450   2.924  0.4824 -0.2055  0.1361
   20MOL   C15714635   5.559   2.360   2.939  0.3028  0.8884 -0.1827
   20MOL   C15814636   5.564   2.269   3.069  0.1517 -0.2189 -0.1595
   20MOL   C15914637   5.698   2.211   3.112  0.0700 -0.0606 -0.5775
   20MOL   C16014638   5.771   2.114   3.017 -0.2379  1.0342 -0.1054
   20MOL   O16114639   5.731   2.001   2.998  0.0070  0.0720  0.2142
   20MOL   N16214640   5.879   2.159   2.949  0.0934  0.0806  1.0239
   20MOL   C16314641   5.921   2.299   2.929 -0.5498  0.4180 -0.2863
   20MOL   C16414642   5.992   2.296   2.795  0.1579  0.5754  0.9498
   20MOL   C16514643   6.105   2.399   2.773  0.0239  0.2493  0.5060
   20MOL   C16614644   6.171   2.405   2.639 -0.0689  0.0582  0.3828
   20MOL   C16714645   6.112   2.500   2.538 -0.2820 -1.1064  0.3756
   20MOL   C16814646   6.177   2.504   2.395  0.3442 -1.2479 -1.2035
   20MOL   N16914647   6.319   2.535   2.384 -0.5404 -0.1786  0.2811
   20MOL   H17014648   5.464   2.539   2.870 -2.9389  0.0709 -1.4554
   20MOL   H17114649   5.408   2.479   3.026  1.5760  0.9973  0.0711
   20MOL   H17214650   5.568   2.304   2.846 -2.4394 -1.2030  0.7376
   20MOL   H17314651   5.649   2.423   2.942  1.6531 -1.0503  1.4592
   20MOL   H17414652   5.480   2.200   3.066  0.3503 -0.4495 -0.4069
   20MOL   H17514653   5.524   2.328   3.152  1.7150  0.8695 -0.1716
   20MOL   H17614654   5.689   2.155   3.205  0.7172  0.1001 -0.4124
   20MOL   H17714655   5.763   2.294   3.142  1.1018 -1.0142 -0.1166
   20MOL   H17814656   5.907   2.080   2.892 -1.6723 -1.0138  1.6267
   20MOL   H17914657   5.840   2.372   2.933 -1.8321 -1.0782  2.1647
   20MOL   H18014658   5.982   2.323   3.016  0.5252  0.4978 -1.0493
   20MOL   H18114659   6.028   2.195   2.780  0.8235  1.1301 -1.4642
   20MOL   H18214660   5.923   2.310   2.711 -0.0854 -0.3555  0.9965
   20MOL   H18314661   6.187   2.371   2.838  0.1784 -0.0083  0.2024
   20MOL   H18414662   6.061   2.495   2.800  1.8201  1.4893 -0.8529
   20MOL   H18514663   6.272   2.440   2.658  0.5757 -1.3503 -0.3930
   20MOL   H18614664   6.168   2.300   2.610 -1.0616  0.1967 -0.0264
   20MOL   H18714665   6.010   2.466   2.521 -0.5009  0.6237 -2.1158
   20MOL   H18814666   6.109   2.594   2.593 -2.5774 -0.8534 -0.1433
   20MOL   H18914667   6.129   2.592   2.354  1.0516 -0.6504 -0.7554
   20MOL   H19014668   6.151   2.415   2.337 -0.7528 -2.2072  0.7193
   20MOL   H19114669   6.337   2.620   2.333 -1.0870  1.1177  2.2130
   20MOL   C19214670   6.415   2.438   2.377  0.5888 -0.3971 -0.0655
   20MOL   O19314671   6.393   2.322   2.406 -0.2352 -0.5473 -0.0586
   20MOL   C19414672   6.549   2.483   2.339 -0.4158  0.0325 -0.0570
   20MOL   C19514673   6.659   2.425   2.429 -0.0036  0.9695  0.1778
   20MOL   C19614674   6.797   2.462   2.369  0.4678 -0.6433 -0.3387
   20MOL   C19714675   6.828   2.611   2.396 -0.5555 -0.9539 -0.0241
   20MOL   C19814676   6.777   2.715   2.291 -0.4451  0.1470 -0.3546
   20MOL   O19914677   6.762   2.688   2.172  0.3659  0.0155 -0.0640
   20MOL   N20014678   6.747   2.832   2.346  0.0029 -0.0993  0.1887
   20MOL   C20114679   6.695   2.953   2.287 -0.2031  0.0185 -0.2799
   20MOL   C20214680   6.729   3.080   2.367 -0.3151  0.6023  1.0385
   20MOL   C20314681   6.656   3.208   2.338  0.2118  0.3364  0.1767
   20MOL   C20414682   6.504   3.202   2.361 -0.7806 -0.2670 -0.0060
   20MOL   C20514683   6.425   3.331   2.332 -0.3100  0.0591  0.3518
   20MOL   C20614684   6.276   3.314   2.291  0.3878  0.1543  0.0187
   20MOL   N20714685   6.215   3.444   2.260  0.6109  1.1007 -0.2759
   20MOL   H20814686   6.558   2.437   2.241 -2.5634  2.0104 -1.2372
   20MOL   H20914687   6.558   2.590   2.319  2.4934 -0.9956 -5.0420
   20MOL   H21014688   6.647   2.460   2.532  1.2627 -1.9330  1.3948
   20MOL   H21114689   6.649   2.317   2.442 -1.1864  1.1717  1.1229
   20MOL   H21214690   6.802   2.435   2.264 -0.0818 -0.7482 -0.3423
   20MOL   H21314691   6.879   2.400   2.406  1.1097 -1.2137 -2.6527
   20MOL   H21414692   6.936   2.614   2.404 -0.5341  3.0871 -0.8527
   20MOL   H21514693   6.798   2.632   2.499  1.4927  0.3834  0.3327
   20MOL   H21614694   6.773   2.839   2.444  0.7647  2.6125 -0.1625
   20MOL   H21714695   6.725   2.971   2.184 -0.7787  0.0681 -0.4404
   20MOL   H21814696   6.587   2.944   2.290 -0.2807  1.0924  0.6697
   20MOL   H21914697   6.731   3.055   2.473  1.2920 -1.4226  0.5571
   20MOL   H22014698   6.832   3.091   2.333 -0.7950 -0.8575 -0.9855
   20MOL   H22114699   6.678   3.243   2.237  0.7560  1.0379  0.5360
   20MOL   H22214700   6.700   3.274   2.412  2.4285 -0.9801  0.0945
   20MOL   H22314701   6.477   3.122   2.292 -0.2511  0.2237 -0.7998
   20MOL   H22414702   6.484   3.166   2.462 -1.4716 -2.2615 -0.8459
   20MOL   H22514703   6.432   3.393   2.421 -1.7863  0.6211  0.0864
   20MOL   H22614704   6.469   3.379   2.245  0.0752 -4.3854 -2.0851
   20MOL   H22714705   6.219   3.266   2.371  0.0746  0.3620 -0.0792
   20MOL   H22814706   6.276   3.246   2.206 -2.0212 -3.7989  2.9735
   20MOL   H22914707   6.220   3.511   2.336 -0.7066  2.8399 -1.6656
   20MOL   C23014708   6.143   3.474   2.154  0.6065 -0.0907 -0.0352
   20MOL   O23114709   6.128   3.384   2.071 -0.2811 -0.0031  0.0329
   20MOL   C23214710   6.079   3.612   2.141 -0.2387  0.1041 -0.3307
   20MOL   C23314711   6.115   3.678   2.006  0.2955  1.0205  0.4375
   20MOL   C23414712   6.245   3.760   2.023 -0.0045  0.0113  0.0385
   20MOL   C23514713   6.277   3.836   1.895  1.2842 -0.1830  0.6833
   20MOL   C23614714   6.410   3.904   1.924  0.3047 -0.3235  0.8870
   20MOL   O23714715   6.518   3.853   1.894  0.2014  0.0271 -0.8056
   20MOL   N23814716   6.406   4.020   1.996  0.2980  0.6376 -0.2316
   20MOL   C23914717   6.514   4.101   2.060  0.3957 -0.2685  0.2745
   20MOL   C24014718   6.508   4.080   2.214  0.0886 -0.2242  0.8634
   20MOL   C24114719   6.620   4.168   2.280  0.0236  0.6519 -0.6987
   20MOL   C24214720   6.758   4.118   2.263  0.0163 -0.5976  0.5022
   20MOL   C24314721   6.855   4.220   2.316  0.2400  0.3539 -0.2498
   20MOL   C24414722   7.001   4.168   2.307 -0.0650 -0.6095 -0.1444
   20MOL   N24514723   7.106   4.243   2.381 -0.0705 -0.0640  0.2485
   20MOL   H24614724   5.973   3.593   2.157  0.1054 -0.3860  1.5311
   20MOL   H24714725   6.118   3.673   2.222  0.1630  0.7724 -1.0206
   20MOL   H24814726   6.120   3.605   1.926 -2.2673  0.6520  0.5839
   20MOL   H24914727   6.033   3.747   1.987 -2.1795 -1.8467  0.4398
   20MOL   H25014728   6.324   3.693   2.059 -1.7869 -0.9341  2.3899
   20MOL   H25114729   6.236   3.835   2.102  2.2920  0.6468 -0.2740
   20MOL   H25214730   6.202   3.902   1.851  0.4866 -1.6096 -0.1274
   20MOL   H25314731   6.302   3.776   1.807  0.6400  0.9314 -0.2785
   20MOL   H25414732   6.317   4.046   2.036 -0.3823  0.0115 -1.3054
   20MOL   H25514733   6.611   4.084   2.014 -0.0224  0.0332 -0.7206
   20MOL   H25614734   6.491   4.207   2.049 -0.8620 -0.5112  0.4775
   20MOL   H25714735   6.414   4.107   2.261  1.1735  2.2401  1.7003
   20MOL   H25814736   6.525   3.976   2.242  0.6237 -0.8662 -1.6923
   20MOL   H25914737   6.591   4.169   2.385  1.3726 -0.1066 -0.3138
   20MOL   H26014738   6.612   4.271   2.245 -2.2055 -0.7754 -4.6882
   20MOL   H26114739   6.767   4.027   2.323 -1.5360  1.0904  3.3944
   20MOL   H26214740   6.781   4.084   2.162  1.5369 -1.7689  1.2084
   20MOL   H26314741   6.861   4.309   2.253  1.5012 -0.1835 -0.9187
   20MOL   H26414742   6.830   4.255   2.416  2.3604  0.1155  0.3846
   20MOL   H26514743   7.024   4.176   2.201 -2.7744  1.2850 -0.6522
   20MOL   H26614744   7.014   4.069   2.350  0.1168 -0.0347  1.1805
   20MOL   H26714745   7.065   4.308   2.447  0.9231  1.8349 -0.9485
   20MOL   C26814746   7.230   4.257   2.336  0.4824  0.0779 -0.2891
   20MOL   O26914747   7.272   4.196   2.237 -0.2957 -0.2123  0.4741
   20MOL   C27014748   7.319   4.348   2.420  1.3580 -0.5319 -0.3572
   20MOL   C27114749   7.463   4.365   2.357 -0.4360  0.7010 -0.3032
   20MOL   C27214750   7.571   4.432   2.451  0.4317 -0.1014  0.0695
   20MOL   C27314751   7.559   4.587   2.455  0.4787 -0.1212 -0.1595
   20MOL   C27414752   7.604   4.643   2.321 -0.2934 -0.0324 -0.0443
   20MOL   O27514753   0.000   4.611   2.267  0.0004 -0.3580 -0.1626
   20MOL   N27614754   7.520   4.733   2.268 -0.2342 -0.1361 -0.5153
   20MOL   C27714755   7.545   4.796   2.141 -0.3194  0.3958 -1.1968
   20MOL   C27814756   7.477   4.936   2.137  0.0494 -0.4564  0.3698
   20MOL   C27914757   7.537   5.025   2.023 -0.1151 -0.0645  1.2817
   20MOL   C28014758   7.666   5.096   2.055 -0.9401 -0.8357  0.5638
   20MOL   C28114759   7.701   5.198   1.939 -0.1642 -0.0167  0.2947
   20MOL   C28214760   0.137   5.265   1.949  0.8673  0.5175  0.2135
   20MOL   N28314761   0.151   5.348   1.824 -0.2733 -0.3833 -1.0098
   20MOL   H28414762   7.266   4.442   2.405 -0.2080 -1.6050 -1.7418
   20MOL   H28514763   7.318   4.307   2.520  1.9941 -3.5371 -1.5320
   20MOL   H28614764   7.502   4.263   2.349  0.7864  1.2870 -1.8916
   20MOL   H28714765   7.463   4.409   2.257 -0.1346  0.5224 -0.3801
   20MOL   H28814766   7.671   4.396   2.428  0.9022 -0.2289  2.1657
   20MOL   H28914767   7.558   4.390   2.551 -0.8334  0.2481  0.0742
   20MOL   H29014768   7.618   4.630   2.536  0.0996 -3.3181  1.9096
   20MOL   H29114769   7.455   4.617   2.468  1.1683  2.9180 -1.3192
   20MOL   H29214770   7.434   4.755   2.316  0.1969  0.3877  0.0218
   20MOL   H29314771   7.649   4.811   2.111 -0.0069 -1.0621 -0.8452
   20MOL   H29414772   7.503   4.735   2.061 -0.8172 -0.2414 -0.4580
   20MOL   H29514773   7.370   4.923   2.118 -0.2813  0.0501  1.8266
   20MOL   H29614774   7.498   4.994   2.227 -1.4028 -1.5022  1.3988
   20MOL   H29714775   7.462   5.104   2.012  1.3517  0.9451 -2.1131
   20MOL   H29814776   7.545   4.964   1.933 -0.4681  0.1253  1.1162
   20MOL   H29914777   7.661   5.152   2.148 -0.0100 -2.3838  1.5668
   20MOL   H30014778   0.048   5.035   2.061  0.3891  0.6678 -2.5295
   20MOL   H30114779   7.703   5.144   1.844 -0.1197  0.6488 -0.0842
   20MOL   H30214780   7.618   5.268   1.932  1.5351  2.1762  1.3863
   20MOL   H30314781   0.211   5.186   1.951  0.3461  0.0340  1.1089
   20MOL   H30414782   0.147   5.325   2.040 -0.2210  0.2412  0.5303
   20MOL   H30514783   0.119   5.297   1.743  0.2850 -0.3637 -1.2470
   20MOL   C30614784   0.217   5.463   1.816 -1.3710 -0.1139 -0.0030
   20MOL   O30714785   0.260   5.516   1.919 -0.1644  0.2690 -0.0594
   20MOL   C30814786   0.234   5.514   1.669  0.5847 -0.1845  0.1147
   20MOL   C30914787   0.365   5.469   1.608  0.1785 -0.0883  0.4477
   20MOL   C31014788   0.479   5.550   1.658  0.2499 -0.0095  0.4883
   20MOL   C31114789   0.616   5.520   1.595 -0.5115 -0.1075  0.2530
   20MOL   C31214790   0.700   5.400   1.647 -0.1557 -0.2940 -0.2450
   20MOL   O31314791   0.824   5.407   1.657 -0.3254  0.0228  0.1917
   20MOL   N31414792   0.632   5.288   1.686 -0.5874  0.4097  0.2633
   20MOL   C31514793   0.698   5.171   1.749 -0.2398 -0.7836  0.1477
   20MOL   C31614794   0.692   5.190   1.901  0.0288  0.1213  0.3085
   20MOL   C31714795   0.559   5.210   1.974 -0.3454  0.1748 -0.2981
   20MOL   C31814796   0.572   5.228   2.120 -0.8743  0.5851 -0.1635
   20MOL   C31914797   0.449   5.194   2.203  0.4182 -0.1344 -0.0464
   20MOL   C32014798   0.456   5.226   2.352 -0.2930  0.0222  0.0884
   20MOL   N32114799   0.585   5.183   2.414 -0.2552  0.3570 -0.0747
   20MOL   H32214800   0.160   5.472   1.600  1.4916 -0.6895 -0.5581
   20MOL   H32314801   0.208   5.620   1.662  0.0936 -0.2831  0.4252
   20MOL   H32414802   0.369   5.361   1.623  1.1985 -0.2662 -0.9948
   20MOL   H32514803   0.357   5.467   1.499  3.3850 -0.5653  0.1806
   20MOL   H32614804   0.490   5.555   1.767  1.7295 -0.6242  0.3841
   20MOL   H32714805   0.453   5.652   1.631 -0.2660 -0.5580 -1.0993
   20MOL   H32814806   0.679   5.609   1.600 -2.8512  1.4779  3.2246
   20MOL   H32914807   0.592   5.504   1.490  3.0999  0.0323 -0.6633
   20MOL   H33014808   0.531   5.283   1.680 -0.4159 -1.6767 -1.5351
   20MOL   H33114809   0.651   5.079   1.715 -0.2447 -0.9309  0.5427
   20MOL   H33214810   0.803   5.160   1.725 -0.8907 -1.2372 -2.5691
   20MOL   H33314811   0.727   5.096   1.946  1.8914 -0.0229 -1.3732
   20MOL   H33414812   0.767   5.265   1.927 -0.8283  0.5793  1.4830
   20MOL   H33514813   0.494   5.128   1.941  0.9160 -0.9635  0.0202
   20MOL   H33614814   0.499   5.295   1.940  2.6104  2.2073 -0.5809
   20MOL   H33714815   0.653   5.169   2.163 -1.2262 -0.3549 -0.7802
   20MOL   H33814816   0.611   5.329   2.139 -1.3437  0.2665  2.8348
   20MOL   H33914817   0.358   5.237   2.163 -0.4047 -3.2230 -1.6208
   20MOL   H34014818   0.430   5.087   2.191  1.8816 -0.2573 -1.3601
   20MOL   H34114819   0.365   5.185   2.396 -0.1212 -1.8004 -1.2097
   20MOL   H34214820   0.446   5.335   2.352 -1.5895 -0.0838  1.1343
   20MOL   H34314821   0.623   5.098   2.375  1.4602 -0.0766  2.4086
   20MOL   C34414822   0.643   5.248   2.510  0.2305 -0.6426  0.3851
   20MOL   O34514823   0.606   5.360   2.554  0.3652 -0.1094 -0.3132
   20MOL   C34614824   0.770   5.187   2.551  0.0937 -0.0334  0.2989
   20MOL   C34714825   0.889   5.285   2.560  0.1223  0.0452  0.4714
   20MOL   C34814826   1.028   5.215   2.565 -0.6190  0.1983 -0.1997
   20MOL   C34914827   1.063   5.180   2.707  0.4436  0.0579 -0.0083
   20MOL   C35014828   0.978   5.063   2.772  0.1972 -1.0588  0.2736
   20MOL   O35114829   0.935   4.968   2.707  0.1842  0.4967 -0.1350
   20MOL   N35214830   0.953   5.087   2.899 -0.1232 -0.4725 -0.1002
   20MOL   C35314831   0.867   5.011   2.987 -0.0980  0.1579 -0.2569
   20MOL   C35414832   0.936   4.881   3.024 -0.1488 -0.5784  0.1273
   20MOL   C35514833   1.067   4.903   3.098  0.6736  0.7627  0.0642
   20MOL   C35614834   1.144   4.775   3.124 -0.4140  0.6376 -0.0686
   20MOL   C35714835   1.250   4.791   3.227 -0.1022  0.0587  0.4212
   20MOL   C35814836   1.350   4.677   3.248  0.6990  0.5063 -0.0085
   20MOL   N35914837   1.455   4.708   3.349  0.2061 -1.0957 -0.3640
   20MOL   H36014838   0.755   5.146   2.651  0.4087  1.4670  0.9838
   20MOL   H36114839   0.805   5.108   2.484 -3.7891 -1.7460  0.1612
   20MOL   H36214840   0.880   5.356   2.477 -2.7212 -0.5479  0.1976
   20MOL   H36314841   0.877   5.355   2.643 -1.9017 -0.3296  0.5182
   20MOL   H36414842   1.110   5.282   2.540  0.0797 -0.8178 -0.6246
   20MOL   H36514843   1.038   5.126   2.503  0.3785  0.5298 -0.5265
   20MOL   H36614844   1.065   5.267   2.773 -0.2421  0.2966 -0.3061
   20MOL   H36714845   1.162   5.134   2.706 -0.3674 -1.7469 -1.4956
   20MOL   H36814846   0.992   5.166   2.949 -0.7659 -0.5126  0.4706
   20MOL   H36914847   0.849   5.059   3.083  0.1125 -1.0551  0.3935
   20MOL   H37014848   0.770   4.984   2.947  0.2925 -2.7958  0.6859
   20MOL   H37114849   0.870   4.818   3.082 -3.9286  1.3851 -1.8264
   20MOL   H37214850   0.951   4.825   2.931  1.5617  1.6693 -1.0328
   20MOL   H37314851   1.043   4.949   3.194  1.1423  0.5406  0.2908
   20MOL   H37414852   1.126   4.982   3.054 -1.1135  2.1989  0.1912
   20MOL   H37514853   1.073   4.697   3.154 -1.4447  1.7200  0.3505
   20MOL   H37614854   1.188   4.746   3.029  2.8425  0.7333  1.3669
   20MOL   H37714855   1.300   4.887   3.228 -2.9779  1.6284  0.4469
   20MOL   H37814856   1.197   4.810   3.320  0.7602  0.7280  0.7798
   20MOL   H37914857   1.397   4.660   3.151  1.5286  2.0176  0.1146
   20MOL   H38014858   1.296   4.592   3.289 -1.7050  1.6450 -0.6983
   20MOL   H38114859   1.432   4.671   3.440  0.5778  1.8145  0.9621
   20MOL   C38214860   1.585   4.727   3.313  0.5312 -1.0374 -0.0380
   20MOL   O38314861   1.615   4.758   3.195  0.8096 -0.2210 -0.2074
   20MOL   C38414862   1.687   4.734   3.429 -0.5590  0.3460 -0.3382
   20MOL   C38514863   1.817   4.660   3.388  0.1005 -0.4186 -0.3960
   20MOL   C38614864   1.797   4.502   3.390  0.4955  0.1265  0.0754
   20MOL   C38714865   1.779   4.437   3.530  0.7405 -0.6579 -0.0631
   20MOL   C38814866   1.765   4.284   3.550 -0.0131  0.3190  0.3794
   20MOL   O38914867   1.661   4.237   3.516 -0.2583  0.1667 -0.0710
   20MOL   N39014868   1.868   4.219   3.604  0.2092 -0.1810  0.4325
   20MOL   C39114869   1.858   4.080   3.638  0.5910 -0.3881 -0.6582
   20MOL   C39214870   1.986   4.009   3.682 -0.0801  0.1802 -0.0632
   20MOL   C39314871   1.972   3.860   3.713 -0.6387 -0.1865  0.3098
   20MOL   C39414872   2.103   3.766   3.695 -0.1299 -0.1035 -0.3592
   20MOL   C39514873   2.198   3.779   3.810  0.2326 -0.8660 -0.2081
   20MOL   C39614874   2.305   3.671   3.823 -0.1361  0.2210 -0.6110
   20MOL   N39714875   2.420   3.713   3.911  0.2960 -0.1886 -0.5149
   20MOL   H39814876   1.709   4.840   3.437 -0.1657  0.1941  0.5468
   20MOL   H39914877   1.665   4.709   3.532 -0.6608 -2.7764 -1.0702
   20MOL   H40014878   1.849   4.690   3.288  1.9323 -2.7410 -0.5509
   20MOL   H40114879   1.896   4.698   3.452 -1.4523  2.1050  0.0648
   20MOL   H40214880   1.890   4.461   3.350 -0.3706  0.0204 -1.8812
   20MOL   H40314881   1.717   4.470   3.324 -1.4766  1.6200  1.6704
   20MOL   H40414882   1.685   4.464   3.579  0.4417 -0.0674 -0.9397
   20MOL   H40514883   1.866   4.464   3.591  1.1592 -1.0512 -0.4870
   20MOL   H40614884   1.956   4.257   3.634  0.1273 -0.9342  1.6588
   20MOL   H40714885   1.789   4.074   3.722 -1.7980 -0.4575 -2.5695
   20MOL   H40814886   1.816   4.025   3.554  1.4224 -1.2353 -0.5186
   20MOL   H40914887   2.057   3.999   3.600 -1.1855 -0.3316 -0.9852
   20MOL   H41014888   2.033   4.060   3.766 -3.8448  1.8385  1.1426
   20MOL   H41114889   1.896   3.814   3.649 -0.6879  0.3428 -0.0190
   20MOL   H41214890   1.925   3.842   3.809 -0.8796  1.6676  0.5469
   20MOL   H41314891   2.070   3.662   3.694  0.7660 -0.4014  0.2811
   20MOL   H41414892   2.145   3.769   3.594  1.2532 -0.4362  0.1934
   20MOL   H41514893   2.252   3.871   3.787  1.6630 -1.3667  1.0372
   20MOL   H41614894   2.142   3.794   3.902 -0.1788  0.3158 -0.6357
   20MOL   H41714895   2.351   3.647   3.727 -0.8655  0.4008 -1.0088
   20MOL   H41814896   2.262   3.576   3.856  1.2138 -0.3851 -0.5385
   20MOL   H41914897   2.504   3.752   3.870  2.2813 -2.8228  0.8496
   20MOL   C42014898   2.424   3.705   4.046 -0.2006  0.2853  0.0272
   20MOL   O42114899   2.328   3.674   4.116 -0.1318 -0.5804  0.5946
   20MOL   C42214900   2.556   3.727   4.118  0.0257 -0.2500 -0.3711
   20MOL   C42314901   2.560   3.694   4.271 -0.1957  0.6094  0.0759
   20MOL   C42414902   2.682   3.741   4.342  0.6023  0.3871  0.8540
   20MOL   C42514903   2.679   3.885   4.384 -0.4708 -0.3212  0.4512
   20MOL   C42614904   2.569   3.914   4.487  0.5195 -0.6404  0.1908
   20MOL   O42714905   2.527   3.831   4.566 -0.9304  0.3438  0.0567
   20MOL   N42814906   2.539   4.046   4.500  0.1456 -0.0060  0.7367
   20MOL   C42914907   2.418   4.099   4.564 -0.0019 -0.1935 -0.5612
   20MOL   C43014908   2.293   4.079   4.470  0.2042 -0.0546  0.0393
   20MOL   C43114909   2.155   4.129   4.525  0.3810 -0.4028 -0.4258
   20MOL   C43214910   2.145   4.277   4.553  0.2481  0.5920  0.2699
   20MOL   C43314911   2.001   4.328   4.580  0.6708 -0.0330 -0.1886
   20MOL   C43414912   1.985   4.486   4.573  0.4759  0.9039 -0.2105
   20MOL   N43514913   2.085   4.562   4.637  0.1375 -0.5974 -0.0000
   20MOL   H43614914   2.632   3.674   4.061 -0.6642 -1.8206  0.1297
   20MOL   H43714915   2.579   3.833   4.104 -0.8639 -0.0443 -0.2963
   20MOL   H43814916   2.467   3.725   4.318 -0.5996  1.4978 -1.2837
   20MOL   H43914917   2.559   3.586   4.285  2.9421  0.5930  0.5458
   20MOL   H44014918   2.772   3.726   4.283 -0.3826 -0.4259 -0.4567
   20MOL   H44114919   2.693   3.673   4.427  2.0050 -0.4505  0.0209
   20MOL   H44214920   2.667   3.952   4.299 -1.0020 -0.7133  0.2175
   20MOL   H44314921   2.779   3.913   4.417 -0.4116 -2.1225  1.8923
   20MOL   H44414922   2.597   4.112   4.450 -0.6613 -0.4323 -0.7797
   20MOL   H44514923   2.398   4.060   4.663  1.9643  0.8481  0.2944
   20MOL   H44614924   2.437   4.206   4.578  2.9040 -0.6296 -0.8562
   20MOL   H44714925   2.303   4.131   4.375  2.3415 -0.5258 -0.0139
   20MOL   H44814926   2.275   3.976   4.440 -1.7670  0.9682 -2.4841
   20MOL   H44914927   2.116   4.077   4.613  1.1194 -0.8292 -0.3422
   20MOL   H45014928   2.085   4.113   4.444  0.8096 -1.3601 -0.6244
   20MOL   H45114929   2.207   4.306   4.637  0.4643 -1.0571  0.6944
   20MOL   H45214930   2.194   4.324   4.467  0.9667 -0.3085  0.1840
   20MOL   H45314931   1.922   4.297   4.512  1.4909  2.7668 -2.5360
   20MOL   H45414932   1.973   4.295   4.680 -1.5588  1.9276 -0.1234
   20MOL   H45514933   1.885   4.528   4.582 -0.1370 -0.5386 -0.1103
   20MOL   H45614934   2.014   4.488   4.468  4.6313 -2.8129  0.6986
   20MOL   H45714935   2.138   4.624   4.577 -1.4477 -0.1370 -0.9616
   20MOL   C45814936   2.115   4.563   4.764 -0.8886  0.0753 -0.2887
   20MOL   O45914937   2.058   4.490   4.848 -0.8048  0.2927 -0.3300
   20MOL   C46014938   2.241   4.641   4.817  0.3385  0.7894 -0.6058
   20MOL   C46114939   2.334   4.546   4.908 -0.2821 -0.7005  0.1067
   20MOL   C46214940   2.463   4.623   4.953 -0.1659 -0.3228  0.2426
   20MOL   C46314941   2.559   4.658   4.833 -0.6950  0.2282 -0.0032
   20MOL   C46414942   2.704   4.629   4.862 -0.8116 -0.8985  0.2000
   20MOL   O46514943   2.736   4.513   4.880 -0.2861 -0.1069  0.6130
   20MOL   N46614944   2.790   4.733   4.863  0.0497 -0.7617  0.0226
   20MOL   C46714945   2.932   4.709   4.871  0.4360 -0.2467 -0.3873
   20MOL   C46814946   2.976   4.715   5.021  0.1406  0.0569 -0.0270
   20MOL   C46914947   3.127   4.679   5.044 -0.1883 -0.3056  0.5501
   20MOL   C47014948   3.170   4.708   5.182  0.3817 -0.0068 -0.1647
   20MOL   C47114949   3.307   4.639   5.218  0.2902 -0.7386  0.3188
   20MOL   C47214950   3.321   4.596   5.363 -0.6635  1.8166 -0.7530
   20MOL   N47314951   3.232   4.476   5.397 -0.2927  0.3925  0.1929
   20MOL   H47414952   2.298   4.679   4.731  2.3262 -1.5408 -0.3519
   20MOL   H47514953   2.195   4.720   4.878  0.2346 -0.3466  0.8016
   20MOL   H47614954   2.284   4.505   4.996 -0.7672 -2.6466 -1.0244
   20MOL   H47714955   2.361   4.453   4.856 -0.0418 -0.6847  0.2030
   20MOL   H47814956   2.505   4.562   5.033  0.9104  0.2798  0.1323
   20MOL   H47914957   2.426   4.715   4.998  1.3778  0.4836 -0.1140
   20MOL   H48014958   2.549   4.765   4.817  1.7855  0.4502 -0.1546
   20MOL   H48114959   2.538   4.601   4.742 -0.5744  0.3788 -0.1255
   20MOL   H48214960   2.756   4.825   4.842 -0.1948 -0.3353  2.1270
   20MOL   H48314961   2.960   4.610   4.836 -1.5819 -2.1655  3.2030
   20MOL   H48414962   2.985   4.782   4.809 -2.3844  0.2837 -2.2750
   20MOL   H48514963   2.951   4.808   5.072 -4.1442 -1.3599  0.6039
   20MOL   H48614964   2.925   4.642   5.083  0.4697  0.2980  0.5305
   20MOL   H48714965   3.179   4.746   4.976  1.2312 -0.6732  1.2381
   20MOL   H48814966   3.139   4.572   5.026  2.3366  0.0980 -0.3733
   20MOL   H48914967   3.171   4.816   5.193 -2.0445  0.1038 -0.7374
   20MOL   H49014968   3.096   4.666   5.250  1.7688 -1.5140  0.4495
   20MOL   H49114969   3.312   4.552   5.152  1.6272 -0.6869  0.3412
   20MOL   H49214970   3.388   4.703   5.181 -1.8738  1.4732 -0.7594
   20MOL   H49314971   3.303   4.679   5.432  1.3088  1.0054  0.8023
   20MOL   H49414972   3.428   4.579   5.372 -1.0536 -0.6227 -0.4483
   20MOL   H49514973   3.143   4.495   5.441  0.0969  2.0418  0.3078
   20MOL   C49614974   3.253   4.352   5.348  0.3630  1.0225 -0.6154
   20MOL   O49714975   3.353   4.314   5.288  0.1141 -0.6864 -0.1347
   20MOL   C49814976   3.145   4.256   5.358 -0.6978 -0.0736 -0.1802
   20MOL   C49914977   3.032   4.285   5.256 -0.1631  0.0225  0.2439
   20MOL   C50014978   3.085   4.275   5.107 -0.2140  0.1872 -0.4139
   20MOL   C50114979   2.967   4.293   5.007  0.0609  0.2065 -0.4999
   20MOL   C50214980   2.869   4.184   5.010  0.0636  0.0126 -0.4288
   20MOL   O50314981   2.897   4.067   5.037  0.4535 -0.1340 -0.2007
   20MOL   N50414982   2.745   4.219   4.981  0.0079  0.4149  0.0752
   20MOL   C50514983   2.629   4.151   5.035 -0.1640  0.2880  0.4515
   20MOL   C50614984   2.513   4.152   4.939  0.2873 -0.6324  0.0806
   20MOL   C50714985   2.382   4.114   5.015 -0.1699  0.1715  0.3951
   20MOL   C50814986   2.251   4.151   4.955  0.4280  0.5673  0.8394
   20MOL   C50914987   2.134   4.083   5.034  0.7522  0.5159  0.3868
   20MOL   C51014988   1.995   4.148   5.012  0.0393 -0.1967  0.5091
   20MOL   N51114989   2.004   4.290   5.050 -0.0741 -0.2105  0.1664
   20MOL   H51214990   3.182   4.156   5.336 -1.2338 -0.7492  1.9040
   20MOL   H51314991   3.107   4.253   5.460  1.0967  2.3629  0.6016
   20MOL   H51414992   2.951   4.215   5.276  1.4528 -1.4650  1.7459
   20MOL   H51514993   2.985   4.381   5.278  0.7427  0.2949  1.0325
   20MOL   H51614994   3.136   4.179   5.108  1.3822  1.0068  2.2994
   20MOL   H51714995   3.155   4.355   5.084  1.3320 -0.2283  2.6073
   20MOL   H51814996   2.995   4.296   4.901 -0.1698  0.9042 -0.5475
   20MOL   H51914997   2.917   4.386   5.033 -0.1099 -0.1362  0.3893
   20MOL   H52014998   2.728   4.311   4.943 -1.1740 -0.1879 -0.9076
   20MOL   H52114999   2.647   4.048   5.066  0.1343 -0.0260 -0.7347
   20MOL   H52215000   2.596   4.200   5.126 -0.8157  1.9743 -0.6696
   20MOL   H52315001   2.512   4.251   4.894  3.3102  0.2602  1.8450
   20MOL   H52415002   2.512   4.084   4.854 -1.1548 -0.7171  0.1515
   20MOL   H52515003   2.384   4.162   5.113 -0.5519  0.4534  0.2652
   20MOL   H52615004   2.388   4.010   5.046  1.2559  0.7974  2.3586
   20MOL   H52715005   2.241   4.259   4.951 -0.6082  0.4827  0.8323
   20MOL   H52815006   2.247   4.114   4.853  0.1235 -1.4840  1.5532
   20MOL   H52915007   2.134   3.976   5.013 -0.0381  0.8365 -1.2772
   20MOL   H53015008   2.157   4.073   5.140  0.4821  1.1521  0.5054
   20MOL   H53115009   1.927   4.084   5.069 -1.8180  0.9280 -0.4117
   20MOL   H53215010   1.965   4.143   4.908  1.8802  1.0290 -0.0982
   20MOL   H53315011   2.022   4.356   4.975 -1.1319  0.5846  0.6018
   20MOL   C53415012   1.993   4.334   5.176 -0.1708 -0.1017 -0.4136
   20MOL   O53515013   1.973   4.258   5.268 -0.1066  0.1125 -0.3756
   20MOL   C53615014   1.988   4.483   5.201  0.0384 -0.1313 -0.5353
   20MOL   C53715015   2.060   4.529   5.327 -0.0043 -0.6629 -0.6498
   20MOL   C53815016   2.211   4.552   5.319  0.3174 -0.3396  0.4596
   20MOL   C53915017   2.297   4.427   5.282 -0.2180  0.5923 -1.3267
   20MOL   C54015018   2.444   4.439   5.328  0.1161  0.0015 -0.7766
   20MOL   O54115019   2.491   4.548   5.347  0.1406  0.1139  0.1595
   20MOL   N54215020   2.507   4.323   5.353 -0.4206  0.0017  0.0056
   20MOL   C54315021   2.644   4.315   5.391  0.1767 -0.2887  0.3549
   20MOL   C54415022   2.647   4.265   5.540 -0.1289  0.2661  0.5496
   20MOL   C54515023   2.604   4.373   5.649  0.1300 -0.0637  0.3824
   20MOL   C54615024   2.622   4.312   5.785 -0.6767 -0.3856  0.1353
   20MOL   C54715025   2.573   4.401   5.896 -0.0806 -0.3871 -0.1609
   20MOL   C54815026   2.561   4.330   6.032  0.3143  0.1725 -0.1108
   20MOL   N54915027   2.517   4.417   6.144  0.2709  0.1994  0.2782
   20MOL   H55015028   2.036   4.537   5.119  3.0183 -0.5567  0.8935
   20MOL   H55115029   1.882   4.505   5.210  0.2227  0.6649 -0.3296
   20MOL   H55215030   2.004   4.617   5.358  0.4654 -0.5121 -0.2171
   20MOL   H55315031   2.047   4.472   5.418 -1.4100  1.7352  0.7124
   20MOL   H55415032   2.243   4.592   5.416  1.9071  0.2523 -0.2800
   20MOL   H55515033   2.224   4.626   5.240  0.0925  0.2078  0.9341
   20MOL   H55615034   2.296   4.386   5.181 -0.5451 -1.6492 -0.4423
   20MOL   H55715035   2.253   4.347   5.341 -0.1182  0.5861 -1.2608
   20MOL   H55815036   2.446   4.243   5.364 -0.9525  0.6318  1.8245
   20MOL   H55915037   2.693   4.244   5.325  1.6401  0.8874  0.1422
   20MOL   H56015038   2.700   4.406   5.368  0.2130  0.0158  1.5892
   20MOL   H56115039   2.592   4.172   5.552  2.5311 -1.7754 -2.5696
   20MOL   H56215040   2.751   4.240   5.562  0.2409  1.6181  0.4137
   20MOL   H56315041   2.505   4.411   5.625  0.3421  0.8465  0.9388
   20MOL   H56415042   2.668   4.461   5.645 -1.1248  0.8471 -0.1754
   20MOL   H56515043   2.566   4.220   5.795  1.7388 -2.4874 -4.3177
   20MOL   H56615044   2.723   4.273   5.799 -0.4177  0.3000  0.2341
   20MOL   H56715045   2.643   4.479   5.924 -0.4258  0.6920 -2.1883
   20MOL   H56815046   2.477   4.448   5.874 -2.0523 -4.1109  0.0135
   20MOL   H56915047   2.645   4.270   6.069  0.6520  1.3595  1.1106
   20MOL   H57015048   2.495   4.246   6.013  1.4048  0.2000 -4.5060
   20MOL   H57115049   2.596   4.432   6.205  2.3300 -3.3438 -1.3419
   20MOL   C57215050   2.401   4.474   6.172  0.4219 -0.3827 -0.1028
   20MOL   O57315051   2.297   4.446   6.107 -0.5674  0.0653  0.0146
   20MOL   C57415052   2.401   4.568   6.295  0.3799 -0.7913  0.6419
   20MOL   C57515053   2.325   4.700   6.283 -1.2474 -0.2172  0.1293
   20MOL   C57615054   2.362   4.801   6.180 -0.5089 -0.0475  0.3512
   20MOL   C57715055   2.293   4.945   6.194  0.9799  0.0920  0.7062
   20MOL   C57815056   2.368   5.064   6.132 -0.5383  0.2694 -0.1029
   20MOL   O57915057   2.483   5.088   6.165 -0.3441 -0.2638 -0.5561
   20MOL   N58015058   2.297   5.122   6.040  0.3977 -0.0169 -0.2272
   20MOL   C58115059   2.321   5.240   5.960 -0.2077  0.3817 -0.4173
   20MOL   C58215060   2.196   5.339   5.977 -0.0208 -0.2266  0.2108
   20MOL   C58315061   2.145   5.360   6.119  0.0547 -0.1988 -0.0979
   20MOL   C58415062   2.031   5.464   6.131 -0.0906  1.0798  0.2667
   20MOL   C58515063   1.989   5.486   6.276  0.2137 -0.1156 -0.2282
   20MOL   C58615064   1.832   5.520   6.283 -0.1611 -1.0674  0.5492
   20MOL   N58715065   1.744   5.444   6.200  0.1475 -0.1620  0.4239
   20MOL   H58815066   2.372   4.501   6.376 -1.2996  0.3625  1.0175
   20MOL   H58915067   2.506   4.594   6.311  0.2291  0.0311  0.3167
   20MOL   H59015068   2.223   4.672   6.258 -1.2248 -0.8380  0.7198
   20MOL   H59115069   2.339   4.739   6.384 -0.4052 -1.2064  0.4034
   20MOL   H59215070   2.342   4.768   6.078 -0.7887  1.7777 -0.2023
   20MOL   H59315071   2.469   4.817   6.166 -0.9210  1.8196 -0.8077
   20MOL   H59415072   2.292   4.972   6.300 -3.3330  0.0124  0.7858
   20MOL   H59515073   2.191   4.937   6.155  1.0758 -1.1697  0.6821
   20MOL   H59615074   2.215   5.066   6.020  0.6667 -0.6587  0.4494
   20MOL   H59715075   2.402   5.307   5.988 -0.6271  1.2102 -1.1348
   20MOL   H59815076   2.339   5.223   5.854 -0.8543  2.1591 -0.8463
   20MOL   H59915077   2.220   5.440   5.943  0.3120 -0.2081  0.4904
   20MOL   H60015078   2.116   5.303   5.913  1.0348 -0.3408 -1.0848
   20MOL   H60115079   2.224   5.404   6.179  0.0888 -0.1839 -0.1552
   20MOL   H60215080   2.122   5.259   6.155  0.0568  0.4520  1.7696
   20MOL   H60315081   2.085   5.549   6.091 -0.2125  0.4258 -1.3064
   20MOL   H60415082   1.951   5.436   6.062  1.4644 -0.7792 -0.8168
   20MOL   H60515083   2.028   5.402   6.334  2.2347  0.7509 -0.2994
   20MOL   H60615084   2.043   5.571   6.317 -1.3850  0.6167  0.4147
   20MOL   H60715085   1.814   5.623   6.253  0.1444 -1.2485 -0.2598
   20MOL   H60815086   1.804   5.504   6.387  2.1903  0.4669  1.4376
   20MOL   H60915087   1.697   5.486   6.120 -1.4693 -0.0549  1.4036
   20MOL   C61015088   1.689   5.327   6.229 -0.4865  0.4025 -0.7246
   20MOL   O61115089   1.717   5.268   6.331 -0.9172  0.2028 -0.3745
   20MOL   C61215090   1.594   5.261   6.123  0.0837 -0.2192  0.3737
   20MOL   C61315091   1.614   5.107   6.104  0.3074  0.2632  0.7468
   20MOL   C61415092   1.754   5.056   6.069 -0.1543 -0.3379  0.2572
   20MOL   C61515093   1.743   4.923   6.004 -0.4459  0.1724 -0.2823
   20MOL   C61615094   1.878   4.845   5.997  0.6668 -0.1642  0.5291
   20MOL   O61715095   1.985   4.902   6.004 -0.0341 -0.3453  0.1948
   20MOL   N61815096   1.873   4.711   5.993 -0.2027  0.4661 -0.3126
   20MOL   C61915097   1.988   4.618   6.004 -0.0217  0.3601  0.3265
   20MOL   C62015098   2.015   4.548   5.868  0.2457  0.0681 -0.1880
   20MOL   C62115099   2.128   4.441   5.866  0.3012 -0.0643 -0.1956
   20MOL   C62215100   2.156   4.380   5.728  0.1066 -0.0389  0.6771
   20MOL   C62315101   2.234   4.252   5.734 -0.4999 -0.6210  0.0785
   20MOL   C62415102   2.268   4.204   5.596 -0.4288  0.0461 -0.2458
   20MOL   N62515103   2.304   4.066   5.589  0.2532  0.3175  0.2579
   20MOL   H62615104   1.495   5.275   6.164 -0.4392  1.6374 -1.4348
   20MOL   H62715105   1.598   5.316   6.029  0.0173  1.7707  1.5279
   20MOL   H62815106   1.578   5.058   6.194  2.4445 -1.6727  0.6264
   20MOL   H62915107   1.543   5.076   6.027  1.0971  0.8109 -0.2107
   20MOL   H63015108   1.812   5.058   6.161  0.6768 -3.3796 -0.1605
   20MOL   H63115109   1.805   5.121   5.998  0.1134 -0.6174  0.1955
   20MOL   H63215110   1.709   4.944   5.903  0.0810  2.4366 -0.0008
   20MOL   H63315111   1.669   4.857   6.051 -0.8662  0.7458 -0.1312
   20MOL   H63415112   1.781   4.670   6.002  0.3360 -1.2337 -2.2537
   20MOL   H63515113   2.078   4.675   6.025  0.7005 -0.4357 -0.5818
   20MOL   H63615114   1.967   4.548   6.084 -1.8771 -1.2858 -1.5318
   20MOL   H63715115   1.920   4.506   5.834 -1.0766  2.1018  0.9268
   20MOL   H63815116   2.033   4.634   5.803 -0.7352  0.0343 -0.5148
   20MOL   H63915117   2.116   4.362   5.940 -0.0989 -0.1933 -0.3952
   20MOL   H64015118   2.219   4.493   5.896 -0.0245  0.1683  0.4032
   20MOL   H64115119   2.062   4.364   5.675  0.4750 -0.9292  0.2750
   20MOL   H64215120   2.214   4.447   5.665  2.8078 -3.2017 -0.3493
   20MOL   H64315121   2.317   4.262   5.803 -0.6198 -0.8173  0.2506
   20MOL   H64415122   2.181   4.172   5.785  2.5749 -2.4638  0.4984
   20MOL   H64515123   2.349   4.262   5.552  0.5115 -2.1532 -1.5154
   20MOL   H64615124   2.184   4.219   5.529 -1.4645 -0.2062  0.9818
   20MOL   H64715125   2.312   4.008   5.671 -0.5461  0.0006  0.1213
   20MOL   C64815126   2.324   4.008   5.471 -0.5432 -0.2708 -0.4945
   20MOL   O64915127   2.312   4.064   5.361  0.9247  0.3150  0.2404
   20MOL   C65015128   2.386   3.873   5.470  0.0956 -0.3239  0.2863
   20MOL   C65115129   2.342   3.781   5.352  0.7591  0.4067 -0.3160
   20MOL   C65215130   2.221   3.694   5.385 -0.3813  0.1011 -0.1064
   20MOL   C65315131   2.091   3.768   5.350 -0.5893 -0.2341 -0.1320
   20MOL   C65415132   2.009   3.798   5.484 -0.5987  0.7547  0.2007
   20MOL   O65515133   1.948   3.716   5.550 -0.5133  0.3080  0.0744
   20MOL   N65615134   2.010   3.931   5.508  0.2480  0.0987 -0.1543
   20MOL   C65715135   1.933   3.989   5.620  0.2356  0.2310  0.1481
   20MOL   C65815136   1.820   4.081   5.567  0.4278  0.1209 -0.2019
   20MOL   C65915137   1.715   4.117   5.681  0.2390 -0.5228  0.7070
   20MOL   C66015138   1.791   4.165   5.813  0.1737 -0.5915 -0.6854
   20MOL   C66115139   1.699   4.250   5.897 -0.4183  0.2870  0.1048
   20MOL   C66215140   1.770   4.294   6.027  0.0819 -0.7793 -0.4755
   20MOL   N66315141   1.686   4.337   6.139 -0.0742 -0.4727  0.1107
   20MOL   H66415142   2.494   3.879   5.480 -0.0372  0.9085  1.1935
   20MOL   H66515143   2.356   3.821   5.561 -0.3469  1.7184  1.3400
   20MOL   H66615144   2.334   3.836   5.258  0.8916  1.6155  0.3707
   20MOL   H66715145   2.412   3.699   5.332 -1.8867 -1.7978 -0.8721
   20MOL   H66815146   2.230   3.668   5.490  1.6781  0.1933 -0.2480
   20MOL   H66915147   2.209   3.606   5.321 -0.3092 -0.1607  0.2365
   20MOL   H67015148   2.037   3.710   5.275  1.2534 -1.0640 -0.8535
   20MOL   H67115149   2.127   3.862   5.307  0.8963 -1.0604 -0.7216
   20MOL   H67215150   2.059   4.001   5.455 -1.6042  2.1122  0.7203
   20MOL   H67315151   1.882   3.905   5.669 -0.7249  0.9213  0.3513
   20MOL   H67415152   1.998   4.041   5.691  0.5745 -2.6991  2.1016
   20MOL   H67515153   1.869   4.170   5.527  0.2277 -0.6502 -2.1992
   20MOL   H67615154   1.782   4.030   5.478  0.0120 -2.2906  1.3186
   20MOL   H67715155   1.644   4.039   5.708  0.3652 -0.9092 -0.0687
   20MOL   H67815156   1.657   4.201   5.643  0.4191  0.1827  1.9627
   20MOL   H67915157   1.813   4.074   5.869  0.4802 -0.4455 -0.5664
   20MOL   H68015158   1.889   4.209   5.796  1.7910 -3.2298  1.3758
   20MOL   H68115159   1.678   4.342   5.843  3.5478  0.1449 -1.8978
   20MOL   H68215160   1.603   4.205   5.922  1.7007 -2.2468  4.2189
   20MOL   H68315161   1.855   4.357   6.002 -0.5744  0.1352 -0.4290
   20MOL   H68415162   1.810   4.197   6.057 -0.2904 -0.2810  1.6966
   20MOL   H68515163   1.693   4.281   6.222  0.5256  1.1986  1.2148
   20MOL   C68615164   1.600   4.436   6.136 -0.2138 -0.0585  0.5333
   20MOL   O68715165   1.580   4.518   6.045 -0.5871 -0.1707 -0.4263
   20MOL   C68815166   1.513   4.450   6.267 -0.4806  0.1470 -0.8180
   20MOL   C68915167   1.385   4.528   6.257  0.1395 -0.3881 -0.0736
   20MOL   C69015168   1.309   4.517   6.389  0.8655  0.4082 -0.0795
   20MOL   C69115169   1.376   4.605   6.502 -0.0021 -0.0390 -0.4723
   20MOL   C69215170   1.421   4.749   6.468 -0.8062 -0.9905 -0.6931
   20MOL   O69315171   1.335   4.830   6.434 -0.1784  0.6665  0.3351
   20MOL   N69415172   1.558   4.774   6.479  0.4592  0.4646  0.1501
   20MOL   C69515173   1.607   4.913   6.461 -0.2730  0.5175  0.5829
   20MOL   C69615174   1.750   4.919   6.498 -0.3007 -0.4729  0.1087
   20MOL   C69715175   1.838   4.834   6.402 -0.7631 -0.1843 -1.1422
   20MOL   C69815176   1.987   4.824   6.450  0.7251  0.4057 -0.0333
   20MOL   C69915177   1.995   4.711   6.551  0.4552 -0.2506 -0.9575
   20MOL   C70015178   2.138   4.675   6.597  0.2147 -0.0164 -0.6031
   20MOL   N70115179   2.140   4.601   6.721 -0.5458 -0.0191 -0.0332
   20MOL   H70215180   1.499   4.350   6.307  0.6566  0.1340 -0.4512
   20MOL   H70315181   1.578   4.502   6.338  0.9116 -0.5290 -1.5866
   20MOL   H70415182   1.389   4.635   6.237  0.3571 -0.3192  0.3409
   20MOL   H70515183   1.322   4.479   6.183  1.9606 -0.5348 -1.5627
   20MOL   H70615184   1.306   4.411   6.415  0.0081  0.4560  0.0305
   20MOL   H70715185   1.207   4.553   6.378  0.3829 -1.4535 -2.0053
   20MOL   H70815186   1.464   4.561   6.548  0.2124  0.3096 -0.5441
   20MOL   H70915187   1.311   4.626   6.587  0.5593  0.9906 -0.2963
   20MOL   H71015188   1.613   4.707   6.530  0.4234  0.0801 -0.3150
   20MOL   H71115189   1.592   4.943   6.357  3.0593 -2.2121 -0.7677
   20MOL   H71215190   1.546   4.986   6.514 -1.6154  0.7548 -1.2401
   20MOL   H71315191   1.791   5.020   6.489 -0.6737 -0.3499 -0.2176
   20MOL   H71415192   1.760   4.877   6.598 -1.1446 -2.3745 -0.5966
   20MOL   H71515193   1.843   4.893   6.310 -4.1116  1.5826 -0.2620
   20MOL   H71615194   1.795   4.736   6.384  0.9805 -0.9010 -1.4383
   20MOL   H71715195   2.057   4.804   6.369  0.4367  1.8249 -0.6542
   20MOL   H71815196   2.013   4.924   6.485  0.9608  0.0524  0.7947
   20MOL   H71915197   1.947   4.751   6.640 -2.0707 -1.5005 -1.7406
   20MOL   H72015198   1.950   4.617   6.520 -0.8805 -0.8519  2.5348
   20MOL   H72115199   2.193   4.769   6.609  1.8697 -0.9588 -0.6259
   20MOL   H72215200   2.195   4.620   6.522  0.2021 -0.0899 -0.5592
   20MOL   H72315201   2.146   4.659   6.804  2.2467 -1.1961  0.6728
   20MOL   C72415202   2.121   4.468   6.726  0.2935  0.4531  0.6552
   20MOL   O72515203   2.111   4.396   6.624  0.1660  0.3197  0.6163
   20MOL   C72615204   2.117   4.416   6.864 -0.3036 -0.0822 -0.5788
   20MOL   C72715205   2.244   4.336   6.903  0.1610 -0.2194  0.0358
   20MOL   C72815206   2.227   4.279   7.045 -0.0967 -0.1334 -0.5127
   20MOL   C72915207   2.343   4.174   7.080 -0.8209 -0.5615 -0.0917
   20MOL   C73015208   2.486   4.226   7.083 -0.5392 -0.0570 -0.4132
   20MOL   O73115209   2.516   4.348   7.082  0.0163  0.0090 -0.1789
   20MOL   N73215210   2.585   4.133   7.079 -0.3349 -0.4591 -0.2813
   20MOL   C73315211   2.721   4.166   7.034  0.0256 -0.3282 -0.2990
   20MOL   C73415212   2.830   4.060   7.052 -0.4433  0.0592 -0.0411
   20MOL   C73515213   2.902   4.073   7.185  0.4308 -0.0508 -0.2417
   20MOL   C73615214   3.013   3.968   7.192  0.0378  0.5585 -0.4248
   20MOL   C73715215   3.114   3.989   7.309  0.3713 -0.2590  0.3121
   20MOL   C73815216   3.242   3.895   7.294 -0.3830  0.0596 -0.0293
   20MOL   N73915217   3.327   3.894   7.412  0.5798  0.5273 -0.2892
   20MOL   H74015218   2.102   4.497   6.935  0.0395  0.9730 -1.7024
   20MOL   H74115219   2.024   4.362   6.881 -0.5095  0.8387  1.4415
   20MOL   H74215220   2.249   4.258   6.827 -2.0588 -0.4009  0.0251
   20MOL   H74315221   2.330   4.401   6.895  0.4598 -0.4589  1.2760
   20MOL   H74415222   2.138   4.229   7.083  1.1519 -1.2181  1.0672
   20MOL   H74515223   2.238   4.366   7.110 -0.9715  1.2472 -2.1981
   20MOL   H74615224   2.337   4.088   7.013 -0.1632 -0.3800 -0.3893
   20MOL   H74715225   2.338   4.132   7.181 -1.7361  0.1356  0.1561
   20MOL   H74815226   2.566   4.037   7.104  0.2618  0.3916  3.8030
   20MOL   H74915227   2.723   4.191   6.928 -0.2506 -1.7659 -0.6485
   20MOL   H75015228   2.756   4.261   7.075 -2.1913  0.4305 -0.1066
   20MOL   H75115229   2.786   3.963   7.030 -0.1834  0.4653 -2.4716
   20MOL   H75215230   2.911   4.075   6.980  0.7884  2.8030  1.8126
   20MOL   H75315231   2.842   4.046   7.272 -0.7120  0.2124 -0.9315
   20MOL   H75415232   2.916   4.178   7.209  0.0295 -0.4407  1.7921
   20MOL   H75515233   2.966   3.871   7.176 -1.0917  1.0193  0.0141
   20MOL   H75615234   3.085   3.973   7.110  0.0287 -2.7200 -0.6852
   20MOL   H75715235   3.142   4.093   7.324  2.7720 -0.3674 -2.9100
   20MOL   H75815236   3.060   3.962   7.400  0.0714  1.5005  0.6769
   20MOL   H75915237   3.308   3.916   7.209  2.1062 -0.6151  1.6695
   20MOL   H76015238   3.208   3.792   7.286  4.0051 -1.6347  1.4954
   20MOL   H76115239   3.351   3.988   7.438  2.2616 -0.3604  1.4959
   20MOL   H76215240   3.416   3.850   7.395  0.2987 -0.3252  0.3986
   21MOL     C115241   4.970   1.687   1.772  0.6440  0.6205  0.4862
   21MOL     O215242   4.858   1.732   1.755 -0.3698 -0.9605  0.0517
   21MOL     C315243   5.041   1.706   1.907 -0.4201  0.0536 -0.2763
   21MOL     C415244   5.113   1.836   1.928  0.5845 -0.3600 -0.3554
   21MOL     C515245   5.043   1.970   1.893 -0.4907  0.2559  0.1463
   21MOL     C615246   5.132   2.090   1.915 -0.0699 -0.6064 -0.1615
   21MOL     C715247   5.133   2.126   2.061  0.0526 -0.3503 -0.6004
   21MOL     O815248   5.043   2.192   2.114  0.2513 -0.0869 -0.1058
   21MOL     N915249   5.246   2.094   2.124 -0.2911 -0.0161  0.2466
   21MOL    C1015250   5.268   2.127   2.264 -0.0586  0.2593  0.2027
   21MOL    C1115251   5.339   2.259   2.280 -0.2530  0.1918 -0.4514
   21MOL    C1215252   5.365   2.299   2.424 -0.0848 -0.1552  0.1143
   21MOL    C1315253   5.456   2.427   2.434 -0.6717  0.7024 -0.9354
   21MOL    C1415254   5.519   2.429   2.571  0.1739 -0.3271  0.2366
   21MOL    C1515255   5.670   2.439   2.585 -0.0656  0.1478  0.0737
   21MOL    N1615256   5.713   2.569   2.536 -0.2599 -0.2724  0.6968
   21MOL    H1715257   4.956   1.700   1.975  1.0856  1.3491  1.7583
   21MOL    H1815258   5.106   1.623   1.933 -0.1968  0.1384 -0.5659
   21MOL    H1915259   5.146   1.842   2.032 -0.4740 -1.6450  0.0640
   21MOL    H2015260   5.206   1.823   1.872  0.8454 -2.4651  0.5409
   21MOL    H2115261   4.945   1.994   1.934 -0.8176  1.2239 -1.1408
   21MOL    H2215262   5.007   1.949   1.792 -2.4652 -0.1910  0.9257
   21MOL    H2315263   5.093   2.170   1.853  1.6640 -1.0720 -1.8852
   21MOL    H2415264   5.234   2.068   1.882  0.0534 -0.9035  0.3997
   21MOL    H2515265   5.318   2.043   2.074 -0.0267  0.1932  0.4129
   21MOL    H2615266   5.171   2.146   2.310 -1.2740 -1.3758 -1.5871
   21MOL    H2715267   5.320   2.043   2.310  1.3376  1.2947  0.5492
   21MOL    H2815268   5.421   2.259   2.208 -1.7677  0.7462 -2.2210
   21MOL    H2915269   5.275   2.338   2.240 -0.4459  0.8983  1.2009
   21MOL    H3015270   5.416   2.222   2.482 -0.8822 -0.6855  0.1106
   21MOL    H3115271   5.277   2.338   2.476 -1.0694 -1.1168 -0.8165
   21MOL    H3215272   5.535   2.432   2.358  1.2331 -0.1186  0.9366
   21MOL    H3315273   5.396   2.517   2.427 -3.1703 -0.7461  1.0645
   21MOL    H3415274   5.488   2.518   2.626  1.1858  0.7314 -0.8735
   21MOL    H3515275   5.488   2.346   2.634 -1.6801 -0.6462 -1.0728
   21MOL    H3615276   5.703   2.355   2.523 -0.9219 -0.3527  0.2915
   21MOL    H3715277   5.691   2.421   2.690  0.6871  0.0409 -0.0924
   21MOL    H3815278   5.746   2.569   2.440  0.1376 -1.5228  0.8233
   21MOL    H3915279   5.022   1.636   1.691  0.0306  0.5572  0.1386
   21MOL    C4015280   5.757   2.663   2.610 -0.4627 -0.2676  0.0291
   21MOL    O4115281   5.761   2.659   2.734  0.2172 -0.0945 -0.1488
   21MOL    C4215282   5.813   2.787   2.532 -0.2761  0.2744 -0.0676
   21MOL    C4315283   5.869   2.903   2.619 -0.2394 -0.4807 -0.0223
   21MOL    C4415284   5.886   3.034   2.543 -0.4750 -0.4374  0.6726
   21MOL    C4515285   5.898   3.164   2.632  0.1529  0.6115 -0.3920
   21MOL    C4615286   5.909   3.293   2.553 -0.1584  0.3157 -0.9633
   21MOL    O4715287   5.979   3.298   2.453 -0.2008 -0.3378  0.3253
   21MOL    N4815288   5.836   3.392   2.597 -0.1950 -0.6611  0.3067
   21MOL    C4915289   5.821   3.512   2.516  0.0854 -0.4652 -0.2761
   21MOL    C5015290   5.939   3.616   2.529 -0.4689 -0.6216 -0.1477
   21MOL    C5115291   5.911   3.746   2.449  1.2361  0.0279 -0.2332
   21MOL    C5215292   6.017   3.851   2.458  0.2646 -0.4330  0.3492
   21MOL    C5315293   6.004   3.971   2.366  0.2253  0.2228  0.3039
   21MOL    C5415294   6.135   4.055   2.365  0.8357 -0.0110  0.1819
   21MOL    N5515295   6.111   4.178   2.290  0.2117  0.2345  0.0100
   21MOL    H5615296   5.894   2.746   2.472  0.8094 -0.0992  1.5936
   21MOL    H5715297   5.727   2.818   2.473 -0.1632 -0.7321 -0.7651
   21MOL    H5815298   5.809   2.916   2.709 -0.2827 -1.1473  0.0502
   21MOL    H5915299   5.965   2.869   2.655 -0.8955 -1.6530  0.6466
   21MOL    H6015300   5.802   3.035   2.474  0.7778 -2.0711 -0.9241
   21MOL    H6115301   5.975   3.015   2.482 -1.0257  0.0248 -0.2966
   21MOL    H6215302   5.985   3.165   2.698 -0.7438 -0.0411  0.8098
   21MOL    H6315303   5.816   3.178   2.702  1.7878 -1.7758  2.1230
   21MOL    H6415304   5.774   3.374   2.674  0.3165 -1.8387  0.4505
   21MOL    H6515305   5.793   3.494   2.412 -2.8485  0.7356  0.2661
   21MOL    H6615306   5.728   3.556   2.552 -0.3059 -1.7717  0.3564
   21MOL    H6715307   5.960   3.636   2.634  0.2461 -2.5970  0.0975
   21MOL    H6815308   6.031   3.576   2.485  0.7546  1.8560  0.0662
   21MOL    H6915309   5.815   3.794   2.472 -0.2597 -1.7092 -2.5923
   21MOL    H7015310   5.911   3.719   2.343  4.1721  1.4277 -0.6239
   21MOL    H7115311   6.027   3.882   2.562  1.9982  0.7089 -0.1433
   21MOL    H7215312   6.109   3.798   2.433 -0.0542 -1.8973  2.1536
   21MOL    H7315313   5.990   3.935   2.264  3.0476  0.7909 -0.3039
   21MOL    H7415314   5.917   4.025   2.404  0.9717  1.4190  0.3263
   21MOL    H7515315   6.224   4.009   2.323  1.5159 -0.3544  1.9736
   21MOL    H7615316   6.162   4.087   2.465 -2.2341  2.5809  0.2394
   21MOL    H7715317   6.075   4.259   2.339 -2.2670 -0.5112 -0.4776
   21MOL    C7815318   6.103   4.190   2.156 -0.3539 -0.3972  0.6483
   21MOL    O7915319   6.110   4.089   2.089  0.2658  0.3559  0.2938
   21MOL    C8015320   6.085   4.330   2.099 -0.0530  0.6338 -0.0318
   21MOL    C8115321   6.213   4.406   2.080  0.0702 -0.4581  0.1049
   21MOL    C8215322   6.281   4.379   1.957 -0.5109 -0.5070  0.0153
   21MOL    C8315323   6.417   4.453   1.933  0.7050 -0.1154 -0.0684
   21MOL    C8415324   6.495   4.417   1.807  0.3459 -0.2358 -0.3313
   21MOL    O8515325   6.443   4.414   1.692  0.0413  0.5796 -0.4568
   21MOL    N8615326   6.627   4.382   1.824 -0.2692 -0.2431 -0.0738
   21MOL    C8715327   6.703   4.317   1.714  0.0569  0.0273 -0.2478
   21MOL    C8815328   6.843   4.386   1.690  1.0525 -0.2173 -0.2131
   21MOL    C8915329   6.926   4.335   1.574  1.0586  0.0157  0.4404
   21MOL    C9015330   7.052   4.416   1.557 -0.3736  0.2069 -0.9166
   21MOL    C9115331   7.110   4.403   1.422 -0.1888 -0.3634 -0.8128
   21MOL    C9215332   7.201   4.523   1.381 -0.1169 -0.1905  0.7193
   21MOL    N9315333   7.242   4.527   1.246  0.6826  0.5691 -0.0781
   21MOL    H9415334   6.033   4.329   2.003  1.1038  1.3611 -0.6834
   21MOL    H9515335   6.010   4.378   2.162  0.3896 -1.1783  1.9429
   21MOL    H9615336   6.195   4.514   2.088 -0.0280 -0.5912  1.6988
   21MOL    H9715337   6.277   4.388   2.166 -1.5535  0.6113  1.5489
   21MOL    H9815338   6.215   4.401   1.873  0.6116 -1.3224 -1.1049
   21MOL    H9915339   6.288   4.271   1.941  0.0558 -0.1595 -2.2734
   21MOL   H10015340   6.484   4.442   2.018 -0.3160 -1.6076  0.5566
   21MOL   H10115341   6.392   4.559   1.922  0.5076 -0.0317  1.1100
   21MOL   H10215342   6.673   4.396   1.913 -2.1392  0.2832  0.8369
   21MOL   H10315343   6.706   4.211   1.741  1.2215  0.3519  0.9496
   21MOL   H10415344   6.649   4.325   1.620 -1.1671  2.4286  0.6078
   21MOL   H10515345   6.820   4.490   1.666  1.8211 -0.1647 -0.7471
   21MOL   H10615346   6.902   4.389   1.781 -0.4469 -1.1406  0.8033
   21MOL   H10715347   6.872   4.329   1.479 -1.6109 -0.3315  1.9076
   21MOL   H10815348   6.955   4.232   1.594 -2.5988 -1.7758 -2.6578
   21MOL   H10915349   7.018   4.520   1.566 -1.8438 -0.1934 -1.6139
   21MOL   H11015350   7.120   4.388   1.636 -0.5058  1.8384 -0.2021
   21MOL   H11115351   7.168   4.311   1.427  1.7074  0.8603  0.4297
   21MOL   H11215352   7.038   4.381   1.343 -2.2233 -0.0433  0.9006
   21MOL   H11315353   7.290   4.532   1.444 -0.5298  0.8366  1.1837
   21MOL   H11415354   7.148   4.616   1.402 -0.4612  0.0484 -1.1634
   21MOL   H11515355   7.327   4.479   1.221 -0.9086 -1.3355 -2.1707
   21MOL   C11615356   7.166   4.561   1.143 -0.5909  0.3986  0.0137
   21MOL   O11715357   7.054   4.616   1.153 -0.2153  0.4500  0.0430
   21MOL   C11815358   7.223   4.530   1.008 -0.4209 -0.1505  0.1140
   21MOL   C11915359   7.112   4.480   0.906  0.4373 -0.5574 -0.5752
   21MOL   C12015360   7.024   4.584   0.840 -0.2680 -0.3466 -0.2368
   21MOL   C12115361   6.929   4.511   0.739 -0.1181 -0.0255 -0.6367
   21MOL   C12215362   6.860   4.606   0.643  0.2194  0.0857 -0.0996
   21MOL   O12315363   6.926   4.699   0.599  0.3651 -0.3215 -0.2761
   21MOL   N12415364   6.736   4.585   0.610  0.1151 -0.9611 -0.2221
   21MOL   C12515365   6.671   4.649   0.494  0.1041 -1.3487 -0.4022
   21MOL   C12615366   6.606   4.784   0.543 -0.4759 -0.0671  0.3219
   21MOL   C12715367   6.489   4.847   0.459  0.3230 -0.5690 -0.3762
   21MOL   C12815368   6.522   4.870   0.311  0.4139  0.0014  0.2911
   21MOL   C12915369   6.606   4.991   0.276  0.3884  0.0404  0.1150
   21MOL   C13015370   6.634   5.012   0.128 -0.4086 -0.4275 -0.1735
   21MOL   N13115371   6.528   5.074   0.048 -0.3665 -0.2328 -0.6789
   21MOL   H13215372   7.276   4.616   0.968 -0.0196 -0.1446  0.6513
   21MOL   H13315373   7.293   4.449   1.025 -0.4908 -0.2144  0.1004
   21MOL   H13415374   7.165   4.422   0.830  0.7388 -1.0380 -0.0046
   21MOL   H13515375   7.053   4.406   0.960  0.5780  1.6435  2.7333
   21MOL   H13615376   7.081   4.671   0.807  0.4530 -0.5931  0.3575
   21MOL   H13715377   6.954   4.621   0.914  1.3481 -0.1658  1.2226
   21MOL   H13815378   6.855   4.448   0.787 -0.6186  1.8189  1.0358
   21MOL   H13915379   7.000   4.446   0.686  0.8490  1.7220 -1.5410
   21MOL   H14015380   6.710   4.491   0.638 -3.0927 -0.3727 -0.9573
   21MOL   H14115381   6.749   4.680   0.425 -0.8193  0.6697 -0.5704
   21MOL   H14215382   6.607   4.573   0.448 -1.4158  0.4184 -1.2733
   21MOL   H14315383   6.575   4.777   0.647 -0.6846  0.4858  0.2963
   21MOL   H14415384   6.680   4.863   0.538 -0.5652 -0.0242 -0.3189
   21MOL   H14515385   6.453   4.941   0.502  2.9793  0.5092 -0.3813
   21MOL   H14615386   6.405   4.780   0.472 -0.7215  1.2042  2.4692
   21MOL   H14715387   6.570   4.779   0.277 -0.0350  0.3577 -1.3261
   21MOL   H14815388   6.433   4.870   0.248 -1.3960  0.1162  2.7807
   21MOL   H14915389   6.547   5.077   0.311 -0.4804 -0.2146 -0.7027
   21MOL   H15015390   6.706   4.985   0.318  0.3004 -0.1761  0.3001
   21MOL   H15115391   6.664   4.920   0.078 -0.6834 -0.1943 -0.7733
   21MOL   H15215392   6.716   5.083   0.118  1.0679 -2.3045 -1.8406
   21MOL   H15315393   6.434   5.043   0.068 -1.2072  2.3151 -0.5064
   21MOL   C15415394   6.537   5.148   7.646  0.2794  0.4848 -0.9453
   21MOL   O15515395   6.645   5.186   7.599 -0.1136  0.4278 -0.1060
   21MOL   C15615396   6.401   5.171   7.576 -0.0445  0.3866 -0.1003
   21MOL   C15715397   6.406   5.125   7.430  0.4004 -0.3895 -0.5743
   21MOL   C15815398   6.257   5.128   7.379 -0.4789  0.2457 -0.2748
   21MOL   C15915399   6.231   5.073   7.243 -0.0360  0.2075  0.7039
   21MOL   C16015400   6.207   4.921   7.241 -0.2200  0.6458  0.6324
   21MOL   O16115401   6.183   4.857   7.344  0.1454  0.3061  0.0358
   21MOL   N16215402   6.210   4.853   7.129 -0.3840  0.2570  0.4049
   21MOL   C16315403   6.207   4.708   7.126 -0.4688 -1.1941  0.6383
   21MOL   C16415404   6.066   4.652   7.090  0.1414  0.2282 -0.1651
   21MOL   C16515405   6.052   4.503   7.150  0.1262 -0.0969  0.3789
   21MOL   C16615406   6.058   4.488   7.305 -0.4970  0.0789 -0.8278
   21MOL   C16715407   5.940   4.523   7.384  0.4976  0.0977 -0.5147
   21MOL   C16815408   5.965   4.545   7.529 -0.3560 -0.1107 -0.5073
   21MOL   N16915409   6.052   4.664   7.544  0.1071 -0.2375 -0.7656
   21MOL   H17015410   6.315   5.123   7.623  1.3800 -1.8729  0.2865
   21MOL   H17115411   6.393   5.279   7.583 -0.0862  0.3096  1.2032
   21MOL   H17215412   6.465   5.192   7.368 -0.8804  1.5576  0.2766
   21MOL   H17315413   6.449   5.024   7.427  0.2146 -0.5631  1.5227
   21MOL   H17415414   6.216   5.229   7.371  0.8085  0.8299  0.5402
   21MOL   H17515415   6.192   5.076   7.449  0.3787 -0.8498 -0.2781
   21MOL   H17615416   6.297   5.095   7.160 -1.7269  1.3488 -0.3643
   21MOL   H17715417   6.137   5.112   7.205 -1.8465 -1.8379  2.8851
   21MOL   H17815418   6.217   4.903   7.041 -1.3993  1.1488  0.8146
   21MOL   H17915419   6.282   4.684   7.051 -1.3773  0.2443 -0.7751
   21MOL   H18015420   6.246   4.651   7.211 -0.2239 -0.8510  0.7520
   21MOL   H18115421   5.981   4.707   7.131 -1.2023 -1.2189 -0.9325
   21MOL   H18215422   6.052   4.659   6.983  0.9474  1.1494 -0.2138
   21MOL   H18315423   6.132   4.444   7.106 -0.1309  0.2257 -0.5365
   21MOL   H18415424   5.962   4.455   7.111 -1.5182  2.5758  0.7595
   21MOL   H18515425   6.087   4.387   7.333 -2.8419 -1.0027 -2.1603
   21MOL   H18615426   6.141   4.543   7.349 -0.3030 -1.3210  0.6071
   21MOL   H18715427   5.904   4.614   7.336  0.4647  1.1698  1.5191
   21MOL   H18815428   5.864   4.446   7.370  1.5549 -1.3561  1.5051
   21MOL   H18915429   6.017   4.455   7.562 -1.1936 -0.3810  0.0848
   21MOL   H19015430   5.884   4.550   7.602  1.6916 -3.6282  2.1848
   21MOL   H19115431   6.075   4.706   7.455 -0.6977  0.4018 -0.6860
   21MOL   C19215432   6.120   4.683   7.655 -1.0684  0.3335  0.2545
   21MOL   O19315433   6.090   4.632   0.055 -0.9442 -0.1818 -0.2862
   21MOL   C19415434   6.243   4.776   7.639  0.5202  0.4280 -0.8342
   21MOL   C19515435   6.361   4.709   7.566  0.2879 -0.2775 -0.5908
   21MOL   C19615436   6.407   4.571   7.606 -0.1067  0.1590  0.8015
   21MOL   C19715437   6.521   4.521   7.511 -0.2554  0.0326  0.7607
   21MOL   C19815438   6.485   4.457   7.379  0.2969  0.2170  0.3171
   21MOL   O19915439   6.411   4.358   7.378  0.1643  0.3940  0.0032
   21MOL   N20015440   6.525   4.517   7.270  0.0782  0.2172  0.0640
   21MOL   C20115441   6.492   4.469   7.137 -0.7196 -0.2456 -0.6559
   21MOL   C20215442   6.591   4.515   7.033  0.0904 -0.1851  0.1195
   21MOL   C20315443   6.738   4.462   7.058  0.5233  0.5780 -0.2703
   21MOL   C20415444   6.766   4.309   7.022  0.1132 -0.0417  0.3416
   21MOL   C20515445   6.907   4.252   7.052  1.0417 -0.9235 -0.2076
   21MOL   C20615446   6.909   4.102   7.021 -0.1517 -0.1867 -0.4838
   21MOL   N20715447   7.036   4.042   7.047 -0.4787 -0.6076 -0.2024
   21MOL   H20815448   6.212   4.873   7.599  1.8643 -0.2540 -3.6500
   21MOL   H20915449   6.274   4.812   0.029 -1.3846 -1.5441  0.5209
   21MOL   H21015450   6.327   4.706   7.463 -0.2484 -0.7688 -0.4029
   21MOL   H21115451   6.443   4.781   7.573 -0.4179  0.3782  1.4068
   21MOL   H21215452   6.318   4.511   7.590 -0.5501  0.9575  0.2165
   21MOL   H21315453   6.439   4.552   0.001 -1.9270 -3.0116  0.8315
   21MOL   H21415454   6.572   4.442   7.566  1.3854 -0.3098 -1.1834
   21MOL   H21515455   6.607   4.588   7.502  1.7643 -2.6587 -0.8318
   21MOL   H21615456   6.579   4.600   7.288 -1.6862  1.5990 -0.8206
   21MOL   H21715457   6.489   4.361   7.141  0.5098 -0.2628  0.0270
   21MOL   H21815458   6.390   4.498   7.111 -0.3892  2.4055  0.8219
   21MOL   H21915459   6.563   4.478   6.934  0.1548 -1.8765  0.7192
   21MOL   H22015460   6.608   4.622   7.034 -3.0605  0.3610 -0.0157
   21MOL   H22115461   6.788   4.478   7.153  2.7618  1.1879 -1.5059
   21MOL   H22215462   6.809   4.519   6.997  0.2356  0.5935 -0.5884
   21MOL   H22315463   6.698   4.248   7.082 -0.2919  0.4160  0.3459
   21MOL   H22415464   6.749   4.289   6.916 -1.7199 -0.6238  0.7260
   21MOL   H22515465   6.973   4.311   6.988  0.8507 -1.7651 -1.1997
   21MOL   H22615466   6.948   4.280   7.149 -0.4537 -1.6531  0.6373
   21MOL   H22715467   6.896   4.084   6.914 -0.5854  0.4689 -0.5422
   21MOL   H22815468   6.839   4.031   7.066 -0.8113 -0.2197 -1.5439
   21MOL   H22915469   7.090   4.014   6.966  0.6395 -2.0639  1.0021
   21MOL   C23015470   7.075   4.013   7.172 -0.2760 -0.5741 -0.0558
   21MOL   O23115471   7.009   4.047   7.270 -0.2132  0.5628 -0.2403
   21MOL   C23215472   7.211   3.937   7.194 -0.1057  0.1806 -0.9814
   21MOL   C23315473   7.282   3.957   7.328  0.1091 -0.5846  0.3508
   21MOL   C23415474   7.322   4.099   7.368 -0.7544 -0.4045 -0.4451
   21MOL   C23515475   7.400   4.109   7.501 -0.3045  0.5246 -1.0293
   21MOL   C23615476   7.481   4.234   7.524  0.2833 -0.2711  0.5940
   21MOL   O23715477   7.573   4.266   7.451 -0.0258  0.2166  0.2401
   21MOL   N23815478   7.435   4.306   7.626 -0.1476 -0.2368 -1.0902
   21MOL   C23915479   7.471   4.443   7.637  0.5973  0.7986  0.0742
   21MOL   C24015480   7.417   4.511   0.059  0.5823  0.1974  0.4864
   21MOL   C24115481   7.453   4.423   0.188 -0.1593 -0.1380 -0.2664
   21MOL   C24215482   7.405   4.505   0.313  0.2887  0.0025  0.8015
   21MOL   C24315483   7.453   4.430   0.439  0.0883 -0.3250  0.1045
   21MOL   C24415484   7.416   4.503   0.565  0.8589 -0.1064  0.3466
   21MOL   N24515485   7.495   4.623   0.585  0.7442 -0.2397 -0.8506
   21MOL   H24615486   7.171   3.835   7.189  1.4527 -0.4827 -0.0650
   21MOL   H24715487   7.277   3.955   7.109  0.2052  2.9810 -0.1866
   21MOL   H24815488   7.225   3.910   7.409  0.3617 -0.2119  0.7511
   21MOL   H24915489   7.382   3.914   7.325  1.0220  1.4133  1.1173
   21MOL   H25015490   7.236   4.165   7.379 -2.0534 -1.4919 -3.5136
   21MOL   H25115491   7.385   4.139   7.288 -1.1485  0.4710 -0.3277
   21MOL   H25215492   7.448   4.014   7.521  0.7691  1.5017  1.2611
   21MOL   H25315493   7.317   4.109   7.571  0.8979  2.6348  0.4611
   21MOL   H25415494   7.357   4.263   7.674 -0.5122  0.1567 -1.3333
   21MOL   H25515495   7.577   4.468   7.634  1.3829 -1.8957  2.5369
   21MOL   H25615496   7.418   4.495   7.558  0.0762 -1.1943 -0.9193
   21MOL   H25715497   7.444   4.616   0.070  0.5186  0.3336 -0.5498
   21MOL   H25815498   7.308   4.517   0.052  0.5627  0.9792  1.3399
   21MOL   H25915499   7.561   4.410   0.180  0.1334  1.1163  1.3095
   21MOL   H26015500   7.415   4.321   0.195  1.1073 -0.6927 -1.2714
   21MOL   H26115501   7.463   4.597   0.313  1.9261 -0.9863  2.3651
   21MOL   H26215502   7.300   4.533   0.309  0.3016 -0.0778 -0.4254
   21MOL   H26315503   7.397   4.337   0.434 -0.5339  0.0428  0.1198
   21MOL   H26415504   7.561   4.414   0.441  0.4429  1.5939 -2.0504
   21MOL   H26515505   7.435   4.444   0.655  1.9361  1.3009  1.0514
   21MOL   H26615506   7.312   4.536   0.562  1.1980  0.8715 -1.4323
   21MOL   H26715507   7.594   4.613   0.564  1.2570  0.4108  1.1695
   21MOL   C26815508   7.460   4.750   0.598 -0.0248 -0.4505 -0.7931
   21MOL   O26915509   7.551   4.835   0.602  0.0858  0.0721 -0.0408
   21MOL   C27015510   7.319   4.787   0.637 -0.3091 -0.5997  0.4650
   21MOL   C27115511   7.248   4.856   0.527 -0.0985 -0.3568  0.0974
   21MOL   C27215512   7.227   4.791   0.394 -0.0005  0.4190 -0.3899
   21MOL   C27315513   7.120   4.855   0.315  0.3011 -0.2024  0.5685
   21MOL   C27415514   7.075   4.773   0.198 -0.1103 -0.7362  1.2213
   21MOL   O27515515   7.153   4.757   0.104  0.0060 -0.1845  0.8975
   21MOL   N27615516   6.948   4.733   0.210  0.3652 -0.1809  0.3535
   21MOL   C27715517   6.883   4.631   0.120  1.1828 -0.3760  0.0682
   21MOL   C27815518   6.850   4.501   0.198  0.3787  0.4908 -0.0206
   21MOL   C27915519   6.967   4.435   0.274  0.3135  0.5058 -0.1175
   21MOL   C28015520   6.907   4.328   0.364  0.6855  0.3616 -0.1321
   21MOL   C28115521   7.025   4.263   0.445 -0.2968 -0.3836  0.3322
   21MOL   C28215522   7.114   4.169   0.366  0.1999 -0.1057 -0.0660
   21MOL   N28315523   7.237   4.138   0.432 -0.1442 -0.3374 -0.1423
   21MOL   H28415524   7.262   4.700   0.667 -1.4561  0.5200  1.6181
   21MOL   H28515525   7.325   4.860   0.718  1.2579 -0.2331  0.0386
   21MOL   H28615526   7.152   4.880   0.573 -0.2466 -2.6661  1.0672
   21MOL   H28715527   7.283   4.958   0.510 -1.3035  0.1303  0.4493
   21MOL   H28815528   7.206   4.685   0.411 -0.9201  0.5661 -0.5804
   21MOL   H28915529   7.321   4.787   0.339  1.5483 -2.3992  2.3081
   21MOL   H29015530   7.142   4.956   0.280 -1.4954  0.6619  1.8422
   21MOL   H29115531   7.035   4.875   0.380  1.9389  2.3746  1.9884
   21MOL   H29215532   6.904   4.748   0.300  0.0598  1.6725 -0.0834
   21MOL   H29315533   6.790   4.676   0.085 -0.0141 -1.6445  1.5414
   21MOL   H29415534   6.943   4.605   0.033  0.9345  0.1982 -0.2856
   21MOL   H29515535   6.753   4.520   0.243 -0.2211 -2.8932  0.2096
   21MOL   H29615536   6.825   4.432   0.118  1.8817 -1.3300  1.0480
   21MOL   H29715537   7.014   4.519   0.325  1.8266 -0.2865 -0.1839
   21MOL   H29815538   7.041   4.396   0.205  1.0442  0.5719  0.6201
   21MOL   H29915539   6.822   4.365   0.421  0.7877 -1.9080  1.6057
   21MOL   H30015540   6.856   4.252   0.305  0.4825  0.4104 -0.0177
   21MOL   H30115541   7.069   4.342   0.506 -0.9991 -0.1820  0.5867
   21MOL   H30215542   6.980   4.196   0.518 -1.8816 -0.6529 -0.8513
   21MOL   H30315543   7.151   4.220   0.277 -0.1900  1.7285  0.7971
   21MOL   H30415544   7.059   4.077   0.346  0.0362  0.1685 -0.9083
   21MOL   H30515545   7.314   4.131   0.366 -1.2931  0.0573 -1.5345
   21MOL   C30615546   7.253   4.108   0.555  0.2428  0.3685 -0.1984
   21MOL   O30715547   7.157   4.099   0.631 -0.1232 -0.1737 -0.4864
   21MOL   C30815548   7.392   4.064   0.602 -0.2661 -0.0981 -0.4705
   21MOL   C30915549   7.400   4.044   0.758  0.0292 -0.2520  0.2837
   21MOL   C31015550   7.389   4.174   0.854 -0.1261 -0.0891  0.2384
   21MOL   C31115551   7.435   4.136   0.991 -1.2794 -0.1753 -0.1070
   21MOL   C31215552   7.348   4.038   1.062 -0.3305  0.0346 -0.0169
   21MOL   O31315553   7.247   4.074   1.119 -0.4608 -0.2148 -0.1573
   21MOL   N31415554   7.378   3.905   1.058 -0.0529  0.1369 -0.4841
   21MOL   C31515555   7.306   3.797   1.124  0.9947 -0.2343 -0.3465
   21MOL   C31615556   7.390   3.670   1.118 -0.5744 -0.0779  0.0304
   21MOL   C31715557   7.303   3.553   1.148 -0.1619  0.4606  0.3992
   21MOL   C31815558   7.379   3.424   1.158  0.0054  0.3492  0.5133
   21MOL   C31915559   7.295   3.317   1.216  0.5745  0.1746 -0.6661
   21MOL   C32015560   7.378   3.201   1.270 -0.1587 -0.5444 -0.0099
   21MOL   N32115561   7.288   3.089   1.302  0.2005 -0.0123 -0.5483
   21MOL   H32215562   7.406   3.970   0.548 -0.2640  0.6974 -1.8839
   21MOL   H32315563   7.465   4.141   0.576  0.2763 -0.2038  0.7288
   21MOL   H32415564   7.319   3.976   0.786  0.8846 -2.2085 -1.8284
   21MOL   H32515565   7.491   3.992   0.786 -1.6527 -2.4228  1.9875
   21MOL   H32615566   7.286   4.207   0.863 -0.6769 -1.7641  0.1226
   21MOL   H32715567   7.449   4.258   0.818 -1.1248 -1.6255 -5.5524
   21MOL   H32815568   7.428   4.225   1.053 -1.1103  0.6358 -1.2322
   21MOL   H32915569   7.539   4.106   0.998 -1.0245  0.4376 -1.1922
   21MOL   H33015570   7.473   3.890   1.026 -0.0246  2.7492 -1.7453
   21MOL   H33115571   7.288   3.826   1.227  0.2409 -1.9302  0.0241
   21MOL   H33215572   7.209   3.782   1.075 -0.1968  1.3640  1.4496
   21MOL   H33315573   7.431   3.661   1.018  0.0052 -2.5495  0.4745
   21MOL   H33415574   7.470   3.681   1.191 -0.7494  0.2074  0.1796
   21MOL   H33515575   7.223   3.544   1.074  0.6452  0.0016 -0.4366
   21MOL   H33615576   7.263   3.578   1.246  0.5387  0.9514  0.5634
   21MOL   H33715577   7.412   3.390   1.060 -0.3842 -3.4528  1.6252
   21MOL   H33815578   7.469   3.445   1.217 -0.2583  1.6757  0.4563
   21MOL   H33915579   7.221   3.354   1.287  1.1627  0.6242 -0.2938
   21MOL   H34015580   7.242   3.274   1.130  2.0880 -0.7705 -1.1487
   21MOL   H34115581   7.436   3.225   1.360  0.5528 -1.6936 -0.1486
   21MOL   H34215582   7.458   3.176   1.201  0.9456  1.7655  0.3719
   21MOL   H34315583   7.211   3.106   1.366 -0.4780  1.1372 -1.6477
   21MOL   C34415584   7.311   2.958   1.287  0.0869  0.5736  0.1739
   21MOL   O34515585   7.419   2.913   1.257 -0.1613 -0.4397  0.0340
   21MOL   C34615586   7.187   2.871   1.299  0.0164 -0.4077  0.5123
   21MOL   C34715587   7.205   2.724   1.272 -0.1338 -0.2361  0.0366
   21MOL   C34815588   7.272   2.646   1.386  0.2088  0.3843 -0.4532
   21MOL   C34915589   7.252   2.493   1.369  0.6173 -0.1917 -0.8454
   21MOL   C35015590   7.347   2.428   1.466  0.4100 -0.4988 -0.1447
   21MOL   O35115591   7.454   2.381   1.431  0.0071 -0.4568  0.0953
   21MOL   N35215592   7.304   2.429   1.597  0.0831 -0.2149 -0.0394
   21MOL   C35315593   7.353   2.344   1.701 -0.2976 -0.0513 -0.5662
   21MOL   C35415594   7.471   2.418   1.774 -0.3674 -0.1743  0.0488
   21MOL   C35515595   7.525   2.342   1.899  0.1217 -0.0414 -0.4223
   21MOL   C35615596   7.639   2.412   1.974  0.4330 -0.4217 -0.8576
   21MOL   C35715597   7.698   2.328   2.091  0.2503 -0.5871  0.2800
   21MOL   C35815598   7.616   2.307   2.219 -0.2123  0.2554 -0.2719
   21MOL   N35915599   7.679   2.258   2.341 -0.7075  0.2095 -0.2098
   21MOL   H36015600   7.150   2.876   1.402 -1.0508 -3.2093  0.2900
   21MOL   H36115601   7.112   2.923   1.239  1.2085  1.1014  0.3096
   21MOL   H36215602   7.116   2.678   1.229 -1.8581  2.0910  1.0617
   21MOL   H36315603   7.267   2.722   1.182 -0.0285 -1.5509  0.1268
   21MOL   H36415604   7.233   2.683   1.481  0.4296  2.3429 -1.1106
   21MOL   H36515605   7.376   2.676   1.377  1.2383 -3.2147 -1.1506
   21MOL   H36615606   7.255   2.458   1.266  4.1678  0.9987 -1.1880
   21MOL   H36715607   7.151   2.473   1.406  1.3183 -1.2799  0.5534
   21MOL   H36815608   7.223   2.485   1.619  0.5079  0.7304 -0.8063
   21MOL   H36915609   7.283   2.330   1.783  2.3974 -1.0326  1.6575
   21MOL   H37015610   7.395   2.252   1.660 -1.9955 -0.1883 -2.0446
   21MOL   H37115611   7.543   2.433   1.694 -0.6815  0.7939 -0.0566
   21MOL   H37215612   7.434   2.514   1.809 -3.4402 -1.0079 -0.7703
   21MOL   H37315613   7.557   2.246   1.858 -1.4975 -0.4325 -0.8326
   21MOL   H37415614   7.438   2.317   1.960  1.0079 -1.7774  0.1816
   21MOL   H37515615   0.006   2.440   1.900 -0.1286 -1.5697 -1.8680
   21MOL   H37615616   7.603   2.508   2.013  0.6406 -0.4378 -0.6222
   21MOL   H37715617   0.018   2.230   2.051 -0.5057  0.1490 -2.1344
   21MOL   H37815618   0.080   2.379   2.122 -0.7896  1.2775  0.2840
   21MOL   H37915619   7.537   2.237   2.189 -0.6435  0.9732 -0.8350
   21MOL   H38015620   7.565   2.401   2.241  0.6225  0.2185  1.8539
   21MOL   H38115621   7.675   2.159   2.361  1.4220  0.3937  1.3293
   21MOL   C38215622   0.021   2.325   2.442 -0.5042 -0.1065  0.6347
   21MOL   O38315623   0.014   2.445   2.447  0.0265  0.1490  0.1855
   21MOL   C38415624   0.093   2.244   2.547 -1.1634  0.0820 -0.2936
   21MOL   C38515625   0.181   2.328   2.635 -0.2857  0.4295 -0.1022
   21MOL   C38615626   0.287   2.257   2.720 -0.6720  0.6237 -0.1591
   21MOL   C38715627   0.400   2.356   2.764 -0.2183 -0.3180 -0.0214
   21MOL   C38815628   0.363   2.447   2.877  0.5472 -0.6361  0.4540
   21MOL   O38915629   0.320   2.409   2.985  0.0191  0.2585  0.0954
   21MOL   N39015630   0.368   2.574   2.848 -0.2846 -0.0675 -0.4946
   21MOL   C39115631   0.350   2.679   2.941 -1.1255  0.2255 -0.1420
   21MOL   C39215632   0.206   2.739   2.923  0.2569 -0.1729 -0.1233
   21MOL   C39315633   0.172   2.866   3.012 -0.2927 -0.2607  0.4960
   21MOL   C39415634   0.226   3.003   2.961  0.1666  0.3976 -0.1294
   21MOL   C39515635   0.182   3.125   3.045 -0.4707  0.0391  0.0107
   21MOL   C39615636   0.217   3.261   2.984  0.7504  0.2567 -0.2153
   21MOL   N39715637   0.155   3.375   3.048  0.1228 -0.3743 -0.0984
   21MOL   H39815638   0.027   2.186   2.612 -1.7745 -0.8568 -1.7191
   21MOL   H39915639   0.159   2.172   2.498 -3.0308 -1.7695 -0.1948
   21MOL   H40015640   0.238   2.391   2.567 -1.8268  0.0520 -1.7835
   21MOL   H40115641   0.115   2.388   2.698 -1.3136 -1.3266  0.5414
   21MOL   H40215642   0.345   2.191   2.654 -0.3045  1.3828 -0.6000
   21MOL   H40315643   0.259   2.202   2.809  1.6991 -0.3559  0.0236
   21MOL   H40415644   0.432   2.413   2.677 -3.5335 -0.0638 -1.1373
   21MOL   H40515645   0.491   2.300   2.784 -0.5911 -1.0064 -0.2138
   21MOL   H40615646   0.404   2.599   2.757  1.0759 -1.2126 -0.2859
   21MOL   H40715647   0.365   2.649   3.045  1.7067 -0.3769 -0.7002
   21MOL   H40815648   0.427   2.747   2.907 -1.4402 -1.2752 -4.0904
   21MOL   H40915649   0.181   2.763   2.820 -1.0339  0.1557  0.2588
   21MOL   H41015650   0.145   2.652   2.947  0.6220  0.1447  2.0876
   21MOL   H41115651   0.203   2.853   3.116 -1.7642 -2.0613  0.7340
   21MOL   H41215652   0.066   2.888   3.011 -0.2647 -0.1514 -0.1009
   21MOL   H41315653   0.335   3.003   2.959  0.1625 -0.3903 -0.4206
   21MOL   H41415654   0.196   3.012   2.856 -3.7248  0.3400  0.8981
   21MOL   H41515655   0.074   3.123   3.062 -0.6867 -1.5246 -1.3093
   21MOL   H41615656   0.238   3.128   3.138  0.7181  1.6259 -0.7449
   21MOL   H41715657   0.188   3.254   2.879 -1.6376  0.6544  0.3692
   21MOL   H41815658   0.325   3.267   2.973  0.7714 -0.1630 -0.2337
   21MOL   H41915659   0.214   3.439   3.098 -1.5325 -0.3890  1.9971
   21MOL   C42015660   0.026   3.414   3.041  0.1857  0.1397 -0.1685
   21MOL   O42115661   7.642   3.347   2.993  0.4986 -0.3681 -0.6239
   21MOL   C42215662   0.004   3.552   3.113 -0.2622 -0.4018  0.9187
   21MOL   C42315663   7.574   3.557   3.186 -0.1001  0.2106  0.3217
   21MOL   C42415664   7.577   3.500   3.328  0.3890 -0.0371  0.3655
   21MOL   C42515665   7.445   3.496   3.398  0.9426 -0.0861 -0.4727
   21MOL   C42615666   7.465   3.520   3.554  0.0992  0.6131  0.0873
   21MOL   O42715667   7.539   3.445   3.622  0.4000  0.2644 -0.3220
   21MOL   N42815668   7.388   3.613   3.612 -0.4386 -0.3339  0.0468
   21MOL   C42915669   7.398   3.659   3.759 -0.1227  0.7554  1.2202
   21MOL   C43015670   7.270   3.696   3.822  0.3252 -0.2904 -0.3493
   21MOL   C43115671   7.299   3.752   3.964 -0.0969  0.0238  0.3026
   21MOL   C43215672   7.170   3.776   4.040 -0.0133 -0.0718 -0.1921
   21MOL   C43315673   7.176   3.794   4.198  0.3556 -0.1808 -0.3188
   21MOL   C43415674   7.051   3.848   4.261  0.2683 -0.1701 -0.3030
   21MOL   N43515675   6.932   3.774   4.227  0.1894  0.0307  0.4962
   21MOL   H43615676   0.087   3.576   3.180  0.4851  0.3293 -0.2563
   21MOL   H43715677   0.009   3.619   3.028  1.2465  0.3336  1.5579
   21MOL   H43815678   7.539   3.660   3.192 -0.2516  0.3025 -1.7850
   21MOL   H43915679   7.489   3.508   3.138 -0.7440  0.1032  1.5534
   21MOL   H44015680   7.649   3.537   3.402 -1.5923 -0.5474  2.6199
   21MOL   H44115681   7.611   3.399   3.305  2.8763  1.1970 -1.6476
   21MOL   H44215682   7.400   3.398   3.383 -0.0898  0.4888 -1.2355
   21MOL   H44315683   7.378   3.567   3.351 -0.4292 -0.5799  0.6771
   21MOL   H44415684   7.345   3.679   3.548 -0.5717 -1.0782 -0.6355
   21MOL   H44515685   7.448   3.582   3.818  1.1803 -1.4520 -2.5678
   21MOL   H44615686   7.465   3.745   3.758  1.7524 -0.6633  1.0169
   21MOL   H44715687   7.231   3.781   3.766 -1.4874 -0.4251  0.6627
   21MOL   H44815688   7.206   3.609   3.817  1.1685 -0.9114 -0.4316
   21MOL   H44915689   7.366   3.838   3.959  0.0575 -0.1907 -1.3561
   21MOL   H45015690   7.362   3.679   4.016 -0.8324 -1.0148 -0.2505
   21MOL   H45115691   7.114   3.846   3.979 -2.4570  0.2413  2.3103
   21MOL   H45215692   7.128   3.676   4.031  0.5908 -0.2536 -1.0642
   21MOL   H45315693   7.232   3.712   4.242 -0.0232 -1.0223 -1.3990
   21MOL   H45415694   7.243   3.880   4.204 -0.3215  0.2532  1.4298
   21MOL   H45515695   7.045   3.953   4.234  0.7720 -0.1529 -0.3509
   21MOL   H45615696   7.057   3.870   4.367 -1.9046  0.8408 -0.3676
   21MOL   H45715697   6.947   3.690   4.173  0.2280  1.2963 -1.5299
   21MOL   C45815698   6.813   3.832   4.225  1.1238  0.2121 -0.4375
   21MOL   O45915699   6.783   3.939   4.270 -0.1327  0.3798 -0.2124
   21MOL   C46015700   6.712   3.755   4.143 -0.0134  0.0217  0.7869
   21MOL   C46115701   6.585   3.836   4.092 -0.2002 -0.0144  0.3004
   21MOL   C46215702   6.524   3.767   3.964 -0.2557 -0.1507 -0.2513
   21MOL   C46315703   6.457   3.630   3.983  0.5717  0.0855 -0.4735
   21MOL   C46415704   6.328   3.630   4.063  0.3165 -0.2051 -0.3024
   21MOL   O46515705   6.253   3.728   4.057  0.0286  0.2922  0.6056
   21MOL   N46615706   6.298   3.534   4.152  0.9193 -0.5037  0.8233
   21MOL   C46715707   6.174   3.538   4.236 -0.3637  0.1834 -0.3926
   21MOL   C46815708   6.067   3.441   4.180 -0.4142  0.3217 -0.3623
   21MOL   C46915709   6.111   3.297   4.177  0.0326 -0.5586  0.3511
   21MOL   C47015710   6.010   3.192   4.139  0.8353  0.5622 -0.4907
   21MOL   C47115711   5.908   3.156   4.247  0.2763 -0.1606  0.7419
   21MOL   C47215712   5.952   3.067   4.362  0.3308  0.3168 -0.1471
   21MOL   N47315713   5.869   3.085   4.478  0.6927  0.4059 -0.3044
   21MOL   H47415714   6.761   3.720   4.053 -1.5026 -0.0964  0.0098
   21MOL   H47515715   6.684   3.672   4.208  3.1421 -1.2230  0.6169
   21MOL   H47615716   6.506   3.822   4.167  0.8602 -0.2669  1.3923
   21MOL   H47715717   6.599   3.941   4.068  0.2868 -0.3524 -0.8978
   21MOL   H47815718   6.595   3.761   3.881  0.4523 -0.7778  0.3880
   21MOL   H47915719   6.450   3.839   3.929  1.6886  1.6476 -0.7500
   21MOL   H48015720   6.518   3.553   4.029  1.3895  0.5824 -0.7141
   21MOL   H48115721   6.432   3.586   3.886 -3.0404  0.4320  0.2135
   21MOL   H48215722   6.354   3.455   4.180 -0.0957 -1.4907  0.1230
   21MOL   H48315723   6.192   3.499   4.336  0.1948 -1.4623 -1.1338
   21MOL   H48415724   6.140   3.641   4.251  2.5396  1.1858 -0.3411
   21MOL   H48515725   5.973   3.447   4.234 -0.3622  0.0925 -0.2464
   21MOL   H48615726   6.049   3.482   4.080  0.6468  0.2570 -0.5864
   21MOL   H48715727   6.166   3.263   4.265  0.0811  0.3105  0.6572
   21MOL   H48815728   6.187   3.289   4.099 -1.6420 -1.7164 -1.2076
   21MOL   H48915729   5.961   3.227   4.049 -0.8243 -0.1801  0.1018
   21MOL   H49015730   6.054   3.096   4.114  1.4255  0.4796  0.7941
   21MOL   H49115731   5.872   3.256   4.270 -0.1694 -0.1896  0.1712
   21MOL   H49215732   5.826   3.117   4.188 -0.5596 -0.3700  2.0132
   21MOL   H49315733   6.045   3.114   4.394  0.0014 -0.3383  1.8230
   21MOL   H49415734   5.968   2.967   4.323  0.2136 -0.3525  1.4759
   21MOL   H49515735   5.900   3.144   4.554  0.8208  1.4770 -1.1716
   21MOL   C49615736   5.750   3.028   4.505  0.5341 -0.0211 -0.9198
   21MOL   O49715737   5.717   2.931   4.439 -0.0213 -0.1647 -0.4301
   21MOL   C49815738   5.655   3.083   4.611 -0.6131  1.1075 -1.0082
   21MOL   C49915739   5.560   3.192   4.545 -0.6838 -0.0966 -0.3831
   21MOL   C50015740   5.628   3.332   4.557 -0.4556 -0.3132  0.1798
   21MOL   C50115741   5.544   3.452   4.519 -0.1823  0.0323  0.5614
   21MOL   C50215742   5.492   3.448   4.371  0.3101  0.4699  1.3136
   21MOL   O50315743   5.383   3.387   4.353  0.3015 -0.2138 -0.1013
   21MOL   N50415744   5.561   3.506   4.279  0.7288 -0.8302  0.3391
   21MOL   C50515745   5.538   3.478   4.138 -0.2196  0.3890 -0.2381
   21MOL   C50615746   5.617   3.358   4.075 -1.0482  0.1711  0.1063
   21MOL   C50715747   5.565   3.223   4.112 -0.0753  0.6834 -0.1308
   21MOL   C50815748   5.438   3.182   4.032 -0.1132 -0.4672 -0.1233
   21MOL   C50915749   5.412   3.030   4.038  0.2559  0.7755  0.8460
   21MOL   C51015750   5.304   2.968   3.955  0.6722  0.2293 -0.2055
   21MOL   N51115751   5.317   2.817   3.955 -0.2066 -0.1947  0.2596
   21MOL   H51215752   5.595   2.999   4.646  0.6358  0.3052 -0.7398
   21MOL   H51315753   5.713   3.116   4.697 -0.4749 -3.1736  0.6586
   21MOL   H51415754   5.539   3.177   4.439 -2.3799 -1.2206  0.0954
   21MOL   H51515755   5.462   3.197   4.591 -0.5175 -0.7726  0.0547
   21MOL   H51615756   5.724   3.335   4.505  0.4926  0.3211  1.9428
   21MOL   H51715757   5.675   3.352   4.653  1.0025  0.2864 -0.6516
   21MOL   H51815758   5.594   3.548   4.527  0.5925 -0.2986 -0.2537
   21MOL   H51915759   5.455   3.481   4.575  0.8249  1.4603  1.4333
   21MOL   H52015760   5.651   3.545   4.302  1.1745  0.1397 -2.7482
   21MOL   H52115761   5.433   3.477   4.107 -0.1112 -1.7960 -0.5860
   21MOL   H52215762   5.571   3.565   4.080 -1.5096 -0.3919 -2.2110
   21MOL   H52315763   5.597   3.350   3.968 -1.2853 -2.6930  0.3329
   21MOL   H52415764   5.723   3.365   4.099 -0.7585 -0.0787 -1.0412
   21MOL   H52515765   5.559   3.217   4.220  1.0803 -2.1014 -0.1526
   21MOL   H52615766   5.652   3.163   4.084  0.8384  1.9689 -0.0829
   21MOL   H52715767   5.344   3.231   4.058 -0.1506 -0.8279  0.4458
   21MOL   H52815768   5.451   3.204   3.926  1.0511 -2.4562 -0.4188
   21MOL   H52915769   5.502   2.974   4.009 -1.3023  0.8234 -4.7573
   21MOL   H53015770   5.375   3.005   4.137  1.4864 -0.0401  1.1113
   21MOL   H53115771   5.304   3.000   3.851 -1.1451 -2.9578 -1.2730
   21MOL   H53215772   5.211   2.995   4.004 -0.6953  0.1570 -2.6939
   21MOL   H53315773   5.406   2.775   3.978 -0.1785 -0.9572 -1.2019
   21MOL   C53415774   5.218   2.730   3.943  0.1659  0.6965 -0.4045
   21MOL   O53515775   5.101   2.765   3.932 -0.1035 -0.6016  0.4349
   21MOL   C53615776   5.240   2.575   3.948 -0.3147 -0.7179  0.0033
   21MOL   C53715777   5.201   2.519   4.089  0.0860  0.1236  0.3739
   21MOL   C53815778   5.255   2.375   4.125  0.0976  0.4519 -0.2899
   21MOL   C53915779   5.277   2.346   4.276  0.4420 -0.1904  0.3563
   21MOL   C54015780   5.156   2.308   4.363 -0.6482 -0.4649  1.0378
   21MOL   O54115781   5.043   2.330   4.320 -0.0679 -0.4286 -0.4454
   21MOL   N54215782   5.183   2.267   4.485  0.2485  0.4858  0.6608
   21MOL   C54315783   5.073   2.230   4.575  0.5490 -0.7309 -0.2454
   21MOL   C54415784   5.110   2.272   4.717  0.6981  0.0807 -0.7189
   21MOL   C54515785   5.185   2.162   4.805  1.0043 -0.4523 -0.1355
   21MOL   C54615786   5.313   2.107   4.745  0.3472  0.3774 -0.4299
   21MOL   C54715787   5.397   2.018   4.834  0.1376 -0.1560 -0.9008
   21MOL   C54815788   5.534   1.975   4.766 -0.9081  0.0800 -0.3557
   21MOL   N54915789   5.604   1.880   4.849 -0.8071  0.5582 -0.1500
   21MOL   H55015790   5.173   2.530   3.875 -2.2236  1.6755  0.2103
   21MOL   H55115791   5.339   2.546   3.911 -0.3639  0.9268 -1.5029
   21MOL   H55215792   5.239   2.587   4.165 -1.7472  1.9979 -0.3167
   21MOL   H55315793   5.092   2.517   4.100  0.1188 -2.6025  0.5049
   21MOL   H55415794   5.344   2.357   4.064 -0.7602  1.8568 -2.0248
   21MOL   H55515795   5.178   2.307   4.088 -0.1167  0.5015  0.0605
   21MOL   H55615796   5.331   2.427   4.325  0.4262 -0.2631  0.4946
   21MOL   H55715797   5.342   2.259   4.280  1.4535  0.4580 -1.6886
   21MOL   H55815798   5.272   2.296   4.523  0.0100  3.3049 -0.7893
   21MOL   H55915799   4.974   2.268   4.549  0.0016 -1.7244  0.3611
   21MOL   H56015800   5.057   2.122   4.574 -1.7270 -0.4320 -1.1875
   21MOL   H56115801   5.164   2.367   4.716 -0.3319  0.6739 -1.5205
   21MOL   H56215802   5.017   2.293   4.769  0.3271 -0.3722 -1.1932
   21MOL   H56315803   5.118   2.077   4.819 -0.5754  0.9753  1.2263
   21MOL   H56415804   5.202   2.207   4.902  0.5293 -1.1920  0.2937
   21MOL   H56515805   5.275   2.048   4.662 -1.0739  0.4068  0.1927
   21MOL   H56615806   5.382   2.176   4.697 -1.0631  0.9494 -1.6770
   21MOL   H56715807   5.422   2.078   4.921  1.4972 -0.0192 -1.3859
   21MOL   H56815808   5.340   1.931   4.866  1.3244 -1.0103 -1.0719
   21MOL   H56915809   5.597   2.063   4.754  1.2894 -1.5269 -0.8908
   21MOL   H57015810   5.518   1.922   4.672  1.0811  0.1288 -0.7379
   21MOL   H57115811   5.615   1.785   4.817 -0.5716  0.9217 -1.1477
   21MOL   C57215812   5.678   1.916   4.956  0.3021  0.5476 -0.4584
   21MOL   O57315813   5.675   2.034   4.992  0.1034 -0.3588  0.6477
   21MOL   C57415814   5.764   1.806   5.030 -1.0185  0.0720 -0.2437
   21MOL   C57515815   5.889   1.866   5.107 -0.2816 -0.4782  1.2204
   21MOL   C57615816   5.860   1.935   5.230  1.1393 -0.3576 -0.3437
   21MOL   C57715817   5.989   1.980   5.306  0.6313  0.3684 -0.4719
   21MOL   C57815818   5.957   2.055   5.440 -0.8400  0.5622  0.3441
   21MOL   O57915819   5.847   2.080   5.474  0.3092  0.2641  0.1032
   21MOL   N58015820   6.065   2.113   5.495  0.1888  0.1630 -0.1340
   21MOL   C58115821   6.071   2.191   5.622 -0.1162  0.2901 -0.3986
   21MOL   C58215822   6.208   2.246   5.642  0.2494  0.0553  0.0334
   21MOL   C58315823   6.228   2.325   5.772  0.2117  0.0588 -0.4439
   21MOL   C58415824   6.148   2.455   5.789 -0.3314  0.4583  0.5377
   21MOL   C58515825   6.142   2.510   5.935 -0.4725 -0.5891  1.2114
   21MOL   C58615826   6.092   2.659   5.940 -0.4156  0.3146  0.4404
   21MOL   N58715827   5.962   2.689   5.877 -0.0504  0.0627  0.1394
   21MOL   H58815828   5.713   1.735   5.095 -0.8103  0.0526 -0.1027
   21MOL   H58915829   5.810   1.745   4.952  2.0888 -0.2884  1.7788
   21MOL   H59015830   5.965   1.791   5.130 -1.1507 -2.2537 -1.3920
   21MOL   H59115831   5.938   1.929   5.033  1.4921  0.7408  3.3869
   21MOL   H59215832   5.801   1.879   5.303  1.7502  0.4070  0.7413
   21MOL   H59315833   5.801   2.026   5.217  0.3079 -0.8243  0.1195
   21MOL   H59415834   6.035   2.053   5.241 -2.1140 -0.7010 -3.7740
   21MOL   H59515835   6.055   1.895   5.325  0.5508  0.0131 -1.7300
   21MOL   H59615836   6.148   2.107   5.439 -0.1565 -0.3502 -0.5908
   21MOL   H59715837   6.007   2.278   5.609  0.4997  0.9120  0.6516
   21MOL   H59815838   6.037   2.135   5.709  0.7025  0.9375  0.3531
   21MOL   H59915839   6.275   2.160   5.651  1.1656  0.8005  0.3428
   21MOL   H60015840   6.243   2.296   5.552  0.2936 -2.0804 -1.1878
   21MOL   H60115841   6.335   2.338   5.788  0.3109 -0.2011 -0.8824
   21MOL   H60215842   6.200   2.260   5.856  2.3752  0.7188  0.8425
   21MOL   H60315843   6.185   2.523   5.713  0.1145 -1.6812 -1.2079
   21MOL   H60415844   6.044   2.440   5.758  0.7062 -0.6689 -2.5291
   21MOL   H60515845   6.067   2.447   5.984 -0.9234 -2.2222 -1.4641
   21MOL   H60615846   6.242   2.501   5.978  0.2901  3.2038  0.3783
   21MOL   H60715847   6.166   2.726   5.896 -0.0199  0.0751  0.7400
   21MOL   H60815848   6.094   2.690   6.045 -0.8031 -3.1766  1.5496
   21MOL   H60915849   5.956   2.716   5.780 -0.4077  1.0833  0.4411
   21MOL   C61015850   5.838   2.677   5.926 -0.7658  0.1577  0.1622
   21MOL   O61115851   5.821   2.661   6.047 -0.5930 -0.0062  0.2036
   21MOL   C61215852   5.723   2.684   5.827  0.4463  0.2170 -0.5318
   21MOL   C61315853   5.590   2.677   5.899  0.1302 -0.0836  0.3809
   21MOL   C61415854   5.476   2.726   5.818 -0.0019 -0.4886  0.4457
   21MOL   C61515855   5.441   2.631   5.696 -0.6158 -0.3827  0.2703
   21MOL   C61615856   5.353   2.698   5.587  0.3792  0.5298 -0.6649
   21MOL   O61715857   5.292   2.793   5.614  0.2361  0.6446  0.0688
   21MOL   N61815858   5.351   2.653   5.460  0.0090  0.2373 -0.5940
   21MOL   C61915859   5.291   2.721   5.351 -0.0381 -0.2842 -0.2138
   21MOL   C62015860   5.255   2.633   5.231  0.1885  0.1377 -0.6294
   21MOL   C62115861   5.365   2.544   5.187 -0.7189  0.0895 -0.0895
   21MOL   C62215862   5.373   2.503   5.040  0.0661  0.1599  0.1953
   21MOL   C62315863   5.483   2.393   5.003 -0.0543 -0.1201  0.0191
   21MOL   C62415864   5.626   2.447   5.023 -0.6329 -0.1627 -0.2866
   21MOL   N62515865   5.716   2.332   5.007 -0.3047 -0.3477 -0.0179
   21MOL   H62615866   5.729   2.779   5.775  1.4495  1.6746  2.1564
   21MOL   H62715867   5.739   2.602   5.757  0.9919 -0.1065 -0.0352
   21MOL   H62815868   5.574   2.575   5.933 -1.1519 -0.0077  0.0320
   21MOL   H62915869   5.590   2.734   5.993 -3.4976 -0.5361  0.7300
   21MOL   H63015870   5.491   2.828   5.783  1.2047 -0.5702  0.7129
   21MOL   H63115871   5.387   2.725   5.881 -0.7527  0.1675 -0.5979
   21MOL   H63215872   5.399   2.538   5.735 -0.7202 -0.5004 -0.1191
   21MOL   H63315873   5.536   2.622   5.643 -2.0449 -0.9228 -2.2910
   21MOL   H63415874   5.392   2.561   5.447  0.3048 -0.1880  2.8009
   21MOL   H63515875   5.201   2.774   5.384  1.5437  2.5189 -0.2066
   21MOL   H63615876   5.353   2.805   5.318  0.0586 -0.0496  0.5662
   21MOL   H63715877   5.163   2.579   5.255  0.7404 -1.4823 -2.0939
   21MOL   H63815878   5.221   2.696   5.149 -0.8844  1.9519  1.1455
   21MOL   H63915879   5.362   2.451   5.244  0.3996 -2.2971 -3.7144
   21MOL   H64015880   5.465   2.585   5.203 -0.7261  0.4668 -0.9704
   21MOL   H64115881   5.274   2.459   5.025  1.7195 -4.0545  0.9067
   21MOL   H64215882   5.388   2.592   4.978 -0.5706 -1.2380 -2.0176
   21MOL   H64315883   5.465   2.312   5.075 -0.8398  0.6846  0.7406
   21MOL   H64415884   5.469   2.361   4.900 -0.7045  1.6029 -0.4346
   21MOL   H64515885   5.635   2.477   5.128  2.1741 -0.0417 -0.5186
   21MOL   H64615886   5.655   2.530   4.959 -0.6752  1.4034  1.6420
   21MOL   H64715887   5.682   2.238   4.998  2.8016 -1.5898  0.6235
   21MOL   C64815888   5.847   2.343   5.023  0.0152  0.1761 -0.4172
   21MOL   O64915889   5.905   2.445   5.065  0.2262 -0.0637  0.1109
   21MOL   C65015890   5.931   2.216   4.984  0.0221 -0.5064  0.3373
   21MOL   C65115891   6.084   2.244   4.970 -0.6985  0.2950  0.3440
   21MOL   C65215892   6.124   2.343   4.854 -0.4795 -0.1027 -0.5114
   21MOL   C65315893   6.277   2.367   4.843 -1.2720 -0.3272 -0.0379
   21MOL   C65415894   6.307   2.464   4.734  0.0935 -0.4729  0.0280
   21MOL   O65515895   6.234   2.479   4.637 -0.2333 -0.0931  0.3773
   21MOL   N65615896   6.411   2.538   4.757 -0.2339 -1.1278 -0.7151
   21MOL   C65715897   6.441   2.648   4.676  0.5227  0.5189  0.3587
   21MOL   C65815898   6.591   2.661   4.642 -0.4255  0.6542 -0.2004
   21MOL   C65915899   6.609   2.775   4.544 -0.6679  0.3083 -0.3953
   21MOL   C66015900   6.754   2.790   4.505  0.6637 -0.2967  0.2399
   21MOL   C66115901   6.770   2.885   4.381  0.6008 -0.1693 -0.8216
   21MOL   C66215902   6.916   2.907   4.330 -0.3248 -0.1570 -0.1947
   21MOL   N66315903   7.006   2.973   4.428 -0.0258 -0.3537  0.2739
   21MOL   H66415904   5.914   2.148   5.068  3.8204 -0.6773  1.0422
   21MOL   H66515905   5.896   2.182   4.887 -1.2592 -0.3055  0.7210
   21MOL   H66615906   6.115   2.270   5.071  1.7889 -1.3372  0.0418
   21MOL   H66715907   6.125   2.155   4.922  0.7286  1.0543  0.1497
   21MOL   H66815908   6.071   2.438   4.864  1.1027  0.7281  0.0943
   21MOL   H66915909   6.087   2.306   4.758 -2.8922  1.1266 -0.1060
   21MOL   H67015910   6.342   2.280   4.850  0.3013  0.7585 -0.9601
   21MOL   H67115911   6.296   2.423   4.935  1.7883  1.7273 -1.8504
   21MOL   H67215912   6.453   2.535   4.849 -0.1867  0.2099 -0.6935
   21MOL   H67315913   6.383   2.651   4.583  1.7948  0.6362 -0.4395
   21MOL   H67415914   6.408   2.732   4.737  2.1901  0.4191  1.4269
   21MOL   H67515915   6.640   2.683   4.736 -1.3235 -0.9595  0.6620
   21MOL   H67615916   6.631   2.570   4.596  0.4992  1.5238 -1.1290
   21MOL   H67715917   6.567   2.867   4.583  0.2652  1.1255 -1.3035
   21MOL   H67815918   6.554   2.742   4.456  0.8634 -2.5266 -0.3470
   21MOL   H67915919   6.804   2.826   4.595  0.6900 -0.5649  0.3347
   21MOL   H68015920   6.800   2.693   4.484  1.4377  0.1155 -0.0137
   21MOL   H68115921   6.709   2.848   4.299 -0.2410  1.0609 -0.7606
   21MOL   H68215922   6.725   2.979   4.414  1.2769 -0.0762 -0.1546
   21MOL   H68315923   6.914   2.969   4.241  1.0107  0.8885  0.4657
   21MOL   H68415924   6.952   2.811   4.295 -0.0350 -1.9383  4.6043
   21MOL   H68515925   7.053   2.907   4.488  0.0073  1.3576  2.1738
   21MOL   C68615926   6.986   3.095   4.476 -0.0633 -0.0275  0.4491
   21MOL   O68715927   6.910   3.183   4.432  0.0120  0.0471  0.0070
   21MOL   C68815928   7.068   3.122   4.601  0.3245 -0.0490  0.4556
   21MOL   C68915929   7.148   3.245   4.594 -0.0108  0.5762  0.6665
   21MOL   C69015930   7.290   3.221   4.652 -0.2225  0.3437 -0.1860
   21MOL   C69115931   7.375   3.351   4.654  0.0571 -0.4265  0.0662
   21MOL   C69215932   7.479   3.347   4.544  0.3231  0.8225 -0.2254
   21MOL   O69315933   7.536   3.239   4.518 -0.2722 -0.6053 -0.8145
   21MOL   N69415934   7.503   3.457   4.470  0.2496 -0.1942  0.0016
   21MOL   C69515935   7.596   3.471   4.363  0.7365  0.5757 -0.4985
   21MOL   C69615936   7.551   3.595   4.291 -0.2479 -0.1294  0.6274
   21MOL   C69715937   7.614   3.617   4.150  0.0248 -0.0213  0.6932
   21MOL   C69815938   7.631   3.770   4.114  0.0476 -0.1364  0.2184
   21MOL   C69915939   7.691   3.788   3.981  0.0977 -0.3588 -0.8975
   21MOL   C70015940   0.036   3.935   3.967 -0.2558 -0.0667 -0.4761
   21MOL   N70115941   0.137   3.960   3.871 -0.1020 -0.1114 -0.1338
   21MOL   H70215942   7.014   3.123   4.696  2.5127  0.5629  1.7363
   21MOL   H70315943   7.134   3.038   4.623  1.4202  0.5326 -0.5792
   21MOL   H70415944   7.144   3.271   4.489 -0.8941  0.5527  0.6925
   21MOL   H70515945   7.089   3.324   4.641 -1.6494  0.4567 -1.1527
   21MOL   H70615946   7.334   3.140   4.594  2.4173  0.3695  1.6802
   21MOL   H70715947   7.283   3.181   4.753 -2.4900 -1.4868 -1.0417
   21MOL   H70815948   7.429   3.361   4.749 -0.2682  2.1416  0.0305
   21MOL   H70915949   7.310   3.438   4.644 -0.6236 -0.8961  0.4227
   21MOL   H71015950   7.456   3.542   4.497  1.0314 -0.5365  2.6398
   21MOL   H71115951   7.699   3.473   4.398  1.1089 -1.5020 -1.3721
   21MOL   H71215952   7.582   3.383   4.299 -0.7320  0.5682 -0.1888
   21MOL   H71315953   7.443   3.609   4.287 -0.2169 -0.1096 -0.2384
   21MOL   H71415954   7.578   3.680   4.354 -1.5707  1.4449 -0.9028
   21MOL   H71515955   7.556   3.567   4.073  1.6947 -2.7194  1.1252
   21MOL   H71615956   0.003   3.567   4.148  0.5857  1.1074 -0.3014
   21MOL   H71715957   7.534   3.819   4.105  1.0362  1.9809  0.8021
   21MOL   H71815958   7.686   3.815   4.197 -0.3806 -1.5067  1.2872
   21MOL   H71915959   0.068   3.720   3.972  0.8352  0.1923  1.5899
   21MOL   H72015960   7.617   3.778   3.901  0.0151  0.5963 -0.9507
   21MOL   H72115961   0.070   3.971   4.064 -0.7729  2.9122 -1.3393
   21MOL   H72215962   7.662   3.999   3.935 -0.1679 -0.3504 -1.2941
   21MOL   H72315963   0.185   3.877   3.839  1.0184  1.0321 -1.5434
   21MOL   C72415964   0.203   4.077   3.859 -0.3634 -0.2881  0.1883
   21MOL   O72515965   0.164   4.177   3.919 -0.1259  0.3542  0.1012
   21MOL   C72615966   0.324   4.084   3.764  0.0110  0.1224  0.9116
   21MOL   C72715967   0.396   4.225   3.760  0.6193 -0.3120 -0.1585
   21MOL   C72815968   0.502   4.228   3.651 -0.9119 -0.2022 -0.0477
   21MOL   C72915969   0.598   4.347   3.666  0.3243 -0.7586  0.3704
   21MOL   C73015970   0.541   4.486   3.653  0.1032 -0.6254 -0.8439
   21MOL   O73115971   0.503   4.521   3.541 -0.7890  0.6149 -0.0410
   21MOL   N73215972   0.554   4.573   3.756  0.0608 -0.3123 -0.0460
   21MOL   C73315973   0.519   4.717   3.750 -0.0260 -0.0397 -0.3206
   21MOL   C73415974   0.431   4.743   3.879  0.6592 -0.1209 -0.8528
   21MOL   C73515975   0.304   4.659   3.869  0.2509  0.5170 -0.0221
   21MOL   C73615976   0.212   4.683   3.995 -0.2248  0.4307  0.3638
   21MOL   C73715977   0.082   4.602   3.987 -0.2256  0.3602 -0.3273
   21MOL   C73815978   0.001   4.623   4.112  0.1317 -0.1063  0.5137
   21MOL   N73915979   7.580   4.569   4.086  0.0996 -0.4036 -0.0808
   21MOL   H74015980   0.393   4.003   3.790 -0.9487 -1.5796 -1.6968
   21MOL   H74115981   0.288   4.080   3.661 -0.6276 -0.5630  1.1541
   21MOL   H74215982   0.329   4.310   3.745 -0.3624 -0.8887  0.9108
   21MOL   H74315983   0.421   4.254   3.862 -0.7170  1.7116 -0.3896
   21MOL   H74415984   0.466   4.220   3.548 -1.6161  1.3131  0.0563
   21MOL   H74515985   0.562   4.140   3.673 -0.2242  0.4714  0.8574
   21MOL   H74615986   0.658   4.329   3.577  2.0049  0.3206  1.2711
   21MOL   H74715987   0.655   4.342   3.759 -1.5432 -1.1540  1.5197
   21MOL   H74815988   0.605   4.554   3.841 -0.8225  1.1658  0.8462
   21MOL   H74915989   0.609   4.779   3.747  0.4017 -0.5965  0.8466
   21MOL   H75015990   0.467   4.740   3.657 -0.0848 -1.4580 -0.6534
   21MOL   H75115991   0.497   4.721   3.963 -1.6062  0.2750  1.0872
   21MOL   H75215992   0.415   4.850   3.879  1.6066  0.0388  0.6965
   21MOL   H75315993   0.323   4.552   3.860 -0.1885  0.2999  1.5888
   21MOL   H75415994   0.254   4.692   3.777 -0.3113 -2.7275 -0.9438
   21MOL   H75515995   0.269   4.654   4.083 -0.8921 -1.3765  0.2291
   21MOL   H75615996   0.200   4.789   4.013 -0.0289  0.1466  2.1918
   21MOL   H75715997   0.022   4.630   3.900 -1.5475  1.1075  0.8232
   21MOL   H75815998   0.103   4.496   3.972  0.8363  0.5209 -0.0538
   21MOL   H75915999   7.701   4.727   4.143  0.2922  0.6150 -1.7831
   21MOL   H76016000   0.046   4.570   4.196  0.3913 -1.3341 -0.3923
   21MOL   H76116001   7.521   4.550   4.165  0.4302 -0.7209  0.0899
   21MOL   H76216002   7.590   4.478   4.043 -0.0384 -0.6427  0.3990
   22MOL     C116003   7.431   7.494   2.103  0.2568  0.0173 -0.7780
   22MOL     O216004   7.376   7.385   2.087  0.1626 -0.2052 -0.2387
   22MOL     C316005   7.580   7.506   2.111  0.1218  0.2879  0.3424
   22MOL     C416006   7.631   7.453   2.242  0.0176  0.1540  0.0067
   22MOL     C516007   0.063   7.514   2.276 -0.4677  0.6335  0.0045
   22MOL     C616008   0.078   7.672   2.280 -0.0761 -0.2389 -0.4054
   22MOL     C716009   0.007   0.023   2.404 -0.3347  0.0991  0.1516
   22MOL     O816010   7.593   7.699   2.423  0.4986  0.1019  0.1271
   22MOL     N916011   0.075   0.115   2.466 -0.0636 -1.0084  0.0892
   22MOL    C1016012   0.032   0.186   2.587  0.1477  0.4165 -0.5683
   22MOL    C1116013   0.135   0.157   2.692 -0.3562  0.0318  0.3266
   22MOL    C1216014   0.092   0.225   2.823 -0.2945  0.7556 -0.0060
   22MOL    C1316015   7.676   0.170   2.896 -0.4639 -0.4041  0.9020
   22MOL    C1416016   7.674   0.240   3.035  0.2393  0.0203  0.5421
   22MOL    C1516017   7.549   0.197   3.125  1.0441 -0.1107 -0.3079
   22MOL    N1616018   7.559   0.055   3.152  0.3801 -0.1823 -0.6640
   22MOL    H1716019   7.621   7.464   2.019 -1.0951  0.4194 -0.2715
   22MOL    H1816020   7.604   7.611   2.101  0.3346  0.1987 -0.0728
   22MOL    H1916021   7.566   7.477   2.326 -0.8196  2.4564 -1.2509
   22MOL    H2016022   7.644   7.345   2.233 -1.0674 -0.0872  1.1411
   22MOL    H2116023   0.137   7.474   2.206 -2.2872 -1.6690 -0.6731
   22MOL    H2216024   0.098   7.480   2.373 -1.4097 -0.4879 -0.0278
   22MOL    H2316025   0.044   0.027   2.198 -1.1121  1.9371  1.6157
   22MOL    H2416026   0.182   7.704   2.289 -0.3997  0.9106 -0.5740
   22MOL    H2516027   0.160   0.156   2.430 -0.1023  0.5932  1.7311
   22MOL    H2616028   0.026   0.293   2.566 -3.3572  1.0211  2.8167
   22MOL    H2716029   7.635   0.162   2.607 -0.7295  2.1698 -2.9437
   22MOL    H2816030   0.148   0.049   2.699 -0.3787 -0.1136 -1.6661
   22MOL    H2916031   0.236   0.193   2.673  0.5231 -2.5966 -0.1729
   22MOL    H3016032   0.078   0.333   2.818 -0.2608  0.6940 -1.7126
   22MOL    H3116033   0.172   0.208   2.896 -0.5663  3.0200  0.8534
   22MOL    H3216034   7.588   0.178   2.831 -0.3064  0.7318  0.8239
   22MOL    H3316035   7.685   0.064   2.920  1.2447 -0.3034  0.7906
   22MOL    H3416036   0.061   0.228   3.088 -0.0761  0.3800  1.2016
   22MOL    H3516037   7.661   0.348   3.027  0.1287 -0.1323 -1.6587
   22MOL    H3616038   7.456   0.214   3.071  0.1154  1.6714  1.7683
   22MOL    H3716039   7.537   0.258   3.214 -0.9367  1.6680 -1.7158
   22MOL    H3816040   7.566   0.001   3.067 -1.4004 -0.7300 -0.4847
   22MOL    H3916041   7.387   7.593   2.115 -0.6852 -0.6803  1.8116
   22MOL    C4016042   7.546   0.005   3.272  0.2849 -0.3721 -0.1635
   22MOL    O4116043   7.544   0.075   3.374 -0.0484 -0.1335  0.0227
   22MOL    C4216044   7.532   7.558   3.285 -0.5343 -0.0051  0.1325
   22MOL    C4316045   7.649   7.481   3.330  0.3683 -1.1885  0.0824
   22MOL    C4416046   0.046   7.438   3.228 -0.0880 -0.1745  0.1489
   22MOL    C4516047   0.174   7.379   3.291  0.0843  0.3596  0.6352
   22MOL    C4616048   0.169   7.232   3.326  0.7561 -0.5997 -0.5978
   22MOL    O4716049   0.062   7.187   3.377  0.4459  0.4714  0.3926
   22MOL    N4816050   0.267   7.153   3.292 -0.1796  0.4103  0.3788
   22MOL    C4916051   0.275   7.008   3.288 -0.2266  0.1958  0.5128
   22MOL    C5016052   0.237   6.955   3.156  0.8310 -0.4498  0.2851
   22MOL    C5116053   0.236   6.799   3.152  0.0789 -0.0165 -0.6150
   22MOL    C5216054   0.224   6.737   3.007  0.3047  0.2105 -0.4122
   22MOL    C5316055   0.114   6.798   2.919  0.0264  1.0290  0.5472
   22MOL    C5416056   0.136   6.765   2.771 -0.1721  0.4872 -0.4970
   22MOL    N5516057   0.018   6.779   2.691  0.2275 -0.6474  0.3119
   22MOL    H5616058   7.449   7.533   3.351  1.9617 -1.1986  2.9403
   22MOL    H5716059   7.500   7.516   3.189 -1.5649  3.3704 -1.0626
   22MOL    H5816060   7.705   7.535   3.407  0.5238 -1.4409  0.1453
   22MOL    H5916061   7.619   7.396   3.391 -2.5791 -0.0599  0.2974
   22MOL    H6016062   0.070   7.527   3.168 -3.1067 -0.4729 -1.6601
   22MOL    H6116063   0.009   7.362   3.159  1.1201  0.0479 -0.7585
   22MOL    H6216064   0.194   7.432   3.384 -0.8799 -0.5400  1.3656
   22MOL    H6316065   0.247   7.400   3.213  1.4094  2.5290  2.3838
   22MOL    H6416066   0.343   7.189   3.235 -1.0475 -0.5028 -1.3837
   22MOL    H6516067   0.372   6.974   3.323  0.1615 -0.1740 -0.8841
   22MOL    H6616068   0.199   6.976   3.359 -0.1655 -0.3035  0.3511
   22MOL    H6716069   0.143   7.000   3.125  0.8506 -0.1529  0.6480
   22MOL    H6816070   0.305   6.985   3.077  1.5863  0.3749  1.2334
   22MOL    H6916071   0.145   6.761   3.199  1.4049 -2.6666 -0.0646
   22MOL    H7016072   0.321   6.750   3.200 -1.5929 -4.2902 -1.7445
   22MOL    H7116073   0.318   6.753   2.954  1.7237 -3.1472  0.9628
   22MOL    H7216074   0.222   6.629   3.019  0.9087  0.2645  0.2062
   22MOL    H7316075   0.021   6.760   2.961  0.3999  0.8669  1.2405
   22MOL    H7416076   0.111   6.906   2.936 -2.2635  1.0411  0.1923
   22MOL    H7516077   0.177   6.665   2.759 -1.5297 -0.1767  0.2613
   22MOL    H7616078   0.210   6.831   2.725  0.7207 -1.0280 -1.2912
   22MOL    H7716079   7.689   6.872   2.684  0.4028 -0.4506  1.7152
   22MOL    C7816080   7.634   6.680   2.675 -0.1933 -0.0120 -0.0382
   22MOL    O7916081   7.646   6.573   2.722  0.3995 -0.0704 -0.2622
   22MOL    C8016082   7.503   6.720   2.605 -0.1801 -0.7786  0.0188
   22MOL    C8116083   7.453   6.629   2.496 -0.3245 -0.0778  0.3641
   22MOL    C8216084   7.303   6.643   2.457 -0.2570  0.2141 -0.3140
   22MOL    C8316085   7.207   6.595   2.566 -0.9222  0.2131 -0.3471
   22MOL    C8416086   7.075   6.555   2.513  0.3000 -0.5692 -0.4751
   22MOL    O8516087   7.028   6.600   2.412 -0.7779  0.4510 -0.3088
   22MOL    N8616088   7.014   6.464   2.582  0.0257  0.1831  0.6634
   22MOL    C8716089   6.887   6.409   2.549  0.6013  0.6575  0.2535
   22MOL    C8816090   6.834   6.312   2.656  0.1407  0.6405 -1.3465
   22MOL    C8916091   6.914   6.180   2.672  0.5863 -0.4385  0.2418
   22MOL    C9016092   6.860   6.089   2.780 -0.3454 -0.2199  0.1146
   22MOL    C9116093   6.960   5.980   2.821 -0.7414 -0.2615 -0.2126
   22MOL    C9216094   6.907   5.909   2.947  0.2774  0.1129 -0.4549
   22MOL    N9316095   6.996   5.812   3.006 -0.2747  0.1624  0.2670
   22MOL    H9416096   7.437   6.732   2.692 -1.5508  2.8307 -1.4209
   22MOL    H9516097   7.518   6.819   2.561  0.5453 -0.4597  0.9537
   22MOL    H9616098   7.515   6.647   2.408 -2.9083  0.8002 -1.3531
   22MOL    H9716099   7.468   6.523   2.518  2.0578  0.1022 -0.3281
   22MOL    H9816100   7.288   6.579   2.371 -1.0656  2.6993 -2.0979
   22MOL    H9916101   7.278   6.746   2.429 -1.1725 -0.3517 -1.6141
   22MOL   H10016102   7.189   6.684   2.627 -0.2545 -0.9362  1.5732
   22MOL   H10116103   7.250   6.526   2.639  0.3534  0.2874 -0.9971
   22MOL   H10216104   7.059   6.422   2.662  1.1835 -1.2651 -0.7323
   22MOL   H10316105   6.816   6.489   2.526  0.8222  0.5562 -0.7867
   22MOL   H10416106   6.903   6.343   2.464  2.3107 -0.4523  1.4098
   22MOL   H10516107   6.816   6.354   2.754  0.3656 -0.3707 -0.8615
   22MOL   H10616108   6.734   6.279   2.626 -0.0106 -0.1869  0.0372
   22MOL   H10716109   7.019   6.200   2.694  0.3418  0.0926  0.9210
   22MOL   H10816110   6.915   6.115   2.585 -1.1981  0.1909 -0.2565
   22MOL   H10916111   6.839   6.152   2.867 -0.4015  3.5782 -2.4909
   22MOL   H11016112   6.763   6.048   2.753 -0.1018 -2.0406  1.9000
   22MOL   H11116113   6.974   5.907   2.741 -0.9577 -1.6569  0.9957
   22MOL   H11216114   7.061   6.017   2.836  0.5387 -3.6983  0.0127
   22MOL   H11316115   6.821   5.861   2.900  0.1649 -0.2393  0.0967
   22MOL   H11416116   6.872   5.972   3.030  0.4187 -0.1640 -0.1823
   22MOL   H11516117   7.050   5.860   3.077 -1.4616  2.0674 -0.0985
   22MOL   C11616118   7.005   5.677   2.972 -0.3171  0.2603 -0.3999
   22MOL   O11716119   6.928   5.626   2.895  0.0516  0.1741 -0.0442
   22MOL   C11816120   7.126   5.604   3.031 -0.2813 -0.0995  0.1592
   22MOL   C11916121   7.077   5.472   3.092 -0.3950 -0.2981  0.6751
   22MOL   C12016122   7.184   5.398   3.171 -0.4008 -0.2677 -0.0088
   22MOL   C12116123   7.134   5.264   3.235  0.0103 -0.4149 -0.1857
   22MOL   C12216124   7.240   5.193   3.315 -0.0983 -0.7621  0.0361
   22MOL   O12316125   7.316   5.120   3.258  0.3212  0.2795 -0.1197
   22MOL   N12416126   7.245   5.207   3.448  0.3859 -0.4053 -0.3767
   22MOL   C12516127   7.334   5.146   3.544  0.0331 -0.0108 -0.1488
   22MOL   C12616128   7.477   5.198   3.543  0.4131 -0.4255 -0.0822
   22MOL   C12716129   7.495   5.355   3.555  0.4298 -0.5191 -0.1266
   22MOL   C12816130   7.640   5.404   3.567  0.3390  0.6334 -0.0227
   22MOL   C12916131   7.637   5.546   3.628  0.1908 -0.2462  0.0059
   22MOL   C13016132   7.594   5.660   3.528 -0.8300 -0.5234  0.0631
   22MOL   N13116133   7.587   5.789   3.598  0.4557  0.6248  0.0068
   22MOL   H13216134   7.209   5.575   2.966 -0.3246  1.6165 -0.6893
   22MOL   H13316135   7.173   5.666   3.108 -1.4996  0.0658  0.7684
   22MOL   H13416136   6.985   5.484   3.149 -0.1867  1.2900  0.6779
   22MOL   H13516137   7.042   5.415   3.005 -0.6516  3.0160 -1.4734
   22MOL   H13616138   7.223   5.459   3.252 -1.3084  0.0154  0.2197
   22MOL   H13716139   7.265   5.373   3.103  0.8179 -0.4173  1.4582
   22MOL   H13816140   7.107   5.185   3.164 -2.4196 -0.9204  1.2254
   22MOL   H13916141   7.040   5.276   3.289  0.0424  1.3019 -0.4828
   22MOL   H14016142   7.175   5.270   3.483 -0.8583  0.9192 -4.9107
   22MOL   H14116143   7.295   5.176   3.641 -0.1315 -1.5164  0.2673
   22MOL   H14216144   7.328   5.037   3.535 -2.1906 -0.0070  1.1477
   22MOL   H14316145   7.532   5.141   3.618  1.5763  0.5413 -0.1804
   22MOL   H14416146   7.525   5.160   3.453  1.5840 -2.8514  1.5201
   22MOL   H14516147   7.444   5.383   3.647  0.1509  0.4165 -0.5598
   22MOL   H14616148   7.453   5.404   3.467  0.3965 -0.5459 -0.1254
   22MOL   H14716149   7.694   5.349   3.645  0.0810  0.9097  0.3540
   22MOL   H14816150   7.697   5.395   3.475  1.5933 -1.2122  0.8957
   22MOL   H14916151   7.565   5.544   3.710 -1.1464  1.3705 -1.0864
   22MOL   H15016152   0.020   5.573   3.682  0.7364  0.1047 -1.0643
   22MOL   H15116153   7.500   5.633   3.481 -0.8160 -0.8032  0.1920
   22MOL   H15216154   7.675   5.666   3.455  1.5319 -2.1324  2.4253
   22MOL   H15316155   7.666   5.850   3.585  1.4839 -0.8425 -0.7872
   22MOL   C15416156   7.502   5.828   3.691  0.1403 -0.6117  0.1006
   22MOL   O15516157   7.419   5.758   3.738 -0.4710  0.3589  0.1255
   22MOL   C15616158   7.525   5.969   3.742 -0.6983 -0.1222 -0.3364
   22MOL   C15716159   7.465   5.995   3.879  0.1738  0.3425 -1.0627
   22MOL   C15816160   7.453   6.138   3.923  0.3468 -0.1513 -0.2009
   22MOL   C15916161   7.363   6.152   4.047 -0.2043 -0.0833  0.2608
   22MOL   C16016162   7.426   6.094   4.167 -0.5044  0.3509 -0.3438
   22MOL   O16116163   7.545   6.097   4.189 -0.5247 -0.3388  0.1374
   22MOL   N16216164   7.343   6.032   4.252  0.0809  0.6499 -0.6295
   22MOL   C16316165   7.384   5.961   4.375  0.7790  0.5605 -0.1791
   22MOL   C16416166   7.277   5.852   4.406 -0.1254 -0.4143 -0.3045
   22MOL   C16516167   7.310   5.757   4.530  0.2956  0.1840 -0.1951
   22MOL   C16616168   7.190   5.688   4.579 -0.3556 -0.2622 -0.8517
   22MOL   C16716169   7.129   5.581   4.478 -0.0619 -0.4433  0.0330
   22MOL   C16816170   7.005   5.508   4.526  0.5655 -0.2868 -0.3918
   22MOL   N16916171   7.021   5.434   4.653 -0.0089  0.4666 -0.8355
   22MOL   H17016172   7.632   5.991   3.745 -0.1849 -2.6010  1.7404
   22MOL   H17116173   7.493   6.042   3.669 -1.3796  0.1787  0.2497
   22MOL   H17216174   7.363   5.962   3.893  1.0614 -1.4171  1.6137
   22MOL   H17316175   7.517   5.936   3.954  0.0002  2.5034  0.8261
   22MOL   H17416176   7.415   6.201   3.842 -4.5529 -3.2747 -0.5815
   22MOL   H17516177   7.555   6.171   3.940  0.8823 -1.3535 -0.9813
   22MOL   H17616178   7.258   6.127   4.031 -0.1393 -0.3313  0.2143
   22MOL   H17716179   7.363   6.259   4.067  2.2906 -0.3801  2.0577
   22MOL   H17816180   7.246   6.023   4.228  0.2761  0.2596 -1.2957
   22MOL   H17916181   7.485   5.925   4.353 -0.3217 -1.8808 -1.4864
   22MOL   H18016182   7.390   6.021   4.466 -2.6296 -1.0847  1.2163
   22MOL   H18116183   7.190   5.909   4.442  0.0491 -1.8696  2.5710
   22MOL   H18216184   7.242   5.807   4.313  0.5798  0.5737 -1.0628
   22MOL   H18316185   7.351   5.806   4.618 -1.6833 -0.1240  0.9190
   22MOL   H18416186   7.386   5.688   4.495  0.4721  0.2829 -0.0047
   22MOL   H18516187   7.211   5.640   4.675 -2.4193 -3.0015 -1.6879
   22MOL   H18616188   7.119   5.769   4.596  1.5877  1.1013  0.9876
   22MOL   H18716189   7.103   5.646   4.395 -0.3180 -0.7385 -0.1178
   22MOL   H18816190   7.214   5.518   4.453  0.2238 -0.7465  1.6685
   22MOL   H18916191   6.973   5.432   4.454 -0.9717  1.3024 -1.4219
   22MOL   H19016192   6.929   5.586   4.530  0.5696 -0.3681  1.4591
   22MOL   H19116193   6.982   5.477   4.735 -1.1672 -1.2518 -0.4556
   22MOL   C19216194   7.086   5.317   4.672  0.2601 -0.2361 -0.0940
   22MOL   O19316195   7.144   5.261   4.577  0.0085  0.1081  0.3378
   22MOL   C19416196   7.111   5.268   4.816  0.1282  0.7787 -0.2086
   22MOL   C19516197   6.990   5.191   4.872  0.1079 -0.4300  0.1350
   22MOL   C19616198   6.950   5.057   4.805 -0.1510  0.0468  0.1446
   22MOL   C19716199   6.822   5.057   4.715 -0.3554 -0.4358  0.5734
   22MOL   C19816200   6.791   4.912   4.676 -0.2310 -1.1380 -0.4318
   22MOL   O19916201   6.709   4.849   4.743 -0.4510 -0.8526 -0.2116
   22MOL   N20016202   6.862   4.871   4.571 -0.0311  1.0730  0.3398
   22MOL   C20116203   6.869   4.726   4.536 -0.3196 -0.0153 -0.0168
   22MOL   C20216204   7.015   4.674   4.548 -0.3684  0.6481  0.4769
   22MOL   C20316205   7.071   4.657   4.688  0.0916  0.0781 -0.1698
   22MOL   C20416206   7.015   4.530   4.756  0.2050  0.0347 -0.0349
   22MOL   C20516207   7.078   4.496   4.896 -0.2430 -0.1395  0.1160
   22MOL   C20616208   7.022   4.592   5.000  0.6617  0.5257  0.4661
   22MOL   N20716209   7.060   4.551   5.136  0.2753  0.1866 -0.2886
   22MOL   H20816210   7.199   5.204   4.818 -0.3768  0.0730 -0.4713
   22MOL   H20916211   7.125   5.356   4.879  0.2001  1.8513 -1.6735
   22MOL   H21016212   6.998   5.187   4.981  0.0669 -0.0143  0.1552
   22MOL   H21116213   6.901   5.254   4.867 -0.7123 -1.5639  0.1620
   22MOL   H21216214   6.928   4.986   4.885  0.3980 -1.1314 -0.7253
   22MOL   H21316215   7.034   5.020   4.745  1.8273  2.1493  1.5348
   22MOL   H21416216   6.840   5.123   4.631  0.8229 -1.5460 -0.0616
   22MOL   H21516217   6.744   5.101   4.779 -1.0257  1.5387 -1.5326
   22MOL   H21616218   6.918   4.933   4.514 -1.8217  2.5719  0.1771
   22MOL   H21716219   6.808   4.651   4.587  0.7589 -0.0470  1.2480
   22MOL   H21816220   6.843   4.719   4.430 -1.3145 -0.9659  0.2783
   22MOL   H21916221   7.009   4.574   4.503 -0.9983  0.4334  1.0324
   22MOL   H22016222   7.076   4.734   4.481 -0.2724 -0.5262 -0.5081
   22MOL   H22116223   7.060   4.746   4.751 -1.4309 -0.0078 -0.3042
   22MOL   H22216224   7.180   4.655   4.679  0.2259  0.8103  1.1075
   22MOL   H22316225   6.906   4.535   4.756  0.2073  0.5083  1.5921
   22MOL   H22416226   7.036   4.439   4.700  0.6740  0.5546 -0.7218
   22MOL   H22516227   7.060   4.395   4.934 -0.6652 -1.5803 -3.7351
   22MOL   H22616228   7.186   4.504   4.883 -0.1831  0.0738  0.7097
   22MOL   H22716229   6.914   4.593   4.990  0.5764 -0.0283  1.2539
   22MOL   H22816230   7.044   4.696   4.976  0.4749  0.7283  1.1374
   22MOL   H22916231   7.016   4.463   5.156 -1.6488  0.9990 -0.8535
   22MOL   C23016232   7.144   4.615   5.222  0.0358 -0.3571 -0.2549
   22MOL   O23116233   7.191   4.725   5.195  0.1745  1.0103 -0.8511
   22MOL   C23216234   7.153   4.539   5.357 -0.2674 -0.0303  0.1836
   22MOL   C23316235   7.293   4.469   5.381 -0.0488  0.0601  0.3053
   22MOL   C23416236   7.335   4.367   5.280  0.2188  0.4246 -0.5092
   22MOL   C23516237   7.455   4.292   5.325 -0.0315 -0.4240  1.1123
   22MOL   C23616238   7.434   4.198   5.443 -0.2323  1.2368  0.3853
   22MOL   O23716239   7.377   4.089   5.419  0.2466 -0.5063 -0.2361
   22MOL   N23816240   7.455   4.249   5.563  0.1241 -0.5617  0.2447
   22MOL   C23916241   7.417   4.196   5.691  0.2832 -0.0942 -0.0318
   22MOL   C24016242   7.271   4.239   5.723 -0.6046 -0.9247  0.3660
   22MOL   C24116243   7.265   4.373   5.801  0.0991 -0.0164 -0.0497
   22MOL   C24216244   7.127   4.422   5.840 -0.3800 -0.4784 -0.7713
   22MOL   C24316245   7.058   4.340   5.950  0.2809 -0.0208  0.3389
   22MOL   C24416246   6.949   4.419   6.025 -0.5518 -0.3952 -0.0017
   22MOL   N24516247   6.903   4.326   6.130 -0.3547 -0.1033  0.1568
   22MOL   H24616248   7.141   4.604   5.444 -0.5244 -1.4313  1.1956
   22MOL   H24716249   7.080   4.460   5.371 -0.2606 -0.3600 -1.5379
   22MOL   H24816250   7.372   4.542   5.394 -1.3768  1.2134  2.1965
   22MOL   H24916251   7.285   4.427   5.482  1.6965  0.3417  0.5723
   22MOL   H25016252   7.342   4.411   5.181 -0.4428 -1.5718 -1.4505
   22MOL   H25116253   7.258   4.295   5.255  1.0306 -0.0927 -1.5750
   22MOL   H25216254   7.529   4.367   5.355 -1.0263  0.6614  0.9084
   22MOL   H25316255   7.497   4.242   5.238  1.0667 -2.3261  2.7053
   22MOL   H25416256   7.480   4.347   5.561 -5.4989  1.0352 -0.5191
   22MOL   H25516257   7.419   4.087   5.692  0.1944 -0.0970 -0.2732
   22MOL   H25616258   7.492   4.239   5.757 -1.1393  1.9887  0.2776
   22MOL   H25716259   7.210   4.253   5.634  0.3431 -2.8675 -0.6079
   22MOL   H25816260   7.235   4.166   5.796  0.4530 -0.5237  1.3262
   22MOL   H25916261   7.317   4.455   5.750  1.0205  1.3462  2.9965
   22MOL   H26016262   7.318   4.352   5.893 -1.1495 -1.8134  0.2815
   22MOL   H26116263   7.144   4.524   5.875  0.0371 -0.8521  0.1361
   22MOL   H26216264   7.060   4.422   5.754 -1.2559 -0.2242 -0.0991
   22MOL   H26316265   7.009   4.252   5.909  0.1732  0.1107  0.1866
   22MOL   H26416266   7.137   4.318   6.023  0.6914 -1.6231 -0.5573
   22MOL   H26516267   6.869   4.436   5.952 -1.0598 -1.1812  0.3633
   22MOL   H26616268   6.976   4.519   6.058 -1.5220  0.1608 -0.8615
   22MOL   H26716269   6.969   4.307   6.204  0.2949  0.2527 -0.3300
   22MOL   C26816270   6.782   4.264   6.137 -0.1544  0.1327  0.4170
   22MOL   O26916271   6.700   4.282   6.051 -0.0119  0.7656 -0.1120
   22MOL   C27016272   6.756   4.164   6.256 -0.3633  1.0612 -1.2078
   22MOL   C27116273   6.694   4.024   6.223 -0.1376 -0.0190 -0.2671
   22MOL   C27216274   6.547   4.014   6.271  0.2832 -0.4248 -0.5661
   22MOL   C27316275   6.454   4.116   6.203  0.1675  0.0747 -0.3850
   22MOL   C27416276   6.415   4.073   6.062 -0.3197 -0.0919  0.2036
   22MOL   O27516277   6.321   3.995   6.041  0.3618 -0.4224  0.0097
   22MOL   N27616278   6.494   4.126   5.960  0.0313  0.1901  0.2817
   22MOL   C27716279   6.524   4.066   5.834  0.4864  0.2277  0.0459
   22MOL   C27816280   6.674   4.076   5.805 -0.3620  0.1986  0.6472
   22MOL   C27916281   6.719   4.011   5.672 -0.6349  0.2900 -0.0062
   22MOL   C28016282   6.875   3.993   5.676  0.4246  0.4453  0.4030
   22MOL   C28116283   6.934   3.936   5.544  0.2260 -0.2675  0.6480
   22MOL   C28216284   7.086   3.937   5.568  0.1992  0.1748  0.5268
   22MOL   N28316285   7.162   3.897   5.452 -0.0262 -0.1054  0.2193
   22MOL   H28416286   6.847   4.143   6.312 -1.3509 -0.7456 -0.2724
   22MOL   H28516287   6.693   4.214   6.330  0.1860  0.3484 -0.2495
   22MOL   H28616288   6.723   3.993   6.122 -1.0545  0.7357 -0.7760
   22MOL   H28716289   6.742   3.949   6.285 -0.8250 -0.1977  0.0508
   22MOL   H28816290   6.549   4.039   6.377 -0.4252 -1.6214 -0.2562
   22MOL   H28916291   6.520   3.910   6.254  1.6900 -0.6762 -1.3126
   22MOL   H29016292   6.491   4.217   6.219 -1.7850  0.6037  0.9819
   22MOL   H29116293   6.359   4.129   6.255  0.5352  2.7025 -0.3083
   22MOL   H29216294   6.560   4.200   5.979  0.2011  0.5443 -1.5387
   22MOL   H29316295   6.495   3.962   5.851  0.0684  0.3540  0.1123
   22MOL   H29416296   6.462   4.117   5.760 -0.5305  1.8411  1.9903
   22MOL   H29516297   6.708   4.179   5.803 -0.3128  0.2277  2.4630
   22MOL   H29616298   6.733   4.041   5.890  1.2437 -1.4148 -1.0699
   22MOL   H29716299   6.690   4.079   5.592  0.7857 -1.1789 -1.8254
   22MOL   H29816300   6.673   3.912   5.676  0.7635 -0.3920 -0.3014
   22MOL   H29916301   6.933   4.083   5.695 -0.3098  1.0983 -0.4036
   22MOL   H30016302   6.912   3.926   5.754 -0.4788 -0.9996 -0.3909
   22MOL   H30116303   6.896   3.837   5.516  2.2326 -1.2804  1.4003
   22MOL   H30216304   6.906   4.010   5.470  0.2549 -1.1388 -0.2436
   22MOL   H30316305   7.112   3.870   5.651  1.3951  0.3224  0.2795
   22MOL   H30416306   7.137   4.028   5.599  0.5956 -0.0387  0.4969
   22MOL   H30516307   7.230   3.967   5.427 -0.7449  0.9440  1.1493
   22MOL   C30616308   7.144   3.797   5.362 -0.3813 -0.0629 -0.2544
   22MOL   O30716309   7.070   3.700   5.391  0.5594  0.6046 -0.2761
   22MOL   C30816310   7.215   3.802   5.235 -0.3561 -1.2222 -0.1969
   22MOL   C30916311   7.146   3.858   5.107 -0.5139 -0.4889 -0.6598
   22MOL   C31016312   7.102   4.011   5.114  0.8480  0.1647  0.0323
   22MOL   C31116313   6.960   4.030   5.176  0.3151  0.3312  0.5691
   22MOL   C31216314   6.917   4.171   5.210 -0.0425 -0.0268 -0.4997
   22MOL   O31316315   6.963   4.271   5.153 -0.6837 -0.6954 -0.0943
   22MOL   N31416316   6.821   4.169   5.302  0.1656  0.2823  0.2160
   22MOL   C31516317   6.757   4.287   5.356 -0.3200  0.1743 -0.2174
   22MOL   C31616318   6.815   4.342   5.490  0.1047  0.1136  0.2631
   22MOL   C31716319   6.788   4.492   5.512  0.5180 -0.5131  0.2439
   22MOL   C31816320   6.768   4.526   5.655 -0.0160 -0.5252  0.4080
   22MOL   C31916321   6.777   4.677   5.676 -0.9758  0.8256  0.1891
   22MOL   C32016322   6.768   4.715   5.823 -0.3978 -0.5996  0.2481
   22MOL   N32116323   6.760   4.863   5.823  0.1545 -0.8088 -0.7604
   22MOL   H32216324   7.309   3.853   5.256 -0.1307 -2.2200  1.2683
   22MOL   H32316325   7.245   3.699   5.218 -0.0496 -1.0585 -0.6713
   22MOL   H32416326   7.209   3.847   5.019  1.7406  1.2200  0.6971
   22MOL   H32516327   7.056   3.797   5.103  1.1067 -3.1090  1.5069
   22MOL   H32616328   7.099   4.044   5.010  1.4352  1.7622  0.5136
   22MOL   H32716329   7.177   4.065   5.170  1.1495 -0.1155 -0.1035
   22MOL   H32816330   6.946   3.972   5.267 -1.6757  0.6381  0.4754
   22MOL   H32916331   6.881   3.987   5.115  1.6636 -0.8907 -0.3588
   22MOL   H33016332   6.788   4.076   5.326  1.2424 -0.2497 -0.3183
   22MOL   H33116333   6.763   4.369   5.284 -1.4336 -0.9010 -1.5469
   22MOL   H33216334   6.654   4.258   5.379 -0.1376  0.9033  1.6901
   22MOL   H33316335   6.776   4.278   5.569 -0.4953 -0.9827 -0.8839
   22MOL   H33416336   6.921   4.318   5.495  0.0286 -0.6367 -1.1884
   22MOL   H33516337   6.694   4.522   5.465  0.8503 -1.0875 -0.7996
   22MOL   H33616338   6.871   4.541   5.462  1.3029 -1.1552  0.9078
   22MOL   H33716339   6.672   4.500   5.701 -1.7072  2.2487 -1.3424
   22MOL   H33816340   6.845   4.482   5.718  1.1563  1.9989  0.7987
   22MOL   H33916341   6.880   4.704   5.652 -1.2775  0.4598 -1.6077
   22MOL   H34016342   6.712   4.732   5.609 -0.3624  0.4933 -0.6985
   22MOL   H34116343   6.845   4.684   5.893  0.6868  0.7652 -0.3342
   22MOL   H34216344   6.679   4.679   5.874  0.1023  0.2316  1.7206
   22MOL   H34316345   6.843   4.916   5.803 -0.0217 -0.3770 -0.3554
   22MOL   C34416346   6.659   4.946   5.833  0.3173 -0.1457  0.9853
   22MOL   O34516347   6.543   4.911   5.841 -0.3592 -0.0501  0.1588
   22MOL   C34616348   6.697   5.093   5.836  0.1373  0.1307 -0.4952
   22MOL   C34716349   6.742   5.141   5.974 -0.2325 -0.7502  0.2842
   22MOL   C34816350   6.627   5.126   6.087  0.3803 -0.1840  0.4156
   22MOL   C34916351   6.691   5.158   6.229  0.0331  0.3229 -0.1764
   22MOL   C35016352   6.719   5.049   6.335 -0.7353  0.4848 -0.1863
   22MOL   O35116353   6.702   4.925   6.310 -0.1095 -0.7277  0.0455
   22MOL   N35216354   6.775   5.095   6.445 -0.3416  0.1001 -0.4849
   22MOL   C35316355   6.810   5.015   6.561  0.3338 -0.0246  0.0485
   22MOL   C35416356   6.710   5.032   6.669 -0.0354  0.3686  0.1453
   22MOL   C35516357   6.771   4.990   6.800 -0.3297  0.2884 -0.1617
   22MOL   C35616358   6.667   4.974   6.913 -0.3774 -0.8304  0.1501
   22MOL   C35716359   6.720   4.952   7.048 -1.1012  0.5468 -0.2141
   22MOL   C35816360   6.604   4.945   7.152  0.2084  0.5698 -0.2041
   22MOL   N35916361   6.660   4.956   7.280 -0.7446  0.2339  0.3347
   22MOL   H36016362   6.784   5.104   5.770 -0.3959 -0.5451 -1.3272
   22MOL   H36116363   6.626   5.157   5.784 -0.3815 -0.6549 -0.7591
   22MOL   H36216364   6.825   5.073   5.990  0.2482  0.1572  1.6925
   22MOL   H36316365   6.783   5.241   5.964  3.3553 -2.1166  0.5234
   22MOL   H36416366   6.604   5.020   6.089  5.2259 -1.3784  0.1113
   22MOL   H36516367   6.543   5.184   6.049  0.3142  0.0700  0.9447
   22MOL   H36616368   6.624   5.227   6.279 -1.6124 -2.3352  1.4270
   22MOL   H36716369   6.774   5.227   6.214 -0.2423  0.3346 -1.7726
   22MOL   H36816370   6.775   5.195   6.454  0.8876  0.0565  0.1519
   22MOL   H36916371   6.817   4.908   6.543  1.6174 -0.6044  3.6977
   22MOL   H37016372   6.907   5.053   6.594  0.6271 -0.0885 -0.7065
   22MOL   H37116373   6.678   5.136   6.685 -2.1587 -0.3971  1.1390
   22MOL   H37216374   6.615   4.979   6.656 -0.2931  0.7257  0.5223
   22MOL   H37316375   6.853   5.052   6.838 -0.7894  1.8044 -1.5607
   22MOL   H37416376   6.805   4.888   6.786 -0.5756  0.3021 -0.8693
   22MOL   H37516377   6.600   5.060   6.917  2.3261  1.3602  0.3379
   22MOL   H37616378   6.605   4.888   6.887 -1.6736 -0.0957  0.8114
   22MOL   H37716379   6.770   4.856   7.052 -3.2993 -0.5529  1.5319
   22MOL   H37816380   6.798   5.025   7.070  0.1095 -0.8387  0.1355
   22MOL   H37916381   6.558   4.848   7.131  1.2264  0.1520 -0.5635
   22MOL   H38016382   6.529   5.024   7.158 -1.5471 -0.8979 -1.8585
   22MOL   H38116383   6.682   5.047   7.317 -0.4114 -0.5147  1.9893
   22MOL   C38216384   6.711   4.850   7.346  0.1189  0.8573  0.1286
   22MOL   O38316385   6.689   4.734   7.311 -0.6953  0.7997  0.5951
   22MOL   C38416386   6.793   4.882   7.468 -0.1455 -0.1301  0.6052
   22MOL   C38516387   6.949   4.893   7.446 -0.1800  0.5360  0.6087
   22MOL   C38616388   6.996   5.012   7.360  0.0434  0.3308  0.0121
   22MOL   C38716389   6.973   5.153   7.420 -0.3712 -0.4928  0.6401
   22MOL   C38816390   6.873   5.248   7.355 -0.3327 -0.3097  0.4724
   22MOL   O38916391   6.802   5.211   7.264  0.0338  0.4584  0.8050
   22MOL   N39016392   6.869   5.368   7.412 -0.3869  0.3255 -0.3062
   22MOL   C39116393   6.757   5.457   7.384  0.0902 -0.6595  0.1819
   22MOL   C39216394   6.776   5.592   7.450 -0.7115 -0.6300 -0.1451
   22MOL   C39316395   6.675   5.698   7.400  0.6661 -0.1383  0.4037
   22MOL   C39416396   6.692   5.834   7.479 -0.6022  0.5790  0.3900
   22MOL   C39516397   6.657   5.825   7.630 -0.8322 -0.2220  0.3869
   22MOL   C39616398   6.699   5.947   0.011 -0.2090  0.2387  0.1977
   22MOL   N39716399   6.709   6.076   7.658 -0.5954 -0.2422  0.3241
   22MOL   H39816400   6.761   4.973   7.518 -1.9323  0.2226 -1.1319
   22MOL   H39916401   6.773   4.800   7.538 -0.9621  0.5969  1.2248
   22MOL   H40016402   6.983   4.881   7.549 -1.9177 -1.6857  0.9854
   22MOL   H40116403   6.982   4.799   7.402 -0.0590 -0.3015  2.4453
   22MOL   H40216404   6.963   5.010   7.257 -1.2767  3.0949  0.3226
   22MOL   H40316405   7.103   5.001   7.347  0.1591 -0.7079  1.6600
   22MOL   H40416406   7.066   5.209   7.426  1.4557 -3.2672 -0.8908
   22MOL   H40516407   6.946   5.139   7.525 -0.9574 -2.1910  0.2871
   22MOL   H40616408   6.935   5.394   7.483  2.8210 -0.3360 -2.8920
   22MOL   H40716409   6.757   5.472   7.276 -0.6743  2.3522  0.5638
   22MOL   H40816410   6.667   5.399   7.405 -1.0875  0.7574 -0.8533
   22MOL   H40916411   6.769   5.580   7.558  1.1806 -1.8057 -0.1404
   22MOL   H41016412   6.880   5.620   7.436 -0.7821 -0.2770  0.0481
   22MOL   H41116413   6.576   5.656   7.417  1.0076 -0.8714  0.6189
   22MOL   H41216414   6.668   5.708   7.291 -1.0214  1.1736  0.6150
   22MOL   H41316415   6.797   5.862   7.476  0.0219 -1.7959 -1.6636
   22MOL   H41416416   6.641   5.908   7.418  1.0060  1.0061 -0.4778
   22MOL   H41516417   6.549   5.809   7.626 -0.6090 -1.6059 -0.3538
   22MOL   H41616418   6.697   5.736   7.678 -0.8352  0.0295  0.8536
   22MOL   H41716419   6.780   5.913   0.076 -1.2149 -0.8449  0.9092
   22MOL   H41816420   6.626   5.962   0.091 -0.4790  2.8936 -0.5123
   22MOL   H41916421   6.626   6.133   7.657 -0.9090 -0.6991 -0.2224
   22MOL   C42016422   6.810   6.134   7.596 -0.4626 -0.4011 -0.9693
   22MOL   O42116423   6.927   6.087   7.596  0.3739 -0.5646  0.0037
   22MOL   C42216424   6.789   6.272   7.527  0.7597 -0.5059 -0.3390
   22MOL   C42316425   6.828   6.267   7.375  0.3040 -0.2635 -0.3370
   22MOL   C42416426   6.821   6.401   7.297  0.4198 -1.2717  0.2003
   22MOL   C42516427   6.875   6.387   7.152  0.4793 -0.4237  0.0098
   22MOL   C42616428   7.029   6.401   7.140 -0.2489 -0.1378  0.7617
   22MOL   O42716429   7.091   6.429   7.238  0.6522 -0.5238 -0.1649
   22MOL   N42816430   7.090   6.376   7.018  0.8841  0.1057 -0.3157
   22MOL   C42916431   7.234   6.366   6.993 -0.0421 -0.2760 -0.1472
   22MOL   C43016432   7.280   6.457   6.878 -0.1829  0.0073  0.5008
   22MOL   C43116433   7.198   6.420   6.751 -0.0731  0.1744  0.0279
   22MOL   C43216434   7.239   6.516   6.639 -0.0660 -1.0440  0.1183
   22MOL   C43316435   7.157   6.469   6.514  0.5416  0.2494 -0.2444
   22MOL   C43416436   7.179   6.553   6.389 -0.0352 -0.6255  0.4124
   22MOL   N43516437   7.103   6.503   6.285  0.0258  0.2461  0.6246
   22MOL   H43616438   6.683   6.296   7.511  0.2132 -2.1665  0.6397
   22MOL   H43716439   6.846   6.351   7.575 -0.1575 -0.2907  0.4096
   22MOL   H43816440   6.926   6.220   7.366  1.6270  2.5471 -1.2434
   22MOL   H43916441   6.757   6.198   7.331 -0.8714  1.3838 -1.1018
   22MOL   H44016442   6.868   6.481   7.355 -2.1675  0.9076 -0.5928
   22MOL   H44116443   6.718   6.438   7.291  0.5670 -0.9489 -0.2956
   22MOL   H44216444   6.840   6.478   7.102  1.4026  0.4717  0.9631
   22MOL   H44316445   6.831   6.300   7.103 -2.6722  0.6581  0.7780
   22MOL   H44416446   7.023   6.357   6.945  0.0101  0.6001  0.3448
   22MOL   H44516447   7.292   6.391   7.082 -2.0371  1.1174  0.7976
   22MOL   H44616448   7.255   6.262   6.967  1.8016 -0.1775  0.8976
   22MOL   H44716449   7.263   6.560   6.909 -0.6569 -0.8416  3.2321
   22MOL   H44816450   7.386   6.445   6.855 -0.4481 -0.5880 -0.4050
   22MOL   H44916451   7.090   6.420   6.765  0.0458  0.5902  1.0286
   22MOL   H45016452   7.218   6.316   6.728  0.3560  0.8205 -2.7123
   22MOL   H45116453   7.221   6.623   6.648 -0.0402 -0.8515 -2.0306
   22MOL   H45216454   7.346   6.499   6.631  0.6061  2.7131  0.3849
   22MOL   H45316455   7.169   6.364   6.491 -1.3060  0.0345 -0.2605
   22MOL   H45416456   7.055   6.476   6.550  1.1361  1.4414  1.2385
   22MOL   H45516457   7.285   6.569   6.370 -0.2555  0.1808 -0.1536
   22MOL   H45616458   7.141   6.653   6.409  0.5592 -0.5557  1.2238
   22MOL   H45716459   7.010   6.470   6.307  0.2555  0.2250  1.5974
   22MOL   C45816460   7.146   6.495   6.162  0.6723 -0.6755 -0.1843
   22MOL   O45916461   7.259   6.529   6.131  0.0565  0.1265 -0.7269
   22MOL   C46016462   7.047   6.460   6.052  1.0122 -0.0830  0.2729
   22MOL   C46116463   6.947   6.576   6.031  0.4055 -0.6110  0.9516
   22MOL   C46216464   6.876   6.569   5.891  0.3937  0.2190  0.4508
   22MOL   C46316465   6.816   6.705   5.858 -0.9054  0.1356 -0.0247
   22MOL   C46416466   6.678   6.731   5.909  0.8513  0.8114 -0.2616
   22MOL   O46516467   6.582   6.671   5.859 -0.3884 -0.6205 -0.0591
   22MOL   N46616468   6.662   6.804   6.022  0.5652 -0.2636 -0.4964
   22MOL   C46716469   6.530   6.830   6.087 -0.6618 -0.4225  0.7029
   22MOL   C46816470   6.535   6.810   6.241 -0.2600  0.0578 -0.1996
   22MOL   C46916471   6.562   6.663   6.279 -0.4245  0.5377 -0.3979
   22MOL   C47016472   6.628   6.645   6.412  0.6007  0.1460 -0.6825
   22MOL   C47116473   6.660   6.497   6.445 -0.1101  0.4382 -0.3794
   22MOL   C47216474   6.721   6.492   6.589  0.2464  0.3771 -0.1386
   22MOL   N47316475   6.754   6.354   6.627  0.5569  0.0101 -0.4150
   22MOL   H47416476   7.107   6.443   5.963  0.0156  0.2144 -0.4769
   22MOL   H47516477   7.006   6.366   6.089  0.4656  0.2486  0.5233
   22MOL   H47616478   6.883   6.565   6.119  0.8022 -2.5518  1.0235
   22MOL   H47716479   6.969   6.680   6.052  1.3834 -0.1771 -2.0578
   22MOL   H47816480   6.807   6.485   5.900  1.2611 -0.4163  1.2476
   22MOL   H47916481   6.954   6.555   5.815 -0.8580  1.8266 -1.1820
   22MOL   H48016482   6.801   6.714   5.750 -1.1482 -1.7666 -0.1594
   22MOL   H48116483   6.881   6.788   5.887  1.9119 -2.6224  1.8191
   22MOL   H48216484   6.748   6.845   6.057 -0.4760  0.7315  0.9384
   22MOL   H48316485   6.502   6.933   6.067  4.1659  0.7447 -0.6792
   22MOL   H48416486   6.443   6.780   6.044 -1.4111  2.4847 -1.3210
   22MOL   H48516487   6.612   6.871   6.287 -1.2627  0.6910  0.6912
   22MOL   H48616488   6.443   6.836   6.295 -0.9972 -1.2896 -0.7749
   22MOL   H48716489   6.627   6.616   6.207 -1.0695 -1.6133  0.3799
   22MOL   H48816490   6.469   6.606   6.283 -0.6618  0.9194 -0.3927
   22MOL   H48916491   6.713   6.713   6.421  1.0918 -0.6046  0.4303
   22MOL   H49016492   6.555   6.680   6.484  0.9917  1.7432 -1.0529
   22MOL   H49116493   6.567   6.440   6.442  0.6607 -0.9164  0.5557
   22MOL   H49216494   6.714   6.438   6.371  1.2194  1.9151 -0.5995
   22MOL   H49316495   6.657   6.546   6.658  1.7222  1.7227  0.1978
   22MOL   H49416496   6.818   6.537   6.569 -0.2768  0.5445 -2.4863
   22MOL   H49516497   6.736   6.281   6.559  0.0952 -2.5347  2.3411
   22MOL   C49616498   6.778   6.307   6.750  0.0678 -0.2043  0.7187
   22MOL   O49716499   6.785   6.377   6.852 -0.6360 -0.2597 -0.1047
   22MOL   C49816500   6.786   6.157   6.760 -0.2621 -0.7338  0.5084
   22MOL   C49916501   6.931   6.094   6.767 -0.7065 -0.1426  0.2351
   22MOL   C50016502   6.982   6.072   6.619 -0.4145  0.3253  0.0157
   22MOL   C50116503   7.126   6.016   6.610  0.5326  0.2629 -0.7639
   22MOL   C50216504   7.149   5.874   6.667 -0.1530  0.9697  0.6057
   22MOL   O50316505   7.067   5.787   6.648  0.1484  0.5794 -0.0335
   22MOL   N50416506   7.258   5.856   6.742  0.4482  0.2682 -0.5223
   22MOL   C50516507   7.273   5.730   6.814  0.2702  0.9754 -0.2634
   22MOL   C50616508   7.329   5.757   6.952  0.3435  0.5168  0.5420
   22MOL   C50716509   7.334   5.639   7.054  0.0720 -0.2698 -0.4124
   22MOL   C50816510   7.373   5.666   7.207  0.5572 -0.4546 -0.1452
   22MOL   C50916511   7.312   5.553   7.292  0.7297 -1.2588  0.0038
   22MOL   C51016512   7.356   5.571   7.435 -0.1251  0.6368 -0.3832
   22MOL   N51116513   7.328   5.448   7.510  0.4811 -0.3135 -0.3106
   22MOL   H51216514   6.734   6.130   6.852  0.8458 -0.5957  1.1806
   22MOL   H51316515   6.739   6.116   6.670  2.0733  0.9909 -1.5517
   22MOL   H51416516   7.003   6.141   6.833  1.4379 -1.0314 -1.4239
   22MOL   H51516517   6.923   6.001   6.823 -0.3506 -0.7544 -0.7212
   22MOL   H51616518   6.981   6.163   6.559 -0.3465 -0.7003 -1.5876
   22MOL   H51716519   6.914   6.009   6.562  0.5102  1.0210 -1.8945
   22MOL   H51816520   7.195   6.081   6.665  0.2614 -1.5945  1.8674
   22MOL   H51916521   7.167   6.017   6.509 -0.0941 -0.1896 -1.0217
   22MOL   H52016522   7.338   5.918   6.743  0.2545  0.5086  1.2622
   22MOL   H52116523   7.179   5.678   6.831  0.8275  0.3208  0.9469
   22MOL   H52216524   7.336   5.657   6.763 -1.6299  0.2258 -1.5515
   22MOL   H52316525   7.426   5.797   6.923 -0.6133  1.7204 -1.1406
   22MOL   H52416526   7.277   5.845   6.991  0.1737  1.1344 -1.0365
   22MOL   H52516527   7.392   5.558   7.011  1.9702  0.4488  0.7203
   22MOL   H52616528   7.229   5.609   7.060 -0.3080  0.5070 -2.5228
   22MOL   H52716529   7.481   5.670   7.222  0.7276  0.7962 -1.6098
   22MOL   H52816530   7.327   5.759   7.240 -2.0468 -1.2202 -1.5401
   22MOL   H52916531   7.205   5.535   7.280 -0.0926  2.3514  1.4195
   22MOL   H53016532   7.372   5.467   7.262  1.3367 -1.7786  2.6276
   22MOL   H53116533   7.304   5.659   7.475  2.2089  0.1585  4.0414
   22MOL   H53216534   7.459   5.606   7.435 -0.6826  2.3543 -0.2975
   22MOL   H53316535   7.248   5.457   7.571  0.7222 -1.3870  0.1792
   22MOL   C53416536   7.407   5.342   7.507  0.1572 -0.6633 -0.1141
   22MOL   O53516537   7.517   5.345   7.448  0.4907 -0.5813  0.6460
   22MOL   C53616538   7.355   5.214   7.593 -0.1343 -0.3004  0.5555
   22MOL   C53716539   7.426   5.089   7.526  0.7080 -0.8846 -0.1277
   22MOL   C53816540   7.351   4.957   7.550  0.4118  0.0373 -0.4826
   22MOL   C53916541   7.417   4.834   7.472 -0.0006 -0.0570  0.4489
   22MOL   C54016542   7.402   4.840   7.317  0.3695 -0.2435  0.1816
   22MOL   O54116543   7.291   4.854   7.267 -0.4244 -0.1799  0.4747
   22MOL   N54216544   7.511   4.812   7.248  0.2579 -0.3344  0.4132
   22MOL   C54316545   7.513   4.812   7.102 -0.3280  0.3806  0.3028
   22MOL   C54416546   7.648   4.884   7.067 -0.2182 -0.3654 -0.2821
   22MOL   C54516547   7.664   4.919   6.917 -0.3188 -0.3915  0.3279
   22MOL   C54616548   0.081   4.992   6.875 -0.7262 -0.3821 -0.0340
   22MOL   C54716549   0.087   5.034   6.731  0.9825 -0.2662  0.5660
   22MOL   C54816550   0.190   5.151   6.712  0.3734  0.1670  0.3061
   22MOL   N54916551   0.134   5.277   6.758  0.6673 -0.3568 -0.2156
   22MOL   H55016552   7.380   5.243   7.695 -0.5806 -1.0975  0.8919
   22MOL   H55116553   7.247   5.215   7.576 -0.0764  0.9446  0.1812
   22MOL   H55216554   7.433   5.106   7.418  2.5908 -0.3115  0.0782
   22MOL   H55316555   7.528   5.094   7.564  1.1833  2.8195 -1.6715
   22MOL   H55416556   7.248   4.965   7.516  1.2361 -0.8573 -3.3262
   22MOL   H55516557   7.345   4.933   7.656  0.3752 -2.6975 -1.0714
   22MOL   H55616558   7.360   4.748   7.507 -1.2925  1.4647  2.1514
   22MOL   H55716559   7.520   4.818   7.502  0.5310  0.8098 -0.9178
   22MOL   H55816560   7.596   4.800   7.302  1.0536 -3.1423 -1.3645
   22MOL   H55916561   7.506   4.710   7.063  0.7055  0.0128  1.0439
   22MOL   H56016562   7.438   4.882   7.067  0.8764  1.4052 -0.2840
   22MOL   H56116563   7.645   4.981   7.117  0.8238  1.0872 -2.9217
   22MOL   H56216564   0.032   4.833   7.097 -0.6379 -1.0500 -0.1575
   22MOL   H56316565   7.581   4.986   6.892  0.1308  0.3803  0.8982
   22MOL   H56416566   7.661   4.832   6.851 -0.7317 -0.0736 -0.0793
   22MOL   H56516567   0.099   5.083   6.932  3.2036 -0.6145 -0.7505
   22MOL   H56616568   0.167   4.929   6.899 -0.9067 -0.9062 -0.7682
   22MOL   H56716569   0.111   4.955   6.660 -2.4055 -0.4265 -0.5088
   22MOL   H56816570   7.700   5.067   6.688  0.4152 -1.2433  1.0404
   22MOL   H56916571   0.217   5.165   6.607 -1.9310 -1.1980 -0.5115
   22MOL   H57016572   0.283   5.125   6.762  0.2606 -2.4695 -0.7755
   22MOL   H57116573   0.054   5.272   6.818 -0.0992  0.9776 -1.1202
   22MOL   C57216574   0.170   5.400   6.711  0.0821 -0.1785 -0.4906
   22MOL   O57316575   0.267   5.419   6.637 -0.4052  0.6868  0.1498
   22MOL   C57416576   0.080   5.516   6.755  0.6576  0.2790  0.0361
   22MOL   C57516577   0.161   5.646   6.763  0.6285  0.5123 -0.2567
   22MOL   C57616578   0.236   5.669   6.899  0.5245  0.0023 -0.1219
   22MOL   C57716579   0.142   5.713   7.014 -0.3933  0.1999  0.2933
   22MOL   C57816580   0.200   5.697   7.159  0.2522 -0.4580  0.5631
   22MOL   O57916581   0.321   5.671   7.167 -0.0261  0.3175  0.7510
   22MOL   N58016582   0.121   5.730   7.265 -0.5576  0.5335  0.8811
   22MOL   C58116583   0.168   5.722   7.398  0.9226 -0.3693  0.0066
   22MOL   C58216584   0.047   5.690   7.490 -0.5134 -0.3218 -0.0187
   22MOL   C58316585   0.078   5.689   7.634 -0.2819  0.3178  0.1614
   22MOL   C58416586   7.686   5.626   0.021  0.0730  0.6675  0.3189
   22MOL   C58516587   0.001   5.482   0.065 -0.4048  0.1192 -0.1101
   22MOL   C58616588   0.147   5.462   0.125 -0.4436 -0.9494  0.4297
   22MOL   N58716589   0.161   5.320   0.158 -0.6129 -0.5048  0.2383
   22MOL   H58816590   7.698   5.512   6.694  2.7515  3.3942 -3.5061
   22MOL   H58916591   0.042   5.501   6.856 -3.4383  1.3248 -1.2559
   22MOL   H59016592   0.231   5.652   6.680 -1.5506 -0.3132 -2.2133
   22MOL   H59116593   0.099   5.733   6.743 -1.4254 -0.2008  2.6142
   22MOL   H59216594   0.326   5.731   6.896  1.4274 -1.2529  0.4037
   22MOL   H59316595   0.265   5.573   6.941  1.2919  1.5604  3.0715
   22MOL   H59416596   0.051   5.653   7.016  0.1507 -0.6284  0.7687
   22MOL   H59516597   0.109   5.817   7.014 -0.0952  0.2947  0.3546
   22MOL   H59616598   0.034   5.782   7.258 -0.5910  0.2304 -1.2742
   22MOL   H59716599   0.234   5.638   7.417  0.1233 -0.2340  3.9405
   22MOL   H59816600   0.226   5.810   7.427  0.9730 -0.2082 -0.5791
   22MOL   H59916601   7.687   5.774   7.478  0.6325  0.5703 -0.4431
   22MOL   H60016602   0.015   5.593   7.452 -0.5980 -0.0350 -0.6913
   22MOL   H60116603   0.091   5.793   7.664 -0.1725  1.0401 -2.3336
   22MOL   H60216604   0.181   5.652   7.640 -1.1106 -2.1191 -0.1378
   22MOL   H60316605   7.685   5.679   0.117 -2.3130 -0.5084  0.9871
   22MOL   H60416606   7.589   5.643   7.682  1.0923  2.4812 -1.2097
   22MOL   H60516607   7.624   5.470   0.133 -1.8324  1.3118 -1.6399
   22MOL   H60616608   7.686   5.408   7.697 -0.9514  1.9400 -1.7529
   22MOL   H60716609   0.169   5.530   0.208  0.8070  1.9015 -2.1304
   22MOL   H60816610   0.220   5.474   0.046  0.8154 -0.0519  1.6992
   22MOL   H60916611   0.074   5.281   0.193 -0.3536 -1.6218 -0.3355
   22MOL   C61016612   0.274   5.243   0.157 -0.4428 -0.0341  0.0323
   22MOL   O61116613   0.385   5.293   0.130  0.1489 -0.0867  0.2552
   22MOL   C61216614   0.259   5.108   0.215  0.6373  0.1091 -0.7755
   22MOL   C61316615   0.382   5.015   0.181 -0.5215 -0.2210 -0.1921
   22MOL   C61416616   0.374   4.935   0.054 -0.5563 -0.4304  0.1465
   22MOL   C61516617   0.451   4.801   0.059 -0.2262  0.0731  0.6880
   22MOL   C61616618   0.513   4.765   7.635 -0.4848 -0.7107 -0.4757
   22MOL   O61716619   0.472   4.808   7.522  0.2280 -0.6723  0.2664
   22MOL   N61816620   0.618   4.686   7.633 -0.7253 -0.0894 -0.5487
   22MOL   C61916621   0.702   4.630   7.525 -0.0756  0.2538  0.5660
   22MOL   C62016622   0.793   4.518   7.573  0.3018 -0.0777 -0.1240
   22MOL   C62116623   0.928   4.570   7.615 -0.5072 -0.0239 -0.7515
   22MOL   C62216624   1.036   4.460   7.642 -0.1299  0.1232  0.1869
   22MOL   C62316625   1.181   4.518   7.663 -0.1857 -0.0303 -0.3060
   22MOL   C62416626   1.206   4.581   0.093 -0.2121  0.1582  0.3743
   22MOL   N62516627   1.319   4.669   0.078 -0.1231  0.3796  0.2634
   22MOL   H62616628   0.255   5.102   0.324  1.6481 -0.4959 -0.7725
   22MOL   H62716629   0.166   5.066   0.176 -1.6415  4.2891 -0.2225
   22MOL   H62816630   0.472   5.075   0.179 -0.6330 -0.0644 -1.0594
   22MOL   H62916631   0.394   4.946   0.264 -1.4837 -1.9091 -1.4061
   22MOL   H63016632   0.408   5.002   7.683  0.4559  1.3424  2.0292
   22MOL   H63116633   0.269   4.918   0.032 -0.4413  0.4250 -1.0684
   22MOL   H63216634   0.388   4.720   0.096  0.2242  0.1969  1.7639
   22MOL   H63316635   0.522   4.801   0.142 -0.1367  3.5197  0.6954
   22MOL   H63416636   0.661   4.682   0.016  0.9072 -1.4946 -1.3553
   22MOL   H63516637   0.634   4.569   7.465  1.2567  0.2658 -0.9829
   22MOL   H63616638   0.741   4.709   7.461 -0.7444  0.1153 -0.0227
   22MOL   H63716639   0.749   4.456   7.650  1.3826 -2.1299 -1.0926
   22MOL   H63816640   0.799   4.442   7.494 -2.2032  0.0100 -0.4151
   22MOL   H63916641   0.915   4.639   7.698  0.6106  0.2337 -0.7824
   22MOL   H64016642   0.964   4.641   7.540 -1.3274  0.8293 -0.3526
   22MOL   H64116643   1.008   4.405   0.024 -1.4107 -0.9885 -0.8665
   22MOL   H64216644   1.048   4.399   7.553 -1.3181 -0.9025  0.7086
   22MOL   H64316645   1.255   4.439   7.650 -0.7949 -0.4759 -1.0883
   22MOL   H64416646   1.197   4.584   7.578 -0.5324 -0.7438 -0.9258
   22MOL   H64516647   1.232   4.507   0.169  0.4265  0.2790  0.2808
   22MOL   H64616648   1.124   4.636   0.139 -1.7505  0.0078 -2.1098
   22MOL   H64716649   1.388   4.647   0.009 -0.0906  3.0506 -0.6259
   22MOL   C64816650   1.341   4.781   0.147 -0.8206  0.0301 -0.2257
   22MOL   O64916651   1.261   4.816   0.234  0.2522 -0.0163  0.6273
   22MOL   C65016652   1.464   4.862   0.116 -0.4507 -0.5163 -0.8556
   22MOL   C65116653   1.598   4.788   0.135 -0.0427 -0.2480  0.0283
   22MOL   C65216654   1.599   4.704   0.266 -0.4263  0.6793 -0.5178
   22MOL   C65316655   1.748   4.663   0.304  0.2389 -0.0673  0.5222
   22MOL   C65416656   1.820   4.764   0.401 -1.0326  0.7137 -0.4967
   22MOL   O65516657   1.777   4.770   0.519 -0.0576  0.6473  0.0530
   22MOL   N65616658   1.930   4.811   0.346 -0.1220 -0.1972  0.3879
   22MOL   C65716659   2.032   4.873   0.427  0.0661 -0.6116 -0.1877
   22MOL   C65816660   2.140   4.926   0.335 -0.0487  0.6148 -0.1343
   22MOL   C65916661   2.264   4.978   0.416 -0.7712  1.3881 -0.2316
   22MOL   C66016662   2.371   4.877   0.474 -0.7982  0.0530  0.2461
   22MOL   C66116663   2.507   4.939   0.520 -0.2382  0.3154 -0.4997
   22MOL   C66216664   2.630   4.840   0.532 -0.8185  0.2327 -0.4212
   22MOL   N66316665   2.740   4.903   0.616 -0.0992 -0.6143 -0.3256
   22MOL   H66416666   1.443   4.904   0.018 -2.8279  3.1355  1.0960
   22MOL   H66516667   1.457   4.947   0.184  0.0743  0.4026 -1.9388
   22MOL   H66616668   1.615   4.720   0.051  0.1703 -0.6632  0.4027
   22MOL   H66716669   1.680   4.858   0.131 -0.1506 -0.1110  0.2201
   22MOL   H66816670   1.521   4.629   0.260 -1.5186  1.6180  1.3270
   22MOL   H66916671   1.564   4.756   0.355  0.8562 -0.8370  0.9107
   22MOL   H67016672   1.814   4.641   0.220  1.6247  1.4514  1.1897
   22MOL   H67116673   1.739   4.575   0.369 -2.0644 -0.6557 -0.5393
   22MOL   H67216674   1.951   4.798   0.248 -1.4421 -2.5591  0.4021
   22MOL   H67316675   1.983   4.954   0.480 -1.6916 -1.4691 -0.4469
   22MOL   H67416676   2.082   4.792   0.480  1.0454 -1.3170 -2.1220
   22MOL   H67516677   2.164   4.867   0.247  2.2466  2.9534 -1.1308
   22MOL   H67616678   2.089   5.012   0.291 -0.3949  0.8648  0.7319
   22MOL   H67716679   2.239   5.040   0.502 -0.3919 -0.5701  1.3347
   22MOL   H67816680   2.315   5.052   0.355 -0.2427  0.7161 -0.6070
   22MOL   H67916681   2.327   4.817   0.554  0.2913  1.1389  1.7007
   22MOL   H68016682   2.404   4.810   0.395  0.9175  1.4349 -0.2280
   22MOL   H68116683   2.547   5.015   0.452 -0.3449  1.4015  0.6423
   22MOL   H68216684   2.501   4.979   0.621 -0.0351 -1.7643  0.3674
   22MOL   H68316685   2.676   4.828   0.434 -0.6116  1.5628 -0.4992
   22MOL   H68416686   2.611   4.743   0.578  0.9937  0.7258  1.4393
   22MOL   H68516687   2.692   4.966   0.680 -0.0975 -0.9329 -0.0105
   22MOL   C68616688   2.869   4.872   0.642 -0.2986  0.0709  0.8664
   22MOL   O68716689   2.925   4.781   0.582  0.0075  0.0113 -0.0427
   22MOL   C68816690   2.952   4.955   0.743  0.4439 -0.6502  0.9797
   22MOL   C68916691   3.077   4.894   0.791  0.1144  0.5837 -0.8923
   22MOL   C69016692   3.126   4.960   0.914  0.6364 -0.3741 -0.1020
   22MOL   C69116693   3.225   4.882   0.989  0.5232  0.8628  0.2300
   22MOL   C69216694   3.277   4.940   1.118  0.1912 -0.2255  0.3573
   22MOL   O69316695   3.227   5.045   1.174  0.1320  0.2600 -0.8675
   22MOL   N69416696   3.387   4.872   1.166  0.7634 -0.3667  0.3465
   22MOL   C69516697   3.467   4.909   1.274 -0.1075 -0.0673  0.4503
   22MOL   C69616698   3.537   5.046   1.245 -0.1262  0.6934  0.6152
   22MOL   C69716699   3.652   5.015   1.142  1.0632  0.0716  0.3892
   22MOL   C69816700   3.607   5.023   0.995  0.5952  0.5125 -0.4825
   22MOL   C69916701   3.716   5.011   0.893  0.5896  0.1951 -0.3477
   22MOL   C70016702   3.782   4.876   0.886 -0.3964 -0.3433 -0.1087
   22MOL   N70116703   3.905   4.890   0.818  0.6618 -0.1479  0.3979
   22MOL   H70216704   2.966   5.059   0.712  1.2417 -0.8337  0.7165
   22MOL   H70316705   2.885   4.978   0.826 -0.5773 -0.8029  0.2199
   22MOL   H70416706   3.075   4.787   0.807  0.0349  0.9229  1.5163
   22MOL   H70516707   3.150   4.898   0.711  1.1452  1.2614  0.0588
   22MOL   H70616708   3.040   4.984   0.976  0.1681 -0.4987 -0.7046
   22MOL   H70716709   3.169   5.058   0.896 -1.4437  0.5126 -0.2617
   22MOL   H70816710   3.305   4.858   0.920 -0.4991 -2.6244  0.1428
   22MOL   H70916711   3.173   4.788   1.007  1.4202  0.4461  0.6403
   22MOL   H71016712   3.423   4.796   1.109 -0.3510  0.8927 -2.1337
   22MOL   H71116713   3.395   4.926   1.355 -1.7717  0.6866 -1.1320
   22MOL   H71216714   3.544   4.833   1.283  1.1141  0.2923 -5.1064
   22MOL   H71316715   3.474   5.135   1.234  0.1834  0.7129 -1.1019
   22MOL   H71416716   3.586   5.079   1.337  1.3824 -0.6398  0.3100
   22MOL   H71516717   3.686   4.913   1.155 -0.7850 -0.7188 -0.7096
   22MOL   H71616718   3.738   5.082   1.147  2.8046 -1.8377 -2.4328
   22MOL   H71716719   3.527   4.952   0.975 -0.4834  0.6303  2.9817
   22MOL   H71816720   3.566   5.123   0.982  2.5497  1.0910 -2.5040
   22MOL   H71916721   3.677   5.019   0.792  0.8241  2.7630 -0.2539
   22MOL   H72016722   3.792   5.087   0.908 -0.8046  1.0909  2.5512
   22MOL   H72116723   3.715   4.805   0.836 -0.4735  0.9329 -1.8531
   22MOL   H72216724   3.805   4.829   0.982  1.3489  0.0517 -0.3221
   22MOL   H72316725   3.941   4.980   0.789  0.5602 -0.0784  0.4851
   22MOL   C72416726   3.989   4.790   0.815 -0.8904  0.5046 -0.5919
   22MOL   O72516727   3.954   4.676   0.857  0.3247  0.1283  0.6748
   22MOL   C72616728   4.134   4.821   0.775  0.5516  0.3923  0.4485
   22MOL   C72716729   4.162   4.753   0.636 -0.6282 -0.0356  0.0273
   22MOL   C72816730   4.275   4.816   0.555  0.0716 -0.2493 -0.5066
   22MOL   C72916731   4.263   4.963   0.500  1.0976 -0.7610  0.2265
   22MOL   C73016732   4.164   4.970   0.391  0.3150 -0.0647  0.6882
   22MOL   O73116733   4.185   4.927   0.277 -0.3117 -0.4615 -0.0543
   22MOL   N73216734   4.035   4.997   0.428 -0.7343 -0.3451 -0.3507
   22MOL   C73316735   3.912   4.955   0.357 -0.6215 -1.0443 -0.1914
   22MOL   C73416736   3.796   4.928   0.459  0.4739 -0.0692  0.3711
   22MOL   C73516737   3.675   4.878   0.381 -0.4482  0.3399  0.1393
   22MOL   C73616738   3.552   4.850   0.471 -0.3277 -0.4138  0.2147
   22MOL   C73716739   3.481   4.985   0.515 -0.3517 -0.0293 -0.7043
   22MOL   C73816740   3.372   4.967   0.620  0.3593  0.7290 -0.5645
   22MOL   N73916741   3.316   5.088   0.666  0.2289 -0.8264 -0.7988
   22MOL   H74016742   4.145   4.929   0.777  0.4132  0.3996  0.9688
   22MOL   H74116743   4.198   4.771   0.848 -1.7743 -0.6354  1.8758
   22MOL   H74216744   4.178   4.646   0.652 -0.8159 -0.2840 -1.4241
   22MOL   H74316745   4.077   4.761   0.569  0.4866  0.9495 -1.2848
   22MOL   H74416746   4.304   4.745   0.477 -0.0189  0.3101 -1.0520
   22MOL   H74516747   4.366   4.817   0.615 -0.4276 -0.7625  0.2785
   22MOL   H74616748   4.365   4.978   0.467  1.8047 -2.0375  1.7383
   22MOL   H74716749   4.242   5.032   0.581  0.7487 -1.7309  0.9792
   22MOL   H74816750   4.023   5.038   0.519  0.4064  1.0091 -0.7908
   22MOL   H74916751   3.875   5.020   0.277 -0.7850  0.2962  0.9549
   22MOL   H75016752   3.941   4.861   0.311 -2.3614 -0.9181 -1.6144
   22MOL   H75116753   3.819   4.843   0.524  3.3637 -1.0286 -1.8228
   22MOL   H75216754   3.782   5.010   0.529  0.3929 -0.0805  0.3676
   22MOL   H75316755   3.710   4.794   0.321  2.3804  2.5886 -1.4612
   22MOL   H75416756   3.640   4.943   0.302  1.5660  0.3502 -0.7816
   22MOL   H75516757   3.480   4.779   0.432  1.0821 -1.1559 -1.0812
   22MOL   H75616758   3.592   4.789   0.552  2.5476  2.5892  1.2010
   22MOL   H75716759   3.554   5.039   0.576 -2.5384  1.6898  0.4782
   22MOL   H75816760   3.453   5.052   0.434  1.3488  2.4208  0.6699
   22MOL   H75916761   3.425   4.922   0.704  0.1266  1.9675  0.2551
   22MOL   H76016762   3.302   4.896   0.575 -0.8471  1.7403 -0.3005
   22MOL   H76116763   3.257   5.093   0.748  1.1546  2.0125 -0.2506
   22MOL   H76216764   3.256   5.120   0.591  0.7062 -2.0137 -1.7057
   23MOL     C116765   0.081   3.380   5.809 -0.2253  0.5971 -0.3679
   23MOL     O216766   0.188   3.316   5.816  0.4761  0.2229 -0.3827
   23MOL     C316767   7.665   3.349   5.890 -0.9519  0.7815  0.0076
   23MOL     C416768   7.675   3.219   5.974  0.5234 -0.2291 -0.1312
   23MOL     C516769   7.623   3.088   5.883  0.9222 -0.0122 -0.0122
   23MOL     C616770   7.626   2.963   5.965 -0.1805  0.3816 -0.1929
   23MOL     C716771   0.059   2.929   6.016 -0.0906  1.0627 -0.0523
   23MOL     O816772   0.158   2.968   5.955  1.0796 -0.0344  0.0889
   23MOL     N916773   0.061   2.851   6.130  0.1591  0.0986 -0.2969
   23MOL    C1016774   0.180   2.840   6.211 -0.6145  0.2363 -0.9013
   23MOL    C1116775   0.192   2.696   6.278 -0.3718  0.3021  0.4843
   23MOL    C1216776   0.341   2.685   6.333 -0.0613  0.3724  0.0724
   23MOL    C1316777   0.361   2.541   6.395 -0.1310 -0.0472  0.0171
   23MOL    C1416778   0.508   2.515   6.389  0.4182 -0.5550  0.0710
   23MOL    C1516779   0.611   2.623   6.441 -0.2704  0.4342 -0.6132
   23MOL    N1616780   0.743   2.585   6.394 -0.0046  0.2753  0.9416
   23MOL    H1716781   7.658   3.434   5.958  0.2512  2.0199 -1.3771
   23MOL    H1816782   7.575   3.340   5.830 -0.8403 -2.0047  0.1813
   23MOL    H1916783   0.064   3.192   6.016  0.8002  0.5760 -0.2576
   23MOL    H2016784   7.611   3.232   6.061 -1.8654  0.4214 -1.9115
   23MOL    H2116785   7.691   3.083   5.798  1.3284 -0.2582  0.3282
   23MOL    H2216786   7.522   3.112   5.848  1.0768  0.9204  0.1552
   23MOL    H2316787   7.576   2.882   5.911  0.4271 -0.1177 -0.0198
   23MOL    H2416788   7.566   2.971   6.056  1.1606 -0.5531  0.7922
   23MOL    H2516789   7.682   2.812   6.162  0.0712 -0.5892 -1.3568
   23MOL    H2616790   0.270   2.855   6.151  0.0541 -2.0531 -0.5209
   23MOL    H2716791   0.171   2.908   6.296  3.9760  0.0655 -0.1187
   23MOL    H2816792   0.120   2.700   6.359 -0.0858  0.3276  0.7395
   23MOL    H2916793   0.176   2.620   6.202  2.5359  0.8346 -0.7441
   23MOL    H3016794   0.349   2.757   6.416  1.0825  0.5907 -0.2188
   23MOL    H3116795   0.412   2.716   6.256 -0.2761  1.3677  0.2689
   23MOL    H3216796   0.323   2.526   6.496 -1.0680  0.6513 -0.2214
   23MOL    H3316797   0.303   2.462   6.349 -1.7525  0.0168  1.8908
   23MOL    H3416798   0.528   2.417   6.433 -1.3671 -0.2862  1.5532
   23MOL    H3516799   0.540   2.495   6.287 -1.5163 -4.3592  0.1216
   23MOL    H3616800   0.595   2.628   6.548 -0.0391 -1.3490 -0.4780
   23MOL    H3716801   0.580   2.724   6.412  2.4222  1.4758 -0.0256
   23MOL    H3816802   0.800   2.525   6.451  3.4567  2.2382 -0.3396
   23MOL    H3916803   0.066   3.467   5.745  1.2689  1.0767 -0.0836
   23MOL    C4016804   0.810   2.639   6.290  0.0069 -0.0918 -0.5290
   23MOL    O4116805   0.752   2.714   6.219 -0.3085 -0.0209 -0.4698
   23MOL    C4216806   0.955   2.604   6.265  0.4684  0.5430  0.0211
   23MOL    C4316807   1.022   2.691   6.152 -0.6807  0.5281 -0.0518
   23MOL    C4416808   1.165   2.646   6.126  0.8895 -0.4055  0.1111
   23MOL    C4516809   1.229   2.724   6.013  0.4335 -0.0563 -0.3714
   23MOL    C4616810   1.203   2.678   5.872  0.3318 -0.2476  0.1786
   23MOL    O4716811   1.136   2.579   5.846 -0.0323  0.5648 -0.1139
   23MOL    N4816812   1.260   2.754   5.777 -0.0784 -0.8529 -0.4475
   23MOL    C4916813   1.237   2.733   5.632  0.4440 -0.1198 -0.2431
   23MOL    C5016814   1.116   2.809   5.589  0.7018  0.0859  0.2220
   23MOL    C5116815   1.106   2.834   5.443  0.0740 -0.4565 -0.2036
   23MOL    C5216816   1.184   2.965   5.401 -0.1218 -0.9135 -0.4889
   23MOL    C5316817   1.166   3.000   5.258 -0.8194  0.7537  0.2827
   23MOL    C5416818   1.228   3.136   5.215  0.0085  0.3131 -0.1047
   23MOL    N5516819   1.244   3.141   5.064  0.2161  0.2379 -0.3163
   23MOL    H5616820   1.011   2.621   6.357 -0.6491  1.9924  0.4497
   23MOL    H5716821   0.946   2.499   6.236 -1.1526 -0.1158  2.7158
   23MOL    H5816822   0.970   2.675   6.058  0.3563 -1.7834 -0.2711
   23MOL    H5916823   1.011   2.796   6.177  0.8273  0.6031  0.3413
   23MOL    H6016824   1.175   2.538   6.117 -0.3924 -0.5414  0.3356
   23MOL    H6116825   1.224   2.663   6.216  0.9453 -1.0138  0.1865
   23MOL    H6216826   1.337   2.722   6.027  0.3321  1.1906  0.6377
   23MOL    H6316827   1.194   2.828   6.013 -2.4759 -0.9811  0.4393
   23MOL    H6416828   1.331   2.815   5.813  0.1462 -0.2601 -1.8729
   23MOL    H6516829   1.331   2.768   5.589  0.6409  1.2363  1.2541
   23MOL    H6616830   1.231   2.630   5.598 -0.4488 -0.5108  1.0590
   23MOL    H6716831   1.022   2.769   5.628  1.1239 -0.5593  0.5698
   23MOL    H6816832   1.118   2.904   5.644 -0.2677  0.6045 -0.6277
   23MOL    H6916833   0.998   2.834   5.427  0.2057 -1.5722 -1.2307
   23MOL    H7016834   1.146   2.748   5.389  2.3316  1.2890 -1.3867
   23MOL    H7116835   1.153   3.048   5.465  1.6656 -1.0622  0.6355
   23MOL    H7216836   1.292   2.954   5.413 -0.4332 -2.9566  0.7099
   23MOL    H7316837   1.230   2.922   5.218 -1.5024  1.2653 -1.8589
   23MOL    H7416838   1.068   2.976   5.217  0.0400  1.0063 -1.9693
   23MOL    H7516839   1.317   3.158   5.273 -0.4331 -2.5266  1.7505
   23MOL    H7616840   1.154   3.214   5.235  1.0857  1.1695  0.6241
   23MOL    H7716841   1.163   3.113   5.010 -1.6460  1.0645  1.9367
   23MOL    C7816842   1.359   3.171   4.996 -0.1334  0.2968  0.0354
   23MOL    O7916843   1.468   3.184   5.057  0.2661  0.0096 -0.7120
   23MOL    C8016844   1.343   3.187   4.844 -0.2164 -0.8112  0.4840
   23MOL    C8116845   1.452   3.254   4.760  0.3516  0.1981  0.2540
   23MOL    C8216846   1.588   3.183   4.757 -0.4581  0.1971  0.4577
   23MOL    C8316847   1.683   3.278   4.688 -0.6190 -0.1757  0.4986
   23MOL    C8416848   1.835   3.230   4.683 -0.0920  0.2315 -0.3679
   23MOL    O8516849   1.856   3.106   4.677 -0.5037 -0.2130  0.0882
   23MOL    N8616850   1.929   3.328   4.685 -0.4821 -0.2101 -0.2677
   23MOL    C8716851   2.064   3.285   4.677  0.1844  0.2328 -0.1782
   23MOL    C8816852   2.135   3.355   4.561  0.7312  0.0234  0.2359
   23MOL    C8916853   2.277   3.301   4.547  0.1497  0.0716 -0.5670
   23MOL    C9016854   2.367   3.395   4.463 -0.5538 -0.0907  0.7226
   23MOL    C9116855   2.493   3.329   4.429 -0.4904 -0.0759 -0.0234
   23MOL    C9216856   2.493   3.288   4.282  0.1667 -0.0407 -0.5162
   23MOL    N9316857   2.613   3.236   4.226  1.0221  0.0688 -0.2697
   23MOL    H9416858   1.312   3.093   4.800 -0.0627 -0.9715  0.7192
   23MOL    H9516859   1.256   3.252   4.828  0.5472  0.8833  2.8497
   23MOL    H9616860   1.416   3.267   4.658  0.1274  1.5039  0.4927
   23MOL    H9716861   1.468   3.356   4.795 -1.3866  0.4848  0.2817
   23MOL    H9816862   1.584   3.089   4.703 -1.0613 -0.0607  0.9445
   23MOL    H9916863   1.624   3.163   4.858  0.4016 -2.0637 -0.2853
   23MOL   H10016864   1.684   3.372   4.743 -2.3125  0.4952 -0.5544
   23MOL   H10116865   1.654   3.311   4.588  1.2861 -1.0663 -0.3648
   23MOL   H10216866   1.891   3.422   4.685 -1.6339 -0.6530  1.3952
   23MOL   H10316867   2.108   3.337   4.761  2.8216  1.9927 -2.5454
   23MOL   H10416868   2.079   3.177   4.669 -1.0597  0.0249  0.1514
   23MOL   H10516869   2.077   3.343   4.470 -0.8387 -0.4342  1.2814
   23MOL   H10616870   2.134   3.463   4.578  0.9265 -0.0112  0.4728
   23MOL   H10716871   2.273   3.199   4.510  0.1995 -0.3163  0.5053
   23MOL   H10816872   2.325   3.305   4.645  1.8794 -0.2167 -1.3818
   23MOL   H10916873   2.326   3.427   4.367 -0.2810 -1.0219  0.2849
   23MOL   H11016874   2.390   3.486   4.519 -0.8389  1.2417 -1.2529
   23MOL   H11116875   2.579   3.395   4.440  0.0584 -0.5334 -1.4668
   23MOL   H11216876   2.498   3.238   4.488 -0.9441  1.7653  2.9640
   23MOL   H11316877   2.468   3.376   4.222  3.6385  1.7507  0.4792
   23MOL   H11416878   2.403   3.227   4.272 -0.9275  1.8734 -2.7801
   23MOL   H11516879   2.651   3.296   4.154 -2.0974  2.1831 -0.2480
   23MOL   C11616880   2.683   3.131   4.276  0.1439  0.3421  0.1900
   23MOL   O11716881   2.644   3.044   4.356  0.1583  0.6095  0.0900
   23MOL   C11816882   2.823   3.124   4.218  0.5449  0.4702 -0.0135
   23MOL   C11916883   2.933   3.102   4.321 -0.0960 -0.5137  0.0234
   23MOL   C12016884   2.958   3.223   4.418  0.6118  0.3957  0.0298
   23MOL   C12116885   3.080   3.304   4.385 -0.0836 -0.2591  0.6318
   23MOL   C12216886   3.105   3.421   4.484  0.1230 -0.5391  0.3194
   23MOL   O12316887   3.008   3.494   4.519  0.2908  0.0248  0.4930
   23MOL   N12416888   3.233   3.441   4.525  0.2178  0.0711 -0.2846
   23MOL   C12516889   3.287   3.556   4.595  0.5064 -0.0412  0.1760
   23MOL   C12616890   3.440   3.577   4.585 -0.1453 -0.0130 -0.1851
   23MOL   C12716891   3.493   3.679   4.697  0.3604 -0.0134  0.2004
   23MOL   C12816892   3.638   3.694   4.683 -0.5253 -0.7561  0.0575
   23MOL   C12916893   3.717   3.766   4.797  0.5277  0.5258  0.4357
   23MOL   C13016894   3.730   3.919   4.768 -0.3577 -0.4627 -0.1309
   23MOL   N13116895   3.797   3.966   4.883 -0.6291 -0.0171  0.3060
   23MOL   H13216896   2.820   3.030   4.164  0.4252  0.5280 -0.1051
   23MOL   H13316897   2.839   3.209   4.153  0.2549  1.4219  1.1340
   23MOL   H13416898   2.901   3.021   4.387 -0.8042  1.7172  2.5149
   23MOL   H13516899   3.024   3.078   4.265  0.9138  0.1882  1.3119
   23MOL   H13616900   2.983   3.179   4.514  2.1960  0.8513 -0.1592
   23MOL   H13716901   2.875   3.293   4.422  0.7486  0.6359 -0.9768
   23MOL   H13816902   3.059   3.344   4.286  0.5960  0.2584  0.6954
   23MOL   H13916903   3.164   3.238   4.365  0.5855  0.9242 -0.5466
   23MOL   H14016904   3.300   3.397   4.462  0.8617 -0.1257  0.5342
   23MOL   H14116905   3.243   3.647   4.554  3.2576  1.3996  0.3211
   23MOL   H14216906   3.252   3.533   4.695  1.3332  1.4885  0.8323
   23MOL   H14316907   3.487   3.480   4.605 -1.3148 -0.2184  1.6438
   23MOL   H14416908   3.470   3.606   4.484  1.5700 -0.4918  0.1717
   23MOL   H14516909   3.458   3.649   4.796 -1.6920 -0.5189 -0.6392
   23MOL   H14616910   3.454   3.781   4.691 -1.0799 -0.5834 -0.3527
   23MOL   H14716911   3.679   3.594   4.676 -1.8906 -1.1454 -3.3839
   23MOL   H14816912   3.665   3.747   4.592  1.5327 -0.8572  0.5989
   23MOL   H14916913   3.663   3.750   4.890 -3.9366  1.1463 -1.8960
   23MOL   H15016914   3.818   3.727   4.814  0.1114 -0.2544  1.1109
   23MOL   H15116915   3.627   3.953   4.757 -0.5830 -0.8986  0.5818
   23MOL   H15216916   3.775   3.938   4.671  0.3079  0.3547  0.3230
   23MOL   H15316917   3.754   3.953   4.974  0.4564 -1.9640  0.5774
   23MOL   C15416918   3.912   4.033   4.898 -0.0300 -1.1149  0.1502
   23MOL   O15516919   3.967   4.082   4.799 -0.2641 -0.4068 -0.1382
   23MOL   C15616920   3.955   4.074   5.039 -0.0738 -0.8103  0.2920
   23MOL   C15716921   4.067   3.977   5.079 -0.2998  0.7697  0.2915
   23MOL   C15816922   4.027   3.825   5.095  0.1874  0.4922 -0.7443
   23MOL   C15916923   4.149   3.742   5.133  0.4821  0.0735  0.4360
   23MOL   C16016924   4.125   3.603   5.187  0.4034 -0.1616  0.0833
   23MOL   O16116925   4.040   3.533   5.138 -0.1270  0.0384  0.6784
   23MOL   N16216926   4.197   3.553   5.289 -0.2754  0.2790 -0.0539
   23MOL   C16316927   4.182   3.424   5.363  0.6077  0.5223 -0.1677
   23MOL   C16416928   4.255   3.439   5.500 -0.4160  0.1955  0.3235
   23MOL   C16516929   4.256   3.310   5.580  0.5745 -0.2436  0.6390
   23MOL   C16616930   4.112   3.275   5.619  0.6463  0.1902  0.0805
   23MOL   C16716931   4.054   3.355   5.739  0.0382  0.4830  0.2279
   23MOL   C16816932   3.928   3.295   5.793  0.0758  0.3562 -0.3246
   23MOL   N16916933   3.863   3.397   5.877 -0.2014  0.2495 -0.6218
   23MOL   H17016934   3.995   4.176   5.038 -1.2638 -0.3282 -1.4106
   23MOL   H17116935   3.871   4.059   5.107  0.9703 -0.2546  1.7316
   23MOL   H17216936   4.153   3.985   5.014  0.1410 -0.2287  0.7252
   23MOL   H17316937   4.106   3.996   5.179  1.4409 -1.0205 -0.0322
   23MOL   H17416938   3.991   3.784   5.001  1.1513 -0.7799 -0.5655
   23MOL   H17516939   3.945   3.820   5.167  0.3411 -1.1341 -0.6621
   23MOL   H17616940   4.216   3.804   5.193  1.5458  0.3884 -1.0590
   23MOL   H17716941   4.218   3.729   5.050 -0.8024  1.0949 -0.8294
   23MOL   H17816942   4.261   3.624   5.321  0.1771 -0.5597  0.9078
   23MOL   H17916943   4.078   3.394   5.366  0.7018  0.2213  0.2167
   23MOL   H18016944   4.215   3.330   5.319  0.3311 -0.1193  0.9815
   23MOL   H18116945   4.355   3.480   5.487 -0.3162  0.2734  1.2832
   23MOL   H18216946   4.209   3.518   5.560 -0.5192 -0.7357  1.4902
   23MOL   H18316947   4.321   3.317   5.666 -1.0609 -0.9870  1.9630
   23MOL   H18416948   4.307   3.233   5.522  1.7110  1.1416 -0.2319
   23MOL   H18516949   4.037   3.258   5.542 -0.8351  0.8963  1.3323
   23MOL   H18616950   4.129   3.174   5.655 -0.4591  0.6255  1.8831
   23MOL   H18716951   4.130   3.359   5.817  2.6625  0.4563 -2.2380
   23MOL   H18816952   4.034   3.460   5.717 -1.0511  0.1256 -0.5630
   23MOL   H18916953   3.961   3.212   5.856  0.2261  1.2268  0.7711
   23MOL   H19016954   3.860   3.252   5.719  1.1513  0.6572 -1.5076
   23MOL   H19116955   3.883   3.493   5.852 -1.0253  1.3154  2.6776
   23MOL   C19216956   3.761   3.368   5.958 -0.1131 -1.0799  0.5390
   23MOL   O19316957   3.719   3.255   5.979  0.2329  0.6015 -0.4128
   23MOL   C19416958   3.696   3.490   6.024  0.1852 -0.1783  0.1281
   23MOL   C19516959   3.591   3.453   6.129 -0.4543  0.1864 -0.0502
   23MOL   C19616960   3.662   3.396   6.258  0.3503 -0.2094 -0.0133
   23MOL   C19716961   3.730   3.499   6.349 -0.0251  0.0792  0.0236
   23MOL   C19816962   3.793   3.426   6.466  0.0774  0.6005 -0.1450
   23MOL   O19916963   3.728   3.425   6.567 -0.0944  0.7092  0.0060
   23MOL   N20016964   3.921   3.387   6.465 -0.3114 -0.4782  0.1084
   23MOL   C20116965   3.988   3.330   6.573  0.0647 -0.3004  0.3749
   23MOL   C20216966   4.144   3.320   6.557 -0.5985  0.0806  0.5023
   23MOL   C20316967   4.198   3.237   6.679 -0.5488  0.7158  0.0722
   23MOL   C20416968   4.356   3.244   6.672 -0.1075 -0.7334  0.3096
   23MOL   C20516969   4.423   3.144   6.576  0.2571 -0.1205 -1.2866
   23MOL   C20616970   4.436   3.006   6.642  0.5647 -0.4615 -0.0453
   23MOL   N20716971   4.500   2.908   6.554  0.4149 -0.1001 -0.4869
   23MOL   H20816972   3.778   3.550   6.065 -0.4786  1.2421 -0.6109
   23MOL   H20916973   3.648   3.558   5.954 -1.5505 -0.1109  1.3779
   23MOL   H21016974   3.531   3.540   6.156  0.1209  0.2760  0.9596
   23MOL   H21116975   3.526   3.372   6.094  0.0575  0.6826 -2.1956
   23MOL   H21216976   3.735   3.319   6.234  2.5560  1.3250  1.6032
   23MOL   H21316977   3.588   3.346   6.322  1.5708 -0.4405  1.2570
   23MOL   H21416978   3.670   3.585   6.378  0.9322  0.2694  1.5216
   23MOL   H21516979   3.809   3.543   6.287 -0.8471  1.1364 -0.2975
   23MOL   H21616980   3.978   3.420   6.388  0.1451 -0.9586  0.2358
   23MOL   H21716981   3.972   3.370   6.674 -0.4990  0.8315 -0.1564
   23MOL   H21816982   3.936   3.234   6.578 -0.7173  0.1455  0.9074
   23MOL   H21916983   4.156   3.266   6.464 -0.4283  0.7760  0.1127
   23MOL   H22016984   4.194   3.417   6.554 -2.4830  1.1198  1.8722
   23MOL   H22116985   4.165   3.134   6.670  1.8780 -0.2196  1.2858
   23MOL   H22216986   4.174   3.295   6.769 -0.6710  0.3875  0.2516
   23MOL   H22316987   4.398   3.343   6.652  0.6035 -0.5422  2.6386
   23MOL   H22416988   4.396   3.216   6.769  0.2925 -0.7519  0.1421
   23MOL   H22516989   4.354   3.152   6.492 -0.6603 -0.2768 -0.5560
   23MOL   H22616990   4.523   3.177   6.549  0.4464  0.8589  0.5434
   23MOL   H22716991   4.336   2.967   6.664  0.4445 -0.7772 -1.1644
   23MOL   H22816992   4.492   3.013   6.735 -0.4156  0.6844  0.4827
   23MOL   H22916993   4.494   2.936   6.457  0.6903  1.0090 -0.1939
   23MOL   C23016994   4.583   2.805   6.573 -0.3591  0.2429 -0.6250
   23MOL   O23116995   4.602   2.770   6.692  0.0715  0.3455  0.2606
   23MOL   C23216996   4.646   2.737   6.457  0.0185  0.6386  0.8877
   23MOL   C23316997   4.631   2.587   6.477  0.2842  0.1605  0.1658
   23MOL   C23416998   4.688   2.496   6.363  0.5928 -0.4258  0.0065
   23MOL   C23516999   4.581   2.470   6.261 -0.0299 -0.6267  0.1678
   23MOL   C23617000   4.586   2.570   6.139  0.4403  0.0394  0.0415
   23MOL   O23717001   4.689   2.555   6.074  0.5037 -0.0543 -0.4817
   23MOL   N23817002   4.487   2.652   6.114  0.2404  0.5163 -0.7446
   23MOL   C23917003   4.482   2.755   6.010  0.4604  0.8920  0.3294
   23MOL   C24017004   4.345   2.752   5.933 -0.1932 -0.3769  1.0914
   23MOL   C24117005   4.314   2.882   5.851  0.2899  0.1208 -0.0724
   23MOL   C24217006   4.190   2.876   5.761  0.2358  0.1909  0.5547
   23MOL   C24317007   4.062   2.883   5.846 -0.4542  0.4035 -1.2985
   23MOL   C24417008   3.937   2.836   5.771  0.0341  0.1437 -0.6777
   23MOL   N24517009   3.810   2.877   5.841  0.4215 -0.2675  0.2769
   23MOL   H24617010   4.600   2.769   6.364  3.5791  1.3664 -0.6902
   23MOL   H24717011   4.751   2.763   6.450  0.1724 -0.5621 -1.6208
   23MOL   H24817012   4.682   2.559   6.569 -0.2244 -0.5026  0.2521
   23MOL   H24917013   4.528   2.569   6.506  1.2257  0.6625  4.1139
   23MOL   H25017014   4.696   2.397   6.407 -0.7341 -0.4686  0.1722
   23MOL   H25117015   4.782   2.532   6.322 -1.0237  1.9408 -1.7881
   23MOL   H25217016   4.483   2.472   6.310 -0.5899 -1.2989 -0.9010
   23MOL   H25317017   4.600   2.374   6.213 -0.7637 -1.2236  1.0507
   23MOL   H25417018   4.409   2.657   6.178  0.4443 -2.7323 -0.1595
   23MOL   H25517019   4.490   2.847   6.068  0.7276  1.4806 -0.6294
   23MOL   H25617020   4.565   2.737   5.941  0.4117 -2.5452  1.0492
   23MOL   H25717021   4.354   2.665   5.868  3.8899  1.7718 -1.4452
   23MOL   H25817022   4.269   2.725   6.006  0.1886 -1.7487  1.0037
   23MOL   H25917023   4.404   2.899   5.792 -1.8272 -1.7966 -4.0037
   23MOL   H26017024   4.297   2.960   5.926 -0.8214  0.0782 -0.2683
   23MOL   H26117025   4.193   2.947   5.678 -3.7449 -2.0618 -1.6412
   23MOL   H26217026   4.203   2.777   5.718 -0.0934 -1.0247  3.1330
   23MOL   H26317027   4.075   2.821   5.935  0.0960 -0.4069 -1.9354
   23MOL   H26417028   4.046   2.985   5.881  0.6073 -0.0176  0.5168
   23MOL   H26517029   3.942   2.727   5.767  1.2371  0.1982 -0.7904
   23MOL   H26617030   3.931   2.883   5.672 -1.4133  2.2069  0.3692
   23MOL   H26717031   3.820   2.937   5.923 -2.9349  1.0623 -0.2072
   23MOL   C26817032   3.684   2.871   5.799 -0.7250 -0.4240 -0.4047
   23MOL   O26917033   3.654   2.823   5.689 -0.0772  0.2624 -0.5434
   23MOL   C27017034   3.582   2.926   5.894  0.1339  0.3610 -0.5288
   23MOL   C27117035   3.516   3.046   5.826  0.1464  0.0926  0.2085
   23MOL   C27217036   3.397   3.110   5.907  0.1172 -0.7152 -0.2712
   23MOL   C27317037   3.284   3.015   5.966 -0.2768  0.1321 -0.9506
   23MOL   C27417038   3.312   2.948   6.103 -0.0398  0.1958  0.4446
   23MOL   O27517039   3.336   2.828   6.104  0.0696  0.3155 -0.3227
   23MOL   N27617040   3.285   3.029   6.209 -0.0384  0.0538 -0.3390
   23MOL   C27717041   3.256   2.985   6.343 -0.5141 -0.3919  0.3762
   23MOL   C27817042   3.209   3.099   6.439 -0.5286  0.2366  1.0071
   23MOL   C27917043   3.172   3.048   6.578 -0.0274 -0.0674  0.4986
   23MOL   C28017044   3.144   3.169   6.669  0.2221 -0.1089 -0.6294
   23MOL   C28117045   3.014   3.251   6.641 -0.3964  0.5723 -0.3078
   23MOL   C28217046   2.999   3.379   6.720 -0.7692 -0.8193  0.4896
   23MOL   N28317047   2.857   3.428   6.708  0.1758 -0.2941  0.0398
   23MOL   H28417048   3.516   2.844   5.920  0.6695  0.6396  1.8018
   23MOL   H28517049   3.620   2.951   5.993  0.0573 -3.2077  0.4584
   23MOL   H28617050   3.597   3.115   5.803  0.8647 -0.3224  1.4431
   23MOL   H28717051   3.467   3.017   5.733  1.7023  1.1525 -0.9779
   23MOL   H28817052   3.365   3.189   5.840  1.0580 -1.1276 -1.2244
   23MOL   H28917053   3.442   3.166   5.988 -1.8866  0.0218  0.3580
   23MOL   H29017054   3.246   2.945   5.893  0.1755 -2.4495  1.1847
   23MOL   H29117055   3.190   3.069   5.977 -0.1589 -0.0260  1.2031
   23MOL   H29217056   3.262   3.126   6.194  2.0508  0.5490 -0.5019
   23MOL   H29317057   3.201   2.892   6.355 -0.8088 -0.1539  0.8864
   23MOL   H29417058   3.349   2.944   6.382 -0.4686 -0.4781  0.1779
   23MOL   H29517059   3.286   3.176   6.435 -1.8558  1.4526 -2.4502
   23MOL   H29617060   3.120   3.147   6.399 -1.3856 -0.5769  1.9299
   23MOL   H29717061   3.257   2.991   6.614 -0.0063  1.0150  2.2456
   23MOL   H29817062   3.085   2.983   6.570  1.0957 -1.5208 -0.2076
   23MOL   H29917063   3.144   3.138   6.773 -0.6016  1.7060 -0.0573
   23MOL   H30017064   3.228   3.238   6.663  1.6474 -1.8526 -0.9895
   23MOL   H30117065   2.995   3.255   6.534  1.4231 -0.0977 -0.6753
   23MOL   H30217066   2.945   3.173   6.674 -0.7677  0.7215 -0.7240
   23MOL   H30317067   3.077   3.444   6.683  0.0910 -2.3432 -0.3859
   23MOL   H30417068   3.030   3.373   6.825  2.0581 -1.5358 -0.3567
   23MOL   H30517069   2.835   3.471   6.620 -2.8307 -1.9498 -0.0898
   23MOL   C30617070   2.760   3.427   6.801 -0.2992  0.3728  0.2421
   23MOL   O30717071   2.779   3.366   6.904  0.1008 -1.0281  0.0163
   23MOL   C30817072   2.624   3.483   6.767 -0.9428 -0.4071  0.2065
   23MOL   C30917073   2.624   3.633   6.768 -1.1245  0.2711 -0.5022
   23MOL   C31017074   2.636   3.704   6.905 -0.1133 -0.2542  0.2972
   23MOL   C31117075   2.528   3.661   7.005 -0.1506 -0.9953 -0.2469
   23MOL   C31217076   2.533   3.743   7.136  0.5045 -0.4691  0.3565
   23MOL   O31317077   2.524   3.866   7.134  0.5480  0.3431  0.0599
   23MOL   N31417078   2.562   3.672   7.243  0.3248 -0.0324 -0.6000
   23MOL   C31517079   2.601   3.729   7.376 -0.5777 -0.0409  0.6452
   23MOL   C31617080   2.749   3.738   7.406  0.2476 -0.8392  0.2216
   23MOL   C31717081   2.839   3.623   7.361  0.2363 -0.3107  0.8782
   23MOL   C31817082   2.971   3.615   7.442  0.4870 -0.0693  0.8326
   23MOL   C31917083   3.035   3.485   7.403 -0.2322  0.1639  0.3674
   23MOL   C32017084   3.172   3.465   7.473  0.5140 -0.1656 -0.7745
   23MOL   N32117085   3.226   3.334   7.446 -0.2753 -0.1304  0.0081
   23MOL   H32217086   2.602   3.449   6.667  2.0724 -0.1320 -0.6090
   23MOL   H32317087   2.545   3.437   6.827  0.5708 -1.4196  1.4800
   23MOL   H32417088   2.707   3.664   6.704 -1.2970 -2.2534 -1.9917
   23MOL   H32517089   2.532   3.668   6.722 -0.2146  1.7484 -1.2272
   23MOL   H32617090   2.620   3.811   6.892 -0.5185 -0.0500  2.2395
   23MOL   H32717091   2.737   3.700   6.946  0.2924 -0.1439 -0.6722
   23MOL   H32817092   2.552   3.557   7.025  2.0883 -0.5160 -0.3321
   23MOL   H32917093   2.427   3.667   6.963 -0.9606  3.0884  2.0509
   23MOL   H33017094   2.557   3.572   7.227 -1.5682  0.1090 -0.9908
   23MOL   H33117095   2.549   3.825   7.387 -0.9420  0.0780 -1.8296
   23MOL   H33217096   2.536   3.666   7.436 -0.6122  2.9527  3.9770
   23MOL   H33317097   2.779   3.833   7.360  0.9326 -0.3054  1.7662
   23MOL   H33417098   2.750   3.754   7.513 -0.4521 -0.2696  0.1479
   23MOL   H33517099   2.854   3.634   7.253 -0.3915 -2.9196  0.5155
   23MOL   H33617100   2.774   3.537   7.370  0.6016 -0.7075 -0.1615
   23MOL   H33717101   3.040   3.699   7.428  2.4318 -1.8730 -0.7202
   23MOL   H33817102   2.953   3.611   7.549 -0.3019  2.0289  0.8088
   23MOL   H33917103   2.969   3.400   7.419 -1.0130  0.6044 -0.5184
   23MOL   H34017104   3.052   3.481   7.296 -0.6646  2.5098  0.1927
   23MOL   H34117105   3.146   3.461   7.579 -0.6146  2.1101 -0.9435
   23MOL   H34217106   3.239   3.547   7.449 -1.0624  2.1587  2.5177
   23MOL   H34317107   3.183   3.266   7.385 -0.4436  1.1619 -1.3384
   23MOL   C34417108   3.345   3.293   7.497  0.5765  0.6193  0.0762
   23MOL   O34517109   3.427   3.367   7.557 -0.3986 -0.3931  0.7683
   23MOL   C34617110   3.387   3.152   7.453  0.2125 -0.0192  0.6951
   23MOL   C34717111   3.430   3.062   7.567  0.1457  0.2195  0.2797
   23MOL   C34817112   3.314   3.022   7.656  0.1107 -0.4489  0.4151
   23MOL   C34917113   3.360   2.923   0.051 -0.8038  0.5280  0.0125
   23MOL   C35017114   3.247   2.871   0.146  1.0083  0.4439  0.3573
   23MOL   O35117115   3.159   2.948   0.187 -0.1941  0.2889  0.5225
   23MOL   N35217116   3.263   2.743   0.181 -0.2034  0.7821  0.2990
   23MOL   C35317117   3.156   2.676   0.255  0.0142  0.5105 -0.1483
   23MOL   C35417118   3.196   2.530   0.267  0.7733  0.5936 -0.8426
   23MOL   C35517119   3.078   2.439   0.302 -0.7984  0.2290  0.8629
   23MOL   C35617120   3.113   2.293   0.280  0.1435  0.2229  0.0993
   23MOL   C35717121   3.141   2.248   0.131 -0.1308 -0.1048 -0.1588
   23MOL   C35817122   3.177   2.103   0.107 -0.1151 -0.0771  0.4576
   23MOL   N35917123   3.293   2.066   0.191 -0.1880  0.2308 -0.0330
   23MOL   H36017124   3.309   3.093   7.405  2.0948 -1.5701 -0.5757
   23MOL   H36117125   3.477   3.160   7.391 -0.3209  2.5487  0.2392
   23MOL   H36217126   3.468   2.968   7.528  1.4942  0.5712  0.7399
   23MOL   H36317127   3.501   3.113   7.632  1.1974 -0.7465 -0.0927
   23MOL   H36417128   3.233   2.977   7.600 -1.3431  1.7169  0.7399
   23MOL   H36517129   3.283   3.112   0.001 -0.6745  0.2975 -1.3006
   23MOL   H36617130   3.436   2.964   0.116 -0.0184  0.0239 -0.5752
   23MOL   H36717131   3.408   2.837   0.004 -1.8709  0.1615 -0.4263
   23MOL   H36817132   3.337   2.694   0.132 -1.4726 -1.9485  1.0817
   23MOL   H36917133   3.153   2.717   0.356  2.5811  0.9818 -0.2396
   23MOL   H37017134   3.061   2.694   0.205 -0.2256  1.8847  0.7635
   23MOL   H37117135   3.218   2.490   0.168 -1.8796  1.3157 -1.7444
   23MOL   H37217136   3.275   2.520   0.342 -0.8947  1.8582  1.1032
   23MOL   H37317137   2.984   2.471   0.256 -1.5571 -0.8067  1.6554
   23MOL   H37417138   3.048   2.448   0.407 -0.1388 -3.5178  1.4494
   23MOL   H37517139   3.201   2.275   0.342 -0.7954  1.1809  1.7093
   23MOL   H37617140   3.038   2.229   0.325 -0.1893  0.6532  0.1557
   23MOL   H37717141   3.052   2.276   0.075 -0.1931 -1.1552 -0.6085
   23MOL   H37817142   3.222   2.309   0.091 -2.2719  2.8888 -0.1103
   23MOL   H37917143   3.195   2.092   0.000  1.3509  2.2005  0.4443
   23MOL   H38017144   3.092   2.039   0.132 -1.3074  2.4164  3.0387
   23MOL   H38117145   3.367   2.134   0.190 -0.4296  0.4970 -0.0206
   23MOL   C38217146   3.322   1.946   0.236 -0.2381 -0.2829 -0.3068
   23MOL   O38317147   3.257   1.844   0.213 -0.1857  0.0352  0.7000
   23MOL   C38417148   3.450   1.936   0.323 -0.3389  0.3644 -0.4116
   23MOL   C38517149   3.447   1.859   0.463  0.2273 -0.4460  0.2041
   23MOL   C38617150   3.456   1.704   0.455  0.4065 -0.1731 -0.5549
   23MOL   C38717151   3.462   1.640   0.597  0.0243 -0.3216 -0.1612
   23MOL   C38817152   3.344   1.655   0.691 -0.6008  0.7277  0.1120
   23MOL   O38917153   3.293   1.770   0.697 -0.4331  0.1253  0.3333
   23MOL   N39017154   3.307   1.551   0.769  0.1861  0.1163  0.2366
   23MOL   C39117155   3.216   1.559   0.882 -0.1052  0.4289  0.1647
   23MOL   C39217156   3.072   1.578   0.840  0.2781  0.4553 -0.0816
   23MOL   C39317157   2.979   1.635   0.948  0.8280  0.6421 -0.1837
   23MOL   C39417158   2.844   1.654   0.881 -0.3375 -0.1021 -0.3640
   23MOL   C39517159   2.728   1.688   0.980  0.7970  0.0851  0.0333
   23MOL   C39617160   2.600   1.722   0.893  0.1827  0.3516  0.0414
   23MOL   N39717161   2.491   1.784   0.966  0.3511 -0.4600  0.6004
   23MOL   H39817162   3.543   1.908   0.273 -0.5117 -0.2725 -0.3742
   23MOL   H39917163   3.463   2.041   0.351 -3.0709  0.7759 -0.5909
   23MOL   H40017164   3.532   1.884   0.527  1.5357 -1.7769 -0.9710
   23MOL   H40117165   3.364   1.904   0.518  1.3404  2.4032 -0.3765
   23MOL   H40217166   3.542   1.673   0.395  0.8579 -0.6144  0.3130
   23MOL   H40317167   3.367   1.669   0.403 -1.2065  0.6700  1.5358
   23MOL   H40417168   3.538   1.699   0.649  0.3629 -0.2133 -0.7720
   23MOL   H40517169   3.475   1.533   0.583 -0.1298 -0.0789 -2.4048
   23MOL   H40617170   3.361   1.466   0.758 -0.3444 -0.1556 -0.3446
   23MOL   H40717171   3.232   1.471   0.944 -0.3215 -0.3433 -0.8754
   23MOL   H40817172   3.258   1.642   0.938  2.7381 -1.4366  0.8727
   23MOL   H40917173   3.076   1.655   0.764 -3.9701  0.8661 -0.0085
   23MOL   H41017174   3.048   1.481   0.797 -1.2772  1.2608 -1.0449
   23MOL   H41117175   3.010   1.734   0.982 -0.4733  1.0807 -0.2404
   23MOL   H41217176   2.970   1.574   1.037 -1.2381  1.4084  0.1758
   23MOL   H41317177   2.855   1.737   0.812 -0.1570  0.6546  0.5500
   23MOL   H41417178   2.812   1.570   0.821 -0.5039  0.5004 -1.1197
   23MOL   H41517179   2.707   1.615   1.059 -1.0134  1.3406  0.7550
   23MOL   H41617180   2.756   1.776   1.037 -2.2322  1.2482 -0.1758
   23MOL   H41717181   2.570   1.629   0.845 -0.8216  0.7255 -0.0660
   23MOL   H41817182   2.631   1.786   0.810  2.1447  0.6105  0.9323
   23MOL   H41917183   2.491   1.876   1.007 -0.4977 -0.1859  0.0097
   23MOL   C42017184   2.396   1.702   1.016  0.2344 -0.1243 -0.5943
   23MOL   O42117185   2.381   1.583   0.982 -0.6799 -0.0640 -0.5374
   23MOL   C42217186   2.289   1.766   1.104 -0.3761 -0.0150  0.4552
   23MOL   C42317187   2.304   1.719   1.248 -0.2849 -0.2066 -0.1827
   23MOL   C42417188   2.167   1.739   1.321 -0.0539 -0.4429 -0.2703
   23MOL   C42517189   2.177   1.684   1.467  0.1626  0.0058  0.9379
   23MOL   C42617190   2.268   1.762   1.568  0.7045 -0.3835  0.4310
   23MOL   O42717191   2.319   1.869   1.543  0.2936  0.6412  0.8209
   23MOL   N42817192   2.271   1.708   1.688  0.1228 -0.7417  0.0714
   23MOL   C42917193   2.317   1.770   1.812  0.1647  0.7418  0.5974
   23MOL   C43017194   2.391   1.672   1.901 -0.0836  0.4286  0.1514
   23MOL   C43117195   2.444   1.732   2.028 -0.1095  0.2481 -0.2570
   23MOL   C43217196   2.460   1.635   2.146  0.3435 -0.3336  0.1195
   23MOL   C43317197   2.336   1.612   2.226 -0.1464 -0.0448  0.1604
   23MOL   C43417198   2.369   1.513   2.344  0.5115 -0.5539  0.4164
   23MOL   N43517199   2.258   1.492   2.440  0.1649  0.7650 -0.5693
   23MOL   H43617200   2.286   1.874   1.093 -0.5054 -0.1097 -0.4752
   23MOL   H43717201   2.190   1.729   1.077 -0.7637  1.0569  0.3831
   23MOL   H43817202   2.340   1.617   1.258  1.2867  0.5610  2.4317
   23MOL   H43917203   2.390   1.773   1.288  0.6864 -0.7781 -1.4601
   23MOL   H44017204   2.096   1.674   1.269  0.9060 -1.1057 -0.7937
   23MOL   H44117205   2.128   1.840   1.326 -4.9751 -2.3013  0.8222
   23MOL   H44217206   2.218   1.583   1.473 -0.7256 -0.5062 -1.2965
   23MOL   H44317207   2.074   1.673   1.499 -0.4165 -2.2587 -1.6148
   23MOL   H44417208   2.236   1.613   1.692 -0.6597 -0.3898  2.0243
   23MOL   H44517209   2.380   1.855   1.787 -0.0158  1.1401  1.4561
   23MOL   H44617210   2.232   1.803   1.872  1.5344  0.0795  2.9372
   23MOL   H44717211   2.306   1.611   1.930  0.5319 -0.3066  0.4373
   23MOL   H44817212   2.478   1.620   1.860 -1.0983 -0.6263 -0.6937
   23MOL   H44917213   2.378   1.815   2.053 -1.2489 -0.7377  0.0204
   23MOL   H45017214   2.539   1.780   2.003  0.4902 -0.5092  0.5426
   23MOL   H45117215   2.513   1.543   2.118  1.7245  0.2890  0.6111
   23MOL   H45217216   2.533   1.668   2.220 -0.6886  2.3654 -0.0223
   23MOL   H45317217   2.296   1.704   2.269 -0.9369  0.5138 -1.7323
   23MOL   H45417218   2.266   1.577   2.150  0.2809  2.1406 -1.2672
   23MOL   H45517219   2.456   1.542   2.404  0.0138  1.1050  0.3731
   23MOL   H45617220   2.404   1.416   2.311  0.8423 -0.6685  1.0962
   23MOL   H45717221   2.278   1.515   2.537  1.2623  0.1200 -0.6363
   23MOL   C45817222   2.141   1.431   2.416  0.1463  0.2676  0.1578
   23MOL   O45917223   2.111   1.383   2.304  0.3096  0.5022  0.2694
   23MOL   C46017224   2.033   1.421   2.528 -0.4230  0.2205 -0.4860
   23MOL   C46117225   1.916   1.512   2.481 -0.4424 -0.3422 -0.1759
   23MOL   C46217226   1.965   1.660   2.474 -0.5120  0.1793 -0.3565
   23MOL   C46317227   1.857   1.768   2.488  0.1853 -0.1904  0.1164
   23MOL   C46417228   1.794   1.809   2.353 -0.3174 -0.4349  0.2661
   23MOL   O46517229   1.867   1.823   2.258 -0.1030 -0.1698 -0.2422
   23MOL   N46617230   1.658   1.828   2.345 -0.3278 -0.1010  0.0524
   23MOL   C46717231   1.595   1.859   2.213 -0.1072 -0.0051  0.8760
   23MOL   C46817232   1.595   2.007   2.177 -0.0426 -0.7934  0.7955
   23MOL   C46917233   1.549   2.020   2.035 -0.0283  0.3397  0.8607
   23MOL   C47017234   1.662   2.024   1.931  0.4140  0.3856 -0.3345
   23MOL   C47117235   1.745   1.896   1.920  0.0352  0.0155  0.4362
   23MOL   C47217236   1.860   1.899   1.816 -0.4641  0.1832 -0.8521
   23MOL   N47317237   1.817   1.927   1.683 -0.4478 -0.4998  0.5595
   23MOL   H47417238   2.017   1.314   2.539  2.2615 -0.6815 -4.4200
   23MOL   H47517239   2.062   1.466   2.623 -0.7967 -1.3396  0.3811
   23MOL   H47617240   1.872   1.476   2.387  1.8502 -0.3856 -1.2739
   23MOL   H47717241   1.843   1.498   2.560  0.5404  0.2051  0.8341
   23MOL   H47817242   2.022   1.687   2.386  1.3955 -0.9228  0.5063
   23MOL   H47917243   2.042   1.676   2.549 -2.5148 -0.7929  1.9971
   23MOL   H48017244   1.914   1.849   2.533 -1.7058 -1.0756  4.3977
   23MOL   H48117245   1.781   1.729   2.557  0.1347  0.5566  0.4809
   23MOL   H48217246   1.603   1.823   2.429 -0.2418  0.6711  0.1551
   23MOL   H48317247   1.645   1.796   2.139  2.0589 -1.3559  3.3913
   23MOL   H48417248   1.493   1.825   2.226 -0.8135  2.5006  2.1136
   23MOL   H48517249   1.529   2.066   2.241 -0.1495  0.4244 -0.3990
   23MOL   H48617250   1.692   2.056   2.171 -0.5851  0.3643  1.3626
   23MOL   H48717251   1.522   2.126   2.032 -0.9918  0.0825  0.3100
   23MOL   H48817252   1.474   1.951   1.997  0.8029  0.7514 -1.6788
   23MOL   H48917253   1.616   2.044   1.835 -1.2565  1.2767  0.6250
   23MOL   H49017254   1.726   2.111   1.940  0.3826  0.4271 -0.5147
   23MOL   H49117255   1.789   1.866   2.015  0.3641  2.0824  0.9512
   23MOL   H49217256   1.672   1.818   1.897  1.1090 -0.8475 -0.1081
   23MOL   H49317257   1.912   1.805   1.831 -1.2236 -0.0205  0.5980
   23MOL   H49417258   1.924   1.980   1.852 -2.5559  1.6238 -0.2711
   23MOL   H49517259   1.814   2.024   1.655  4.9465  0.0808  1.5105
   23MOL   C49617260   1.790   1.840   1.583  0.5523 -0.0948  0.0484
   23MOL   O49717261   1.784   1.722   1.609  0.4200  0.6172  0.5513
   23MOL   C49817262   1.783   1.898   1.442  0.2571  0.5007 -0.0019
   23MOL   C49917263   1.641   1.943   1.389 -0.3060 -0.0195 -0.2156
   23MOL   C50017264   1.564   1.821   1.345 -0.2385 -0.2697  0.1835
   23MOL   C50117265   1.434   1.869   1.279  0.3907  0.4942 -0.7867
   23MOL   C50217266   1.447   1.928   1.134 -0.1848  0.0643 -0.2484
   23MOL   O50317267   1.530   1.892   1.054 -0.5253 -0.2632 -0.1726
   23MOL   N50417268   1.353   2.010   1.101  0.0088  0.5002  0.6355
   23MOL   C50517269   1.352   2.080   0.972 -0.0314 -0.4292  0.6380
   23MOL   C50617270   1.224   2.139   0.918 -0.2903 -0.0973  0.2457
   23MOL   C50717271   1.252   2.223   0.791  0.4756  0.4160 -0.5596
   23MOL   C50817272   1.122   2.255   0.717 -0.2676 -0.4542  0.0479
   23MOL   C50917273   1.146   2.363   0.614  0.4372  0.6873 -0.4639
   23MOL   C51017274   1.024   2.412   0.544  0.5238 -0.1275  1.2633
   23MOL   N51117275   0.938   2.517   0.613 -0.0385 -0.4927  0.3585
   23MOL   H51217276   1.853   1.981   1.441  0.3126  0.4865  1.3036
   23MOL   H51317277   1.831   1.833   1.368  0.9237 -0.2472  1.0596
   23MOL   H51417278   1.590   2.006   1.461 -0.6570 -0.1650 -0.3352
   23MOL   H51517279   1.647   2.015   1.308 -0.1219  0.8929  0.6087
   23MOL   H51617280   1.542   1.757   1.431 -2.4340 -1.5875 -1.2971
   23MOL   H51717281   1.616   1.759   1.272 -0.1388  0.3918 -0.3147
   23MOL   H51817282   1.371   1.926   1.347  0.2314 -0.6885  0.0974
   23MOL   H51917283   1.372   1.781   1.265  0.9446  0.1960 -1.4016
   23MOL   H52017284   1.306   2.052   1.180 -0.1816  0.9556  0.2823
   23MOL   H52117285   1.423   2.161   0.986  1.0035 -1.2836  0.3819
   23MOL   H52217286   1.397   2.020   0.893 -0.3579 -0.1067  0.2006
   23MOL   H52317287   1.163   2.051   0.902  1.7019 -1.3111 -0.9138
   23MOL   H52417288   1.170   2.193   0.995  0.0141 -0.7738  0.9371
   23MOL   H52517289   1.323   2.176   0.723  2.0881 -0.1115  1.4502
   23MOL   H52617290   1.295   2.317   0.825  0.5087  0.3865 -0.5201
   23MOL   H52717291   1.075   2.165   0.675  1.3985 -0.7118 -1.3162
   23MOL   H52817292   1.053   2.295   0.792 -0.7220  0.0269 -0.6237
   23MOL   H52917293   1.198   2.447   0.660  0.0387 -0.2053  1.6740
   23MOL   H53017294   1.223   2.319   0.550  0.6441 -0.4807  0.5758
   23MOL   H53117295   0.955   2.328   0.531  3.0686 -1.7579 -2.6732
   23MOL   H53217296   1.048   2.434   0.440  1.5651  0.7384  1.6751
   23MOL   H53317297   0.893   2.479   0.695 -0.1033  1.5070  1.2889
   23MOL   C53417298   0.915   2.640   0.585 -0.0381  0.0917 -0.3450
   23MOL   O53517299   0.972   2.700   0.488  0.3558 -0.0372 -0.0424
   23MOL   C53617300   0.802   2.702   0.657  0.1065 -0.2323  0.0575
   23MOL   C53717301   0.851   2.790   0.776 -0.1824 -0.0824  0.3395
   23MOL   C53817302   0.920   2.717   0.898  0.2000  0.5730  0.1574
   23MOL   C53917303   0.844   2.593   0.946 -0.3206  0.2136 -0.2380
   23MOL   C54017304   0.914   2.489   1.039  0.3116 -0.7528 -0.5421
   23MOL   O54117305   1.006   2.415   0.998 -0.5963 -0.2849 -0.1823
   23MOL   N54217306   0.876   2.491   1.163 -0.1976  0.1679  0.5010
   23MOL   C54317307   0.933   2.409   1.273  0.6684  0.4817  0.0719
   23MOL   C54417308   0.957   2.493   1.397 -0.3531 -0.3284  0.7028
   23MOL   C54517309   1.001   2.404   1.513 -0.1768  0.3494  0.6689
   23MOL   C54617310   1.056   2.487   1.631 -0.1726 -0.1855  0.3803
   23MOL   C54717311   1.128   2.407   1.733 -0.1926  0.6855 -0.0393
   23MOL   C54817312   1.049   2.295   1.800 -0.4246 -0.1636 -0.1369
   23MOL   N54917313   1.074   2.175   1.730  0.2993  0.1370  0.1272
   23MOL   H55017314   0.745   2.763   0.587 -0.7374 -1.0672  0.0056
   23MOL   H55117315   0.731   2.624   0.686 -0.8788  0.7856  0.3859
   23MOL   H55217316   0.919   2.871   0.748 -0.0718 -0.4009 -0.3368
   23MOL   H55317317   0.767   2.844   0.820  0.5768  1.5331 -0.1792
   23MOL   H55417318   0.936   2.783   0.983 -0.6540  0.2499  0.5679
   23MOL   H55517319   1.022   2.689   0.868 -0.7259 -2.9995  0.0925
   23MOL   H55617320   0.813   2.532   0.860 -0.2721  2.5164 -1.9421
   23MOL   H55717321   0.746   2.624   0.982 -0.0723 -0.8513  1.3772
   23MOL   H55817322   0.798   2.551   1.187 -0.0618  0.4436  0.2597
   23MOL   H55917323   0.876   2.318   1.295  0.6840 -0.1632 -2.3799
   23MOL   H56017324   1.028   2.363   1.242  1.3363  1.2087  1.0263
   23MOL   H56117325   1.024   2.575   1.373 -0.3975 -1.0701 -2.1048
   23MOL   H56217326   0.857   2.525   1.428 -1.3447 -3.3373  0.7575
   23MOL   H56317327   1.078   2.336   1.476  0.4040  1.1484  0.4014
   23MOL   H56417328   0.928   2.330   1.546 -0.6445 -0.0836 -1.2622
   23MOL   H56517329   1.135   2.549   1.589  0.0458  0.1147  1.2284
   23MOL   H56617330   0.979   2.553   1.671  1.1299  2.5561 -1.4842
   23MOL   H56717331   1.213   2.364   1.679  1.7011  1.7888  2.0060
   23MOL   H56817332   1.174   2.470   1.809  0.6042  1.5052 -1.1795
   23MOL   H56917333   0.942   2.311   1.788 -0.0361 -0.0098 -4.0097
   23MOL   H57017334   1.071   2.278   1.906  0.8869  1.4126 -0.1312
   23MOL   H57117335   1.011   2.147   1.656  2.5144 -1.2462 -1.2829
   23MOL   C57217336   1.182   2.102   1.745  0.2860 -0.4989  0.3979
   23MOL   O57317337   1.268   2.121   1.834  0.0304 -0.9855 -0.3934
   23MOL   C57417338   1.197   1.998   1.637  0.0752  0.0675  0.3067
   23MOL   C57517339   1.289   1.876   1.687  0.1261  0.7485 -0.3947
   23MOL   C57617340   1.228   1.787   1.804  0.9580 -0.6810  0.2962
   23MOL   C57717341   1.330   1.681   1.852  0.9189  0.0939 -0.0184
   23MOL   C57817342   1.302   1.609   1.990  0.6223  0.2450  0.6537
   23MOL   O57917343   1.193   1.614   2.048 -0.5932 -0.6722 -0.3915
   23MOL   N58017344   1.403   1.534   2.034 -0.0237 -0.3214 -0.3413
   23MOL   C58117345   1.409   1.459   2.164 -0.2316 -0.5172  1.1061
   23MOL   C58217346   1.320   1.337   2.156 -0.2178  0.1169  0.1764
   23MOL   C58317347   1.279   1.279   2.295 -0.0891 -0.2385 -0.2849
   23MOL   C58417348   1.227   1.140   2.267 -0.6550  0.6059  0.5823
   23MOL   C58517349   1.217   1.048   2.393  0.0227 -0.9695  0.3558
   23MOL   C58617350   1.119   0.935   2.383 -0.6635 -0.9468  0.2009
   23MOL   N58717351   1.116   0.882   2.248 -0.8559 -0.0792 -0.1605
   23MOL   H58817352   1.099   1.954   1.618 -1.1346  2.7100  0.3090
   23MOL   H58917353   1.215   2.047   1.541 -1.5719 -2.0412 -1.1186
   23MOL   H59017354   1.317   1.813   1.602 -0.2785  1.2172 -0.8787
   23MOL   H59117355   1.386   1.911   1.722 -0.4642 -0.3743  2.4588
   23MOL   H59217356   1.134   1.739   1.778  0.4308  1.4074 -1.7116
   23MOL   H59317357   1.217   1.846   1.895 -1.4835 -1.7974  0.7476
   23MOL   H59417358   1.432   1.719   1.855  1.8589 -2.3442 -0.0197
   23MOL   H59517359   1.341   1.601   1.778 -2.7939  1.5316 -2.2385
   23MOL   H59617360   1.487   1.529   1.978  0.2532 -0.5332  0.0856
   23MOL   H59717361   1.508   1.434   2.202  1.2901  0.4767 -1.9957
   23MOL   H59817362   1.374   1.534   2.235  0.2074 -0.6464  1.4576
   23MOL   H59917363   1.230   1.363   2.101  0.2889  0.9247 -0.2846
   23MOL   H60017364   1.371   1.261   2.095  1.4898  0.3720  1.2434
   23MOL   H60117365   1.197   1.339   2.334 -1.6826 -0.3888 -3.2863
   23MOL   H60217366   1.366   1.284   2.361 -0.7087 -1.3287  0.6427
   23MOL   H60317367   1.126   1.157   2.229 -0.2785  0.6572 -0.4215
   23MOL   H60417368   1.286   1.089   2.191 -1.4634  3.1128 -1.8341
   23MOL   H60517369   1.319   1.020   2.421  0.7916 -1.2127 -2.5118
   23MOL   H60617370   1.180   1.114   2.471 -0.0713 -1.0015  0.3373
   23MOL   H60717371   1.024   0.978   2.416 -1.5402 -1.4172 -1.6779
   23MOL   H60817372   1.159   0.856   2.447 -0.4108 -1.9606 -1.1989
   23MOL   H60917373   1.204   0.846   2.215  0.2984  1.0029  1.6052
   23MOL   C61017374   1.017   0.890   2.151  0.1023 -0.3604  1.5296
   23MOL   O61117375   0.910   0.942   2.175 -0.2695  0.0224  0.6705
   23MOL   C61217376   1.047   0.835   2.016  0.3459  0.7494  0.1480
   23MOL   C61317377   0.975   0.917   1.908 -0.1713  0.1741 -0.5483
   23MOL   C61417378   1.012   0.879   1.767  0.5558 -0.0522 -0.1485
   23MOL   C61517379   0.907   0.774   1.710 -0.0978  0.1328 -0.6144
   23MOL   C61617380   0.946   0.714   1.573 -0.5483  0.4928 -0.5598
   23MOL   O61717381   0.886   0.739   1.469 -0.3407  0.2484 -0.2720
   23MOL   N61817382   1.049   0.633   1.575 -0.0226  0.3088 -0.1315
   23MOL   C61917383   1.091   0.560   1.464  0.0193 -0.1237  0.4299
   23MOL   C62017384   1.171   0.649   1.360  0.2275 -0.5095  0.2204
   23MOL   C62117385   1.283   0.738   1.429  0.5800 -0.0357  0.5328
   23MOL   C62217386   1.385   0.815   1.334  0.4120  0.0165  0.1693
   23MOL   C62317387   1.487   0.902   1.411  0.0760  0.4522  0.5452
   23MOL   C62417388   1.603   0.943   1.326 -0.1195 -0.7347 -0.1423
   23MOL   N62517389   1.704   1.015   1.406 -0.7714 -0.3041  0.2068
   23MOL   H62617390   1.154   0.818   2.009 -0.1136 -1.8260 -0.9535
   23MOL   H62717391   1.008   0.734   2.004 -1.4967  1.6522 -1.9485
   23MOL   H62817392   0.867   0.916   1.921 -0.2454 -3.8650 -0.6830
   23MOL   H62917393   1.005   1.019   1.932 -1.8149  0.8653 -1.3411
   23MOL   H63017394   1.118   0.855   1.760  0.3743 -0.3060 -2.2876
   23MOL   H63117395   0.982   0.963   1.704  0.9050  1.2979  1.4327
   23MOL   H63217396   0.802   0.803   1.707 -0.3320 -0.5386  0.6258
   23MOL   H63317397   0.913   0.692   1.782 -3.2784 -2.0008 -2.6528
   23MOL   H63417398   1.090   0.608   1.664 -0.3035  1.1669  0.2496
   23MOL   H63517399   1.162   0.484   1.496  2.5777  1.4564 -1.3094
   23MOL   H63617400   1.013   0.492   1.428  0.4624 -0.8709  0.8804
   23MOL   H63717401   1.221   0.576   1.297  0.4243 -0.1621 -0.0232
   23MOL   H63817402   1.102   0.709   1.302  0.0321 -0.0988  0.8688
   23MOL   H63917403   1.340   0.676   1.497 -3.4274 -2.6000  1.7455
   23MOL   H64017404   1.237   0.817   1.489  1.0815  0.2392  0.5511
   23MOL   H64117405   1.439   0.747   1.269 -2.3056 -1.3035 -0.7489
   23MOL   H64217406   1.324   0.878   1.269  2.5403  1.1471 -0.7891
   23MOL   H64317407   1.446   0.992   1.456  3.6405  1.9843  0.9221
   23MOL   H64417408   1.527   0.852   1.499  1.8783  0.7277 -0.0805
   23MOL   H64517409   1.574   1.019   1.253 -1.9006 -0.5960  0.6659
   23MOL   H64617410   1.649   0.864   1.267  2.3515  1.4486 -1.2131
   23MOL   H64717411   1.690   1.114   1.421  2.1312  0.2873 -0.6737
   23MOL   C64817412   1.824   0.970   1.441  0.0280 -0.0965 -0.1493
   23MOL   O64917413   1.869   0.868   1.399 -0.3345 -0.6364 -0.8705
   23MOL   C65017414   1.904   1.059   1.526  0.2634 -0.0304 -0.1245
   23MOL   C65117415   1.916   1.029   1.677 -0.3542 -0.2591  0.7517
   23MOL   C65217416   1.988   0.892   1.715  0.3322 -0.4314  0.5933
   23MOL   C65317417   2.025   0.870   1.864  0.1852 -0.3495  0.0573
   23MOL   C65417418   1.905   0.888   1.962 -1.1636 -0.3786  0.4249
   23MOL   O65517419   1.797   0.834   1.944  0.1616  0.0664  0.7609
   23MOL   N65617420   1.928   0.985   2.047  0.1142 -0.4374  0.3298
   23MOL   C65717421   1.819   1.017   2.143  0.3720 -0.3457  0.3021
   23MOL   C65817422   1.846   1.147   2.226  0.6793 -0.2033  0.2643
   23MOL   C65917423   1.710   1.209   2.273  0.0197 -0.4064  0.2422
   23MOL   C66017424   1.638   1.138   2.387 -0.0665  0.1504 -0.1798
   23MOL   C66117425   1.719   1.144   2.514 -0.3009 -0.5581  1.2509
   23MOL   C66217426   1.669   1.038   2.611  0.6669  0.6874 -0.3353
   23MOL   N66317427   1.716   1.067   2.752  0.0172 -0.0822 -0.9831
   23MOL   H66417428   2.006   1.062   1.486  1.2117  1.0340  2.2617
   23MOL   H66517429   1.858   1.156   1.506  0.5988  0.4099  1.1567
   23MOL   H66617430   1.978   1.106   1.723  1.2624 -1.6845  1.0099
   23MOL   H66717431   1.813   1.035   1.711  0.2428  2.3781  2.2049
   23MOL   H66817432   2.081   0.885   1.659 -0.0111  0.1263 -0.0533
   23MOL   H66917433   1.918   0.815   1.685  0.5218 -0.0737 -0.8047
   23MOL   H67017434   2.110   0.929   1.899 -0.6552 -0.3103  2.1066
   23MOL   H67117435   2.060   0.769   1.885 -2.6211 -1.6510 -1.2153
   23MOL   H67217436   2.023   1.010   2.068  0.4646  0.0567 -1.7491
   23MOL   H67317437   1.717   1.016   2.105  0.0086 -0.0254  1.2615
   23MOL   H67417438   1.814   0.938   2.219 -1.1198 -1.9714 -1.4204
   23MOL   H67517439   1.919   1.138   2.306  0.0265  1.3013  1.0503
   23MOL   H67617440   1.898   1.227   2.174  0.7669 -0.1047  0.5015
   23MOL   H67717441   1.640   1.209   2.189 -0.3431  3.0839  0.4614
   23MOL   H67817442   1.742   1.311   2.297 -0.0784 -0.6298  1.3449
   23MOL   H67917443   1.539   1.177   2.410 -0.6054 -0.9552 -0.5650
   23MOL   H68017444   1.623   1.036   2.350 -0.4455  0.4328 -0.8153
   23MOL   H68117445   1.823   1.114   2.499  0.2487  2.6398 -1.9217
   23MOL   H68217446   1.710   1.244   2.556 -0.4456 -0.5083  1.1016
   23MOL   H68317447   1.703   0.938   2.586 -0.6247  0.4462 -1.1805
   23MOL   H68417448   1.560   1.030   2.606  0.7679 -2.4661  1.6376
   23MOL   H68517449   1.763   1.156   2.765  0.8081 -0.4415 -1.3807
   23MOL   C68617450   1.682   1.001   2.862  0.3074  0.2694  0.4586
   23MOL   O68717451   1.612   0.897   2.864  0.0551  0.0052 -0.1787
   23MOL   C68817452   1.726   1.072   2.998  0.2978  0.0687  0.0554
   23MOL   C68917453   1.650   1.026   3.131 -0.1379  0.1985 -0.2620
   23MOL   C69017454   1.633   1.125   3.254 -0.1086  0.5758 -0.0547
   23MOL   C69117455   1.764   1.193   3.313 -1.0715  0.1844 -0.5515
   23MOL   C69217456   1.866   1.092   3.360  0.2852 -0.8796  0.5867
   23MOL   O69317457   1.847   0.975   3.399 -0.4043 -0.0885 -0.1638
   23MOL   N69417458   1.988   1.143   3.344 -0.1994 -0.1240  0.3493
   23MOL   C69517459   2.103   1.051   3.353  0.4664  0.3122  0.3156
   23MOL   C69617460   2.202   1.083   3.466  0.3257  0.4638  0.2597
   23MOL   C69717461   2.330   1.001   3.481  0.2906 -0.2256 -0.1181
   23MOL   C69817462   2.433   1.056   3.381  0.5298 -0.0530 -1.5303
   23MOL   C69917463   2.569   0.990   3.387  0.1932  0.2184 -0.8834
   23MOL   C70017464   2.567   0.842   3.358  0.1453  0.2822  0.1441
   23MOL   N70117465   2.694   0.777   3.394 -1.2616 -0.1084  0.1072
   23MOL   H70217466   1.835   1.075   3.005  0.4095 -0.8470 -1.2793
   23MOL   H70317467   1.698   1.177   2.987  1.4484  0.1788 -1.9494
   23MOL   H70417468   1.550   0.993   3.101 -0.8456  0.7814  1.4388
   23MOL   H70517469   1.697   0.933   3.162  1.5092  1.3617  0.8092
   23MOL   H70617470   1.588   1.063   3.331  0.3480 -0.9036 -0.9649
   23MOL   H70717471   1.553   1.197   3.234 -0.7452  0.1998  1.0653
   23MOL   H70817472   1.748   1.250   3.404  0.6841 -0.7873  0.3887
   23MOL   H70917473   1.800   1.264   3.238 -2.5408  0.2931 -1.1717
   23MOL   H71017474   2.000   1.221   3.281 -0.2261  1.3242  2.1283
   23MOL   H71117475   2.073   0.947   3.367 -2.4688  0.9938 -0.5230
   23MOL   H71217476   2.153   1.045   3.256  0.9150 -0.7776  0.6124
   23MOL   H71317477   2.220   1.190   3.479 -1.7910  0.8902 -0.2662
   23MOL   H71417478   2.139   1.076   3.555 -0.4547  1.2099 -0.2263
   23MOL   H71517479   2.298   0.901   3.454  1.4344 -1.7957  4.0111
   23MOL   H71617480   2.369   0.994   3.582 -1.7759  0.2381  0.7270
   23MOL   H71717481   2.392   1.057   3.280 -1.0726 -1.4004 -0.9193
   23MOL   H71817482   2.459   1.159   3.404  1.9786 -0.1402 -2.6685
   23MOL   H71917483   2.636   1.041   3.317  0.7493  0.8927  0.1232
   23MOL   H72017484   2.620   1.016   3.479 -0.2943 -0.9650 -0.2717
   23MOL   H72117485   2.553   0.830   3.251  0.6070 -4.1791  0.4707
   23MOL   H72217486   2.484   0.791   3.407 -0.6821 -0.3706 -1.8897
   23MOL   H72317487   2.772   0.784   3.330  0.1451  0.8998  1.8751
   23MOL   C72417488   2.714   0.670   3.478 -0.1077 -0.7505 -0.3597
   23MOL   O72517489   2.619   0.623   3.541 -0.6033 -0.2053 -0.2515
   23MOL   C72617490   2.855   0.606   3.482  0.0542  0.3307  0.5494
   23MOL   C72717491   2.859   0.459   3.411  0.0274 -0.1507 -0.1162
   23MOL   C72817492   2.805   0.451   3.266 -1.4972 -0.8424  0.0254
   23MOL   C72917493   2.855   0.553   3.152  0.0431 -0.2638 -0.3608
   23MOL   C73017494   3.008   0.568   3.143  0.9548  0.7281 -0.4521
   23MOL   O73117495   3.084   0.478   3.183 -0.1968  0.0763  0.0425
   23MOL   N73217496   3.061   0.687   3.102  0.0338  0.3618  0.2948
   23MOL   C73317497   3.200   0.716   3.093  0.4999 -0.1983  0.0640
   23MOL   C73417498   3.253   0.688   2.950  0.1118  0.7196  0.6745
   23MOL   C73517499   3.400   0.706   2.946  0.1372 -0.1386  0.1224
   23MOL   C73617500   3.461   0.670   2.816  0.2428  0.1824  1.0397
   23MOL   C73717501   3.427   0.754   2.693 -0.2128 -0.5340  0.2028
   23MOL   C73817502   3.485   0.700   2.558  0.0409 -0.9128  0.1246
   23MOL   N73917503   3.433   0.799   2.459  0.2942 -0.0636 -0.2469
   23MOL   H74017504   2.933   0.678   3.456  0.6382 -0.1705  0.8996
   23MOL   H74117505   2.879   0.590   3.587 -2.0623  0.1178  1.0215
   23MOL   H74217506   2.964   0.431   3.405  0.2813 -0.2068  3.5117
   23MOL   H74317507   2.798   0.392   3.471  0.1242 -0.0319  0.1147
   23MOL   H74417508   2.697   0.466   3.270 -1.5253 -0.9036 -0.4778
   23MOL   H74517509   2.820   0.347   3.239 -0.1835 -0.1859 -1.8914
   23MOL   H74617510   2.799   0.647   3.155 -0.6080 -0.6467 -0.3265
   23MOL   H74717511   2.825   0.506   3.058  0.2437  0.3773 -0.7520
   23MOL   H74817512   2.993   0.761   3.087  2.0465  2.1837 -0.1681
   23MOL   H74917513   3.229   0.816   3.126  2.7874 -0.8642  0.1906
   23MOL   H75017514   3.262   0.654   3.158 -0.0812 -0.9719 -0.1092
   23MOL   H75117515   3.229   0.588   2.914 -0.2907  1.2754 -0.6216
   23MOL   H75217516   3.192   0.747   2.882 -0.5713  0.7564  1.3095
   23MOL   H75317517   3.429   0.636   3.025 -0.7665 -0.1798  0.4197
   23MOL   H75417518   3.446   0.803   2.963 -0.4063 -0.1431  1.6512
   23MOL   H75517519   3.569   0.673   2.833  0.0624 -0.9131  2.4566
   23MOL   H75617520   3.438   0.565   2.793  2.7567  0.6043 -4.4297
   23MOL   H75717521   3.319   0.760   2.682  0.0127  0.4918 -1.5942
   23MOL   H75817522   3.454   0.859   2.705 -4.1362  0.5501  0.2394
   23MOL   H75917523   3.458   0.598   2.529  0.5855 -0.6372 -1.4039
   23MOL   H76017524   3.594   0.704   2.570  0.2172 -0.7609 -1.4203
   23MOL   H76117525   3.484   0.797   2.372  0.3715 -0.7298 -0.1860
   23MOL   H76217526   3.461   0.888   2.498  0.0227  0.2664 -0.7944
   24MOL     C117527   3.862   1.540   3.893 -0.3218 -0.1356 -0.4063
   24MOL     O217528   3.802   1.542   4.001  0.5212 -0.5724  0.2661
   24MOL     C317529   3.986   1.456   3.867 -0.4771  0.1883  0.2010
   24MOL     C417530   4.073   1.462   3.993 -0.1395 -0.0519 -0.0962
   24MOL     C517531   4.221   1.433   3.964 -0.7244  0.8551  0.8423
   24MOL     C617532   4.312   1.438   4.100 -0.0889 -0.2216  0.4206
   24MOL     C717533   4.308   1.583   4.153  0.2008  0.3551  0.3922
   24MOL     O817534   4.299   1.672   4.079  0.2307  0.1445 -0.3875
   24MOL     N917535   4.330   1.606   4.281 -0.3786  0.7472 -0.0066
   24MOL    C1017536   4.324   1.732   4.349  0.1757 -0.3837 -0.1091
   24MOL    C1117537   4.184   1.789   4.346  0.3035  0.1830 -0.2976
   24MOL    C1217538   4.092   1.717   4.444  0.3193 -0.0160 -0.4389
   24MOL    C1317539   3.939   1.734   4.417 -0.2499 -0.1278  0.3273
   24MOL    C1417540   3.889   1.637   4.298 -0.4688  0.1825 -0.1885
   24MOL    C1517541   3.862   1.495   4.339  0.7250 -0.1682  0.1706
   24MOL    N1617542   3.807   1.412   4.225  0.3157 -0.6259  0.2503
   24MOL    H1717543   3.961   1.353   3.840  0.6490  0.1201 -0.5778
   24MOL    H1817544   4.050   1.488   3.785  1.8093  0.0445  1.8801
   24MOL    H1917545   4.069   1.566   4.025 -0.3860  0.0087 -0.3259
   24MOL    H2017546   4.039   1.392   4.069 -1.4736  0.8680  0.1567
   24MOL    H2117547   4.259   1.495   3.883  1.6341  1.7758  2.5848
   24MOL    H2217548   4.227   1.337   3.913 -0.6625  1.2465  0.1134
   24MOL    H2317549   4.417   1.413   4.084 -0.4075 -1.5462  0.3550
   24MOL    H2417550   4.275   1.365   4.171 -2.2430  0.1476 -0.2900
   24MOL    H2517551   4.326   1.522   4.337  1.1758 -0.4927 -1.7178
   24MOL    H2617552   4.352   1.714   4.453  0.9441  1.4564  0.0343
   24MOL    H2717553   4.389   1.807   4.304 -1.7012  0.0458 -2.1703
   24MOL    H2817554   4.187   1.896   4.365 -1.8982  0.0757  0.7536
   24MOL    H2917555   4.136   1.772   4.250 -0.5705 -0.6300  0.2769
   24MOL    H3017556   4.122   1.761   4.539  0.5950 -1.4556  0.1521
   24MOL    H3117557   4.122   1.613   4.455 -0.5728 -0.1591  0.6380
   24MOL    H3217558   3.871   1.717   4.501 -0.8967 -0.9197 -0.3514
   24MOL    H3317559   3.911   1.835   4.389  0.9488  0.7239  2.0929
   24MOL    H3417560   3.802   1.677   4.245  0.0356  0.6900 -0.6302
   24MOL    H3517561   3.965   1.631   4.220 -0.3113 -4.8839  0.1658
   24MOL    H3617562   3.796   1.500   4.426  0.4979  1.6483 -0.0936
   24MOL    H3717563   3.955   1.447   4.369  0.8089  0.1299  0.3954
   24MOL    H3817564   3.814   1.453   4.133  1.6122 -0.0240  0.6039
   24MOL    H3917565   3.835   1.592   3.800 -2.3758 -0.2900  0.0740
   24MOL    C4017566   3.719   1.315   4.256  0.8353  0.0330  0.3171
   24MOL    O4117567   3.707   1.261   4.372  0.5634 -0.4520  1.2181
   24MOL    C4217568   3.633   1.257   4.148 -0.2241 -0.2658  0.8259
   24MOL    C4317569   3.671   1.110   4.119 -0.0130 -0.6982  0.3249
   24MOL    C4417570   3.819   1.081   4.075  0.0930 -0.3942 -0.2023
   24MOL    C4517571   3.850   0.936   4.085  0.4267  0.0896 -0.4605
   24MOL    C4617572   3.785   0.847   3.979  0.1791 -0.2933  0.6872
   24MOL    O4717573   3.795   0.876   3.860 -0.5367 -0.1526 -0.8012
   24MOL    N4817574   3.717   0.743   4.029  0.9597 -0.7319  0.0787
   24MOL    C4917575   3.644   0.648   3.938 -0.0715 -0.2611  0.3193
   24MOL    C5017576   3.631   0.514   4.012 -0.1152  0.0296  0.5210
   24MOL    C5117577   3.763   0.462   4.071 -0.1270  1.0699  0.0371
   24MOL    C5217578   3.749   0.342   4.165 -0.2108 -0.3881 -0.4787
   24MOL    C5317579   3.878   0.290   4.222 -0.1432 -0.2978  0.8723
   24MOL    C5417580   3.831   0.189   4.330 -0.0812  0.2409 -0.6464
   24MOL    N5517581   3.936   0.157   4.423 -0.4228 -0.4039 -0.2936
   24MOL    H5617582   3.537   1.255   4.200  0.9897 -0.8420  3.0536
   24MOL    H5717583   3.608   1.323   4.065  2.9196  1.7623  1.4292
   24MOL    H5817584   3.644   1.052   4.208  0.2075 -0.3009  0.6542
   24MOL    H5917585   3.602   1.079   4.041  0.3210  2.7986 -1.4569
   24MOL    H6017586   3.897   1.133   4.131  0.6424  0.4378 -1.7404
   24MOL    H6117587   3.820   1.116   3.972 -1.7799 -0.7497 -0.3601
   24MOL    H6217588   3.829   0.901   4.186  0.4790 -1.2436 -0.8975
   24MOL    H6317589   3.958   0.922   4.091  0.1682 -1.9883 -0.3020
   24MOL    H6417590   3.724   0.725   4.128 -0.3447  2.5964  0.8437
   24MOL    H6517591   3.547   0.689   3.908 -1.1965 -1.8633  1.6495
   24MOL    H6617592   3.696   0.640   3.843 -1.9104  0.5233 -0.7782
   24MOL    H6717593   3.553   0.519   4.089  1.0499 -0.8442  1.7922
   24MOL    H6817594   3.591   0.436   3.948  2.8176 -2.3332  1.4725
   24MOL    H6917595   3.825   0.542   4.111  0.9232  1.3065 -2.0053
   24MOL    H7017596   3.816   0.425   3.984 -0.7471 -0.3915  0.2751
   24MOL    H7117597   3.692   0.379   4.249 -1.2356 -1.3314 -0.7564
   24MOL    H7217598   3.687   0.271   4.111 -0.8132 -1.0144  1.0289
   24MOL    H7317599   3.946   0.251   4.146 -0.1459  0.2991  0.5645
   24MOL    H7417600   3.921   0.373   4.277  0.3360 -0.4463  0.7265
   24MOL    H7517601   3.783   0.096   4.298  0.6061  0.0187 -1.0334
   24MOL    H7617602   3.751   0.240   4.384 -1.0837 -1.9239  0.0082
   24MOL    H7717603   3.940   0.224   4.498 -1.8954 -0.7584  0.1258
   24MOL    C7817604   4.014   0.049   4.426 -0.1599  0.1824 -0.2110
   24MOL    O7917605   3.998   7.667   4.341  0.1618 -0.0202  0.5331
   24MOL    C8017606   4.125   0.045   4.537  0.1569  0.4403 -0.9281
   24MOL    C8117607   4.126   7.620   4.624 -0.4053 -0.0158 -0.0803
   24MOL    C8217608   4.047   7.619   4.753  1.2237  0.2197 -0.1137
   24MOL    C8317609   3.902   7.668   4.728  0.6431 -0.1262 -0.4260
   24MOL    C8417610   3.795   7.654   4.839  0.0913 -0.0804 -0.4407
   24MOL    O8517611   3.791   0.028   4.932 -0.7481  0.2472 -0.4213
   24MOL    N8617612   3.698   7.563   4.821  0.4418  0.6106 -0.0798
   24MOL    C8717613   3.581   7.555   4.912 -0.8976  0.5562  0.3845
   24MOL    C8817614   3.481   7.442   4.866  0.4689  0.6705 -0.5993
   24MOL    C8917615   3.433   7.473   4.724  0.0222  0.7131 -0.0139
   24MOL    C9017616   3.344   7.351   4.667  0.6337  0.2791 -0.3868
   24MOL    C9117617   3.294   7.364   4.519 -0.1763 -0.4150  0.0956
   24MOL    C9217618   3.219   7.495   4.496  0.3783 -0.1272  0.4132
   24MOL    N9317619   3.133   7.495   4.381 -0.2713  0.3851 -0.1943
   24MOL    H9417620   4.218   0.038   4.481  0.3686  3.0445 -0.9943
   24MOL    H9517621   4.142   0.133   4.599  0.3540 -0.6041  0.5253
   24MOL    H9617622   4.092   7.530   4.572 -0.3184 -0.2415  0.2475
   24MOL    H9717623   4.230   7.609   4.654 -0.6498 -1.3777  0.3078
   24MOL    H9817624   4.085   7.686   4.830 -0.3263  0.1949  0.7037
   24MOL    H9917625   4.056   7.517   4.791  1.5757  0.3750  0.2209
   24MOL   H10017626   3.858   7.626   4.638 -1.2841  0.4080  0.2570
   24MOL   H10117627   3.895   0.065   4.700  0.3264 -0.3306 -1.1195
   24MOL   H10217628   3.712   7.486   4.757  0.4782  0.7331 -0.2179
   24MOL   H10317629   3.616   7.523   5.009 -0.8536  1.5778  0.7107
   24MOL   H10417630   3.539   7.654   4.928  0.0918  1.0342  0.0694
   24MOL   H10517631   3.539   7.351   4.853  0.6586  0.9986 -2.2187
   24MOL   H10617632   3.412   7.408   4.943  1.0349  1.2590  0.1790
   24MOL   H10717633   3.517   7.470   4.656  1.9152  0.8704  2.2550
   24MOL   H10817634   3.374   7.565   4.719  0.2468  0.9977  2.0752
   24MOL   H10917635   3.404   7.261   4.663  2.6454  1.5456  0.4073
   24MOL   H11017636   3.255   7.340   4.729 -1.6011  1.7618 -3.1533
   24MOL   H11117637   3.377   7.357   4.449 -0.7123  0.8058 -0.6871
   24MOL   H11217638   3.222   7.283   4.507 -0.8919 -0.0365  1.7348
   24MOL   H11317639   3.290   7.577   4.482 -0.8265  0.6873 -1.0795
   24MOL   H11417640   3.153   7.524   4.578 -0.4983  1.5376 -0.8514
   24MOL   H11517641   3.034   7.510   4.393 -0.3572  0.6573 -1.1806
   24MOL   C11617642   3.178   7.496   4.256  0.7649  0.5704 -0.3010
   24MOL   O11717643   3.298   7.503   4.231  0.5551 -0.1132 -0.1114
   24MOL   C11817644   3.083   7.484   4.136 -0.1110 -0.3732 -0.1306
   24MOL   C11917645   2.967   7.383   4.154 -0.3975  0.2614  0.1163
   24MOL   C12017646   3.008   7.232   4.137  0.2819  0.1060 -0.2840
   24MOL   C12117647   2.882   7.141   4.130  0.4989  0.2934  0.6367
   24MOL   C12217648   2.931   6.992   4.129 -0.1839  0.1940 -0.5923
   24MOL   O12317649   3.038   6.954   4.079  0.1671 -0.1276  0.7471
   24MOL   N12417650   2.846   6.897   4.181  0.4699  0.0401  0.3767
   24MOL   C12517651   2.881   6.765   4.232  0.1870  0.3173  0.2680
   24MOL   C12617652   2.802   6.734   4.358  0.1417 -0.4102 -0.5367
   24MOL   C12717653   2.822   6.601   4.433  0.0321  0.0139 -0.2293
   24MOL   C12817654   2.742   6.595   4.571  0.2763  0.4349 -0.4659
   24MOL   C12917655   2.592   6.599   4.554  0.3037  0.1878 -0.4156
   24MOL   C13017656   2.520   6.641   4.688  0.3870 -0.6843  0.2554
   24MOL   N13117657   2.385   6.698   4.662 -0.1053 -0.7356  0.4942
   24MOL   H13217658   3.052   7.584   4.105 -0.6539 -1.0163 -1.7097
   24MOL   H13317659   3.143   7.453   4.049  1.2565  1.0972  0.2711
   24MOL   H13417660   2.917   7.401   4.250  1.5153  0.2414  1.1407
   24MOL   H13517661   2.899   7.413   4.074  0.7332 -0.2541 -1.0548
   24MOL   H13617662   3.065   7.197   4.223  0.1889  0.6378 -0.0002
   24MOL   H13717663   3.068   7.220   4.047  0.7522  1.0477 -0.1036
   24MOL   H13817664   2.825   7.165   4.041  1.6685  0.9231  0.0421
   24MOL   H13917665   2.814   7.154   4.214 -0.3614  0.7308 -0.1218
   24MOL   H14017666   2.753   6.932   4.197 -0.0693 -1.0996 -0.2202
   24MOL   H14117667   2.835   6.702   4.155 -2.8519  0.6858  1.7197
   24MOL   H14217668   2.987   6.740   4.239  0.4556  0.8821 -1.5061
   24MOL   H14317669   2.828   6.811   4.431 -0.4295  0.0336 -0.7908
   24MOL   H14417670   2.694   6.746   4.347  0.3294  2.5174  0.2584
   24MOL   H14517671   2.928   6.583   4.451 -0.1057 -1.4021 -0.7882
   24MOL   H14617672   2.784   6.519   4.372 -0.4196 -0.8828  1.2344
   24MOL   H14717673   2.774   6.506   4.625 -2.4921 -2.4163 -3.2641
   24MOL   H14817674   2.777   6.678   4.633  0.0554 -0.6492  1.1379
   24MOL   H14917675   2.554   6.668   4.479 -1.4555 -0.3497 -0.0559
   24MOL   H15017676   2.556   6.504   4.515 -0.8393  0.2905  0.3569
   24MOL   H15117677   2.573   6.717   4.745 -2.9339  2.0514 -0.1079
   24MOL   H15217678   2.523   6.560   4.761  2.1224  0.4969  1.5170
   24MOL   H15317679   2.355   6.719   4.568  0.1673  0.7398  0.7204
   24MOL   C15417680   2.295   6.711   4.755 -0.1415  0.1724  0.3001
   24MOL   O15517681   2.321   6.685   4.877 -0.1680  0.3779 -0.3091
   24MOL   C15617682   2.159   6.764   4.711  0.1002  0.5734 -0.9574
   24MOL   C15717683   2.072   6.839   4.815  0.2311 -0.0560  0.0174
   24MOL   C15817684   2.132   6.975   4.863  0.1981  0.6079 -0.2615
   24MOL   C15917685   2.061   7.046   4.983  0.4000 -0.8474  0.1942
   24MOL   C16017686   2.082   6.992   5.121  0.4828  0.7975 -0.3082
   24MOL   O16117687   2.046   6.880   5.163  0.1969  0.0235 -0.4926
   24MOL   N16217688   2.162   7.073   5.192  0.0121  0.6375  0.2336
   24MOL   C16317689   2.215   7.058   5.328  0.0369 -0.7601 -0.4741
   24MOL   C16417690   2.105   7.028   5.435 -0.6905 -0.3174 -0.2606
   24MOL   C16517691   2.147   7.020   5.583 -0.0479 -0.4830 -0.4959
   24MOL   C16617692   2.171   7.162   5.657  0.1979 -0.0330  0.1282
   24MOL   C16717693   2.202   7.144   5.803 -0.2942 -1.1431 -0.0433
   24MOL   C16817694   2.193   7.265   5.895 -0.6321  0.1708 -0.0540
   24MOL   N16917695   2.084   7.354   5.877  0.1304  0.3289  0.3696
   24MOL   H17017696   2.162   6.834   4.628 -1.2922  0.8032 -0.8322
   24MOL   H17117697   2.092   6.683   4.684 -0.9609  1.0372  0.2035
   24MOL   H17217698   1.968   6.845   4.781  0.8634 -1.7900 -2.4426
   24MOL   H17317699   2.065   6.773   4.901 -1.5003 -0.7913 -0.6655
   24MOL   H17417700   2.132   7.040   4.775  2.4525  1.0794  0.0489
   24MOL   H17517701   2.238   6.969   4.890 -0.3319 -0.0844  1.7570
   24MOL   H17617702   1.956   7.054   4.955  0.7823  0.3640 -0.9155
   24MOL   H17717703   2.088   7.151   4.990 -0.6846 -0.6781  2.2491
   24MOL   H17817704   2.202   7.141   5.130 -0.0778  0.3000 -0.1928
   24MOL   H17917705   2.292   6.981   5.334  0.7513  0.1069  1.9911
   24MOL   H18017706   2.278   7.143   5.354 -0.0650 -0.5438 -0.9318
   24MOL   H18117707   2.034   7.111   5.433  0.0523  0.3218  0.0290
   24MOL   H18217708   2.062   6.931   5.409  1.7376 -1.3893 -0.3973
   24MOL   H18317709   2.238   6.962   5.594  0.1888 -0.0658 -0.2591
   24MOL   H18417710   2.064   6.965   5.627 -1.7635  1.0255 -1.7626
   24MOL   H18517711   2.255   7.217   5.613  0.1293  0.0244  0.0688
   24MOL   H18617712   2.088   7.233   5.659 -1.3640 -1.7954 -0.8093
   24MOL   H18717713   2.124   7.078   5.840 -0.5666 -0.7856  0.0287
   24MOL   H18817714   2.296   7.091   5.815 -0.6563 -1.8588 -0.3268
   24MOL   H18917715   2.284   7.322   5.876  1.6837 -3.4184 -0.1556
   24MOL   H19017716   2.215   7.235   5.998  0.2394 -0.2308 -0.3550
   24MOL   H19117717   2.097   7.439   5.824 -1.6648  0.4461  0.1078
   24MOL   C19217718   1.967   7.330   5.930 -0.9933  0.3123  0.1340
   24MOL   O19317719   1.945   7.236   6.005  0.5432 -0.0714  0.0050
   24MOL   C19417720   1.853   7.427   5.895 -0.0695 -0.0641 -0.0306
   24MOL   C19517721   1.709   7.366   5.875 -0.3653 -0.5244 -0.8595
   24MOL   C19617722   1.692   7.293   5.748 -0.1940  0.1312  0.1820
   24MOL   C19717723   1.774   7.164   5.727 -0.4255 -0.4148 -0.0720
   24MOL   C19817724   1.736   7.083   5.595 -1.0318 -0.4538 -0.8052
   24MOL   O19917725   1.760   7.142   5.488  0.1421  0.2169 -0.3598
   24MOL   N20017726   1.691   6.962   5.618 -0.2846 -0.6759 -0.7883
   24MOL   C20117727   1.625   6.875   5.526  0.3428 -0.0726  0.3357
   24MOL   C20217728   1.717   6.774   5.461 -0.3877  0.0732  0.2196
   24MOL   C20317729   1.804   6.694   5.557 -0.2673 -0.4939 -0.4999
   24MOL   C20417730   1.872   6.568   5.499  0.5326  0.7403 -0.6309
   24MOL   C20517731   1.976   6.580   5.387  0.5141  0.9821 -0.6172
   24MOL   C20617732   2.118   6.627   5.437  0.1163 -0.4646  0.1020
   24MOL   N20717733   2.200   6.685   5.334  0.3546  0.3420  0.5437
   24MOL   H20817734   1.846   7.505   5.970  0.2559  0.1186 -0.1924
   24MOL   H20917735   1.888   7.475   5.804 -0.7748  0.7596  0.1315
   24MOL   H21017736   1.689   7.305   5.963  2.1440 -1.1972 -0.7125
   24MOL   H21117737   1.630   7.440   5.889 -2.2141 -2.8098  1.2514
   24MOL   H21217738   1.728   7.361   5.670  0.4668 -0.8823 -0.4041
   24MOL   H21317739   1.589   7.263   5.727  0.5531 -4.3384  2.4652
   24MOL   H21417740   1.760   7.099   5.814 -1.1832  1.9826  1.6499
   24MOL   H21517741   1.876   7.201   5.715 -1.0439  1.7856  1.1511
   24MOL   H21617742   1.674   6.947   5.716 -1.2355  0.3730 -0.7837
   24MOL   H21717743   1.550   6.812   5.575 -1.3911  0.0106 -2.1337
   24MOL   H21817744   1.574   6.933   5.449  0.1294  0.4140  0.8377
   24MOL   H21917745   1.654   6.714   5.395  0.7218  3.4393 -4.1635
   24MOL   H22017746   1.789   6.815   5.390  1.9677 -0.3496  2.3092
   24MOL   H22117747   1.748   6.655   5.642 -2.0666 -1.7242 -2.2292
   24MOL   H22217748   1.886   6.747   5.606  1.0174 -0.9244 -2.1099
   24MOL   H22317749   1.920   6.506   5.574  1.1049 -0.0404 -1.6200
   24MOL   H22417750   1.793   6.508   5.454 -0.6704  2.0012 -0.2174
   24MOL   H22517751   1.989   6.489   5.328 -2.1564  1.5376 -2.1507
   24MOL   H22617752   1.941   6.651   5.311  2.1996  0.8787 -1.5301
   24MOL   H22717753   2.174   6.548   5.488  2.5663 -0.3336 -2.2520
   24MOL   H22817754   2.111   6.706   5.511  0.4794 -0.9786  0.6922
   24MOL   H22917755   2.159   6.728   5.252 -0.6262  1.1158  1.4282
   24MOL   C23017756   2.325   6.675   5.323 -0.0401 -0.2359 -0.4169
   24MOL   O23117757   2.394   6.638   5.415 -0.3908  0.6882 -0.1692
   24MOL   C23217758   2.390   6.726   5.195  1.2797  0.4653 -0.0724
   24MOL   C23317759   2.512   6.815   5.221  0.2002 -0.0257 -0.0019
   24MOL   C23417760   2.590   6.855   5.096 -0.6412  0.6082 -0.7231
   24MOL   C23517761   2.517   6.953   5.004  0.9069 -0.5689 -0.0431
   24MOL   C23617762   2.548   7.093   5.051 -0.4728 -0.2640 -0.9187
   24MOL   O23717763   2.477   7.157   5.131 -0.0781 -0.0218  0.0507
   24MOL   N23817764   2.658   7.145   4.997  0.0683  0.3774 -0.2886
   24MOL   C23917765   2.700   7.287   4.997  0.8305  0.4369  0.1307
   24MOL   C24017766   2.827   7.322   5.078 -0.1168  0.2862 -0.2723
   24MOL   C24117767   2.944   7.233   5.033  0.6560  0.7579  0.1278
   24MOL   C24217768   3.074   7.266   5.117 -0.0301  0.5128 -0.3630
   24MOL   C24317769   3.207   7.224   5.064  0.1254  0.3634 -0.5348
   24MOL   C24417770   3.240   7.079   5.103  0.2643  0.8422 -0.5589
   24MOL   N24517771   3.374   7.043   5.053 -0.2539 -0.2461 -0.5694
   24MOL   H24617772   2.421   6.643   5.131  0.4969  0.4423 -0.4233
   24MOL   H24717773   2.314   6.781   5.140 -1.4404 -0.6058  2.4656
   24MOL   H24817774   2.485   6.907   5.275 -1.8212 -0.4817 -0.1997
   24MOL   H24917775   2.582   6.767   5.288 -0.1010 -0.5642 -0.0742
   24MOL   H25017776   2.636   6.777   5.036 -0.2074  0.6720 -0.4790
   24MOL   H25117777   2.676   6.909   5.136  1.2539 -2.1161 -1.0095
   24MOL   H25217778   2.409   6.943   5.013  0.9166  1.2127  2.9453
   24MOL   H25317779   2.535   6.932   4.899  0.2310  2.2879 -0.7722
   24MOL   H25417780   2.701   7.067   4.949  0.8315  0.2452  0.5882
   24MOL   H25517781   2.703   7.318   4.892 -0.9811 -2.1503 -0.7470
   24MOL   H25617782   2.608   7.340   5.021 -1.4080 -2.9569 -0.5637
   24MOL   H25717783   2.851   7.427   5.060 -0.6535  0.1848 -1.6428
   24MOL   H25817784   2.809   7.318   5.185  1.0543  1.7544  0.0045
   24MOL   H25917785   2.957   7.244   4.925 -1.0888  0.2825 -0.1325
   24MOL   H26017786   2.916   7.133   5.065  0.5922  0.3793 -1.1113
   24MOL   H26117787   3.081   7.374   5.133  0.3518  0.8106 -2.4194
   24MOL   H26217788   3.055   7.225   5.216  0.1262  0.6493 -0.2753
   24MOL   H26317789   3.202   7.234   4.955  0.6544  1.2557 -0.4889
   24MOL   H26417790   3.279   7.299   5.097  0.1455  1.4942 -2.9924
   24MOL   H26517791   3.164   7.013   5.061  1.1446  0.2146 -1.1794
   24MOL   H26617792   3.236   7.070   5.212 -0.4226  0.8561 -0.5799
   24MOL   H26717793   3.454   7.087   5.097 -0.5111 -1.3371  1.0571
   24MOL   C26817794   3.398   6.986   4.934  0.5732  0.0739  0.1545
   24MOL   O26917795   3.311   6.935   4.864  0.3261  0.0452  0.3348
   24MOL   C27017796   3.547   6.980   4.894  0.6083  0.2145  0.3838
   24MOL   C27117797   3.586   6.848   4.840  0.1265 -0.7305  0.1991
   24MOL   C27217798   3.577   6.736   4.946 -0.0004  0.0475 -0.6296
   24MOL   C27317799   3.594   6.584   4.896  0.2347 -0.4628  0.1313
   24MOL   C27417800   3.736   6.553   4.852 -0.2305  0.2394  0.2170
   24MOL   O27517801   3.828   6.600   4.920  0.3935  0.4204  0.0731
   24MOL   N27617802   3.750   6.483   4.740  0.1843  0.3720  0.1614
   24MOL   C27717803   3.873   6.448   4.680 -0.4211  0.0719 -0.9514
   24MOL   C27817804   3.851   6.403   4.534  0.0212 -0.2866 -0.0556
   24MOL   C27917805   3.788   6.514   4.456 -0.6127  0.3575  0.8490
   24MOL   C28017806   3.802   6.472   4.309 -1.1422  0.1833  0.0022
   24MOL   C28117807   3.734   6.575   4.212  0.1068 -0.2261  0.1593
   24MOL   C28217808   3.737   6.529   4.063  0.1452  0.1585 -0.0163
   24MOL   N28317809   3.758   6.384   4.045  0.4224  0.3162 -0.1610
   24MOL   H28417810   3.555   7.054   4.814  0.4992  0.8767  0.9792
   24MOL   H28517811   3.615   7.023   4.968 -0.7050  2.7100  0.1857
   24MOL   H28617812   3.521   6.836   4.753 -0.0030 -1.4611  0.3992
   24MOL   H28717813   3.682   6.856   4.789 -0.5726  2.5023 -0.7395
   24MOL   H28817814   3.480   6.736   4.996  0.4160 -0.1860  0.1919
   24MOL   H28917815   3.652   6.758   5.023  0.7824 -2.7875 -0.5062
   24MOL   H29017816   3.528   6.579   4.810  2.1048  0.5767 -1.3857
   24MOL   H29117817   3.577   6.511   4.976  0.8634 -0.5376  0.1988
   24MOL   H29217818   3.661   6.456   4.702  0.4469  0.9653 -0.8934
   24MOL   H29317819   3.949   6.527   4.682  0.4236 -0.7313  1.1432
   24MOL   H29417820   3.923   6.369   4.737  0.3583  0.2413 -1.3921
   24MOL   H29517821   3.950   6.368   4.505  0.2171 -0.3836  0.7049
   24MOL   H29617822   3.791   6.313   4.543 -0.8962  0.3512  0.4021
   24MOL   H29717823   3.827   6.612   4.482 -1.7876  1.0998 -0.1216
   24MOL   H29817824   3.682   6.527   4.479 -0.1245  0.4582  3.1470
   24MOL   H29917825   3.908   6.482   4.284 -0.7858 -1.5877  0.7171
   24MOL   H30017826   3.766   6.372   4.284 -0.8910 -0.4426  2.0512
   24MOL   H30117827   3.628   6.597   4.224 -0.1853 -0.6343 -1.4607
   24MOL   H30217828   3.777   6.675   4.210 -0.0280 -0.1774 -0.6432
   24MOL   H30317829   3.805   6.574   3.991  0.1128 -1.8103 -1.3017
   24MOL   H30417830   3.638   6.545   4.021 -0.4334 -0.7625  0.9773
   24MOL   H30517831   3.676   6.325   4.048 -0.3373  1.4247  1.8651
   24MOL   C30617832   3.873   6.327   4.004 -0.6606  0.3498  0.9675
   24MOL   O30717833   3.972   6.385   3.959 -0.1606 -0.1790 -0.4387
   24MOL   C30817834   3.860   6.176   3.991  0.1170 -0.0801 -0.2523
   24MOL   C30917835   3.856   6.100   4.123 -0.1880  0.1306  0.3152
   24MOL   C31017836   3.976   6.121   4.210 -0.2293 -0.4372  0.1270
   24MOL   C31117837   3.947   6.049   4.342 -0.4898 -0.2346  0.1571
   24MOL   C31217838   4.063   6.053   4.443 -0.5863 -0.6943 -1.0340
   24MOL   O31317839   4.175   6.092   4.410  0.0986  0.1272  0.1227
   24MOL   N31417840   4.035   6.018   4.568  0.4347 -0.4276  0.3042
   24MOL   C31517841   4.136   6.019   4.677 -0.1798  0.1400  0.2953
   24MOL   C31617842   4.091   6.114   4.785 -0.2855  0.1954  0.5593
   24MOL   C31717843   4.164   6.100   4.914 -0.0852 -0.1916  0.1684
   24MOL   C31817844   4.123   6.187   5.033  0.4896 -0.3331 -0.2044
   24MOL   C31917845   4.132   6.340   4.996  0.3256 -0.4914  0.2095
   24MOL   C32017846   4.097   6.433   5.113 -0.2661 -0.2660  0.6550
   24MOL   N32117847   4.084   6.571   5.074  0.0120  0.7886 -0.8762
   24MOL   H32217848   3.769   6.158   3.934 -0.8187  2.5642  0.3280
   24MOL   H32317849   3.939   6.148   3.921 -0.3661 -1.4695 -0.2554
   24MOL   H32417850   3.764   6.134   4.170  0.6706  2.4024  0.4355
   24MOL   H32517851   3.847   5.996   4.092  2.2447 -0.1619  0.4788
   24MOL   H32617852   3.982   6.229   4.225 -1.4731 -0.4242  0.5899
   24MOL   H32717853   4.063   6.081   4.158  0.5244 -0.9084  1.6987
   24MOL   H32817854   3.918   5.945   4.329 -1.0291  0.0816 -1.3730
   24MOL   H32917855   3.872   6.114   4.387 -0.3107 -0.3090  0.5641
   24MOL   H33017856   3.946   5.973   4.583  0.9257 -1.5951 -0.2063
   24MOL   H33117857   4.143   5.919   4.719  2.3701  0.4330  0.5992
   24MOL   H33217858   4.233   6.046   4.636 -0.9056 -0.7271 -2.1082
   24MOL   H33317859   4.091   6.213   4.739 -3.0500  0.4247  0.9470
   24MOL   H33417860   3.986   6.111   4.814 -0.0632  1.5786  1.5618
   24MOL   H33517861   4.269   6.128   4.906 -0.3059  0.6658  0.1761
   24MOL   H33617862   4.157   5.993   4.931 -0.5119 -0.0595  0.8523
   24MOL   H33717863   4.022   6.166   5.067  0.8801  1.8319  2.4050
   24MOL   H33817864   4.177   6.157   5.123  0.5909 -0.0151 -0.1618
   24MOL   H33917865   4.227   6.356   4.946  0.5797  1.4146  1.2449
   24MOL   H34017866   4.072   6.355   4.907  2.7522 -0.7703 -1.5093
   24MOL   H34117867   4.186   6.428   5.176 -0.3092 -0.7415  0.6832
   24MOL   H34217868   4.007   6.394   5.161 -1.3724  0.7738 -0.5641
   24MOL   H34317869   3.998   6.591   5.024 -2.2846  1.2981  3.0451
   24MOL   C34417870   4.159   6.682   5.091 -0.2517 -0.9427  0.0812
   24MOL   O34517871   4.267   6.669   5.143 -0.4289 -0.2904  0.5166
   24MOL   C34617872   4.102   6.818   5.055 -0.1624  0.9215 -0.2901
   24MOL   C34717873   4.167   6.875   4.924 -0.3932  0.1560  0.5110
   24MOL   C34817874   4.081   6.839   4.806 -0.0483 -0.1434  0.6363
   24MOL   C34917875   4.147   6.884   4.674  0.2143 -0.3968  0.8004
   24MOL   C35017876   4.057   6.853   4.551 -0.6732  0.5867  0.0341
   24MOL   O35117877   3.935   6.862   4.557 -0.8044 -0.3322  0.6142
   24MOL   N35217878   4.121   6.825   4.435 -0.3551  0.3748 -0.7439
   24MOL   C35317879   4.052   6.759   4.324  0.4311  0.1988  0.0792
   24MOL   C35417880   4.114   6.807   4.180  0.9348  0.3548  0.6550
   24MOL   C35517881   4.023   6.775   4.062 -0.1449 -0.0658 -0.0660
   24MOL   C35617882   4.106   6.804   3.933 -0.3795  0.8737  0.1312
   24MOL   C35717883   4.035   6.754   3.812 -0.4429  0.4109 -0.5363
   24MOL   C35817884   4.110   6.801   3.686 -0.3342 -0.0348 -0.0626
   24MOL   N35917885   4.245   6.735   3.661 -0.1262  0.1712 -0.9127
   24MOL   H36017886   3.993   6.824   5.047 -0.2074 -0.4697 -0.7516
   24MOL   H36117887   4.129   6.891   5.131 -0.8545 -0.0762  0.9347
   24MOL   H36217888   4.172   6.984   4.925 -0.2283  0.1411  1.8526
   24MOL   H36317889   4.267   6.838   4.899 -1.7488 -1.9349 -2.0172
   24MOL   H36417890   3.980   6.876   4.793 -0.9489 -2.1739  1.6396
   24MOL   H36517891   4.075   6.732   4.787  2.4024  0.3574 -3.6451
   24MOL   H36617892   4.247   6.840   4.667  0.4349  0.2787 -0.5758
   24MOL   H36717893   4.171   6.991   4.672  2.3975 -0.8552 -2.8587
   24MOL   H36817894   4.221   6.822   4.442 -0.4425  0.5196  0.7823
   24MOL   H36917895   4.037   6.653   4.345  0.5383 -0.2332 -1.8552
   24MOL   H37017896   3.951   6.800   4.321 -0.4260 -1.8833 -0.3105
   24MOL   H37117897   4.131   6.914   4.173  1.1027  0.5228  3.1309
   24MOL   H37217898   4.208   6.755   4.163 -1.0014 -2.1510 -3.1690
   24MOL   H37317899   3.921   6.815   4.065  0.2375  0.8190  1.8303
   24MOL   H37417900   4.011   6.666   4.064  2.1263 -0.3333  0.5771
   24MOL   H37517901   4.142   6.906   3.916  1.2540  0.5390  1.5190
   24MOL   H37617902   4.202   6.753   3.935 -0.0858  1.4758  1.6406
   24MOL   H37717903   4.032   6.646   3.827  1.1418  0.6735  2.0453
   24MOL   H37817904   3.931   6.787   3.814 -0.2492  1.0935 -1.4143
   24MOL   H37917905   4.128   6.908   3.691 -2.0113  0.2528  0.0917
   24MOL   H38017906   4.043   6.785   3.602 -0.3712 -1.5709  0.2426
   24MOL   H38117907   4.327   6.780   3.699 -0.1009 -0.6299 -0.0120
   24MOL   C38217908   4.263   6.625   3.591  0.5633  0.2152  0.2734
   24MOL   O38317909   4.180   6.569   3.518  0.1807  0.7382 -0.0325
   24MOL   C38417910   4.410   6.570   3.610 -0.3597  0.2743 -0.0363
   24MOL   C38517911   4.413   6.423   3.650  0.3552 -0.0919  0.6213
   24MOL   C38617912   4.419   6.393   3.798  0.4243  0.2266 -0.4246
   24MOL   C38717913   4.316   6.458   3.887  0.0258 -0.2517  0.3892
   24MOL   C38817914   4.334   6.418   4.028 -0.1493 -0.3635 -0.0398
   24MOL   O38917915   4.447   6.385   4.068 -0.0886 -0.1536  0.4535
   24MOL   N39017916   4.228   6.418   4.107 -0.5520 -0.2454  0.3296
   24MOL   C39117917   4.236   6.395   4.251 -0.0734 -0.0420  0.3299
   24MOL   C39217918   4.320   6.495   4.331  0.0638 -0.3815 -0.1403
   24MOL   C39317919   4.326   6.442   4.478  0.2474  0.0061  0.6217
   24MOL   C39417920   4.382   6.543   4.579  0.0094  0.2690  0.5350
   24MOL   C39517921   4.382   6.485   4.721 -0.0672  0.3528  0.6570
   24MOL   C39617922   4.449   6.575   4.827 -0.8699 -0.0189 -0.2773
   24MOL   N39717923   4.443   6.519   4.963 -0.0154 -0.5897 -0.3492
   24MOL   H39817924   4.461   6.587   3.515  0.8632 -1.7060  0.2344
   24MOL   H39917925   4.462   6.630   3.685  0.3788 -0.6329  0.1920
   24MOL   H40017926   4.324   6.372   3.614 -0.8901  2.4069  0.0357
   24MOL   H40117927   4.502   6.381   3.603 -0.0542  0.9745 -1.1561
   24MOL   H40217928   4.524   6.417   3.816  0.2309  2.1593 -1.7454
   24MOL   H40317929   4.412   6.285   3.815 -1.4718  0.6033  1.4224
   24MOL   H40417930   4.215   6.435   3.852 -0.7108  0.1350  2.1766
   24MOL   H40517931   4.319   6.567   3.882  1.5845 -0.3640 -1.8995
   24MOL   H40617932   4.138   6.442   4.067 -0.5904  0.0929  0.6207
   24MOL   H40717933   4.135   6.394   4.292 -0.4684 -1.4395 -0.6439
   24MOL   H40817934   4.282   6.296   4.250  2.2846  1.0391 -0.9954
   24MOL   H40917935   4.419   6.499   4.286  1.7802  1.2756  3.5563
   24MOL   H41017936   4.282   6.598   4.331  0.6422 -0.1632 -0.5168
   24MOL   H41117937   4.379   6.347   4.480 -0.0548 -0.1773 -0.1438
   24MOL   H41217938   4.228   6.414   4.516 -0.8187  1.2175 -1.1541
   24MOL   H41317939   4.483   6.566   4.546 -0.5138  2.3918  0.3039
   24MOL   H41417940   4.328   6.638   4.585 -0.7592 -0.2255  1.6082
   24MOL   H41517941   4.282   6.460   4.756 -0.0272 -0.6821  0.0407
   24MOL   H41617942   4.432   6.389   4.726 -0.4018 -0.0458 -2.7683
   24MOL   H41717943   4.401   6.671   4.807 -1.2012  0.3297  2.0356
   24MOL   H41817944   4.551   6.603   4.800 -0.6022 -2.0829 -1.5140
   24MOL   H41917945   4.370   6.552   5.025  1.9691 -1.9195  2.8005
   24MOL   C42017946   4.536   6.435   5.012  0.1014  0.5105  0.2242
   24MOL   O42117947   4.633   6.392   4.944 -0.5734 -0.6304 -0.4633
   24MOL   C42217948   4.512   6.384   5.149 -0.0880  0.3884  0.1590
   24MOL   C42317949   4.512   6.233   5.183 -0.7744  0.5645  0.5491
   24MOL   C42417950   4.450   6.203   5.320 -0.1616 -0.5809 -0.0951
   24MOL   C42517951   4.468   6.053   5.354 -0.5866 -0.0244 -0.0168
   24MOL   C42617952   4.612   6.026   5.394  0.5954  0.8124  0.4086
   24MOL   O42717953   4.678   6.112   5.454 -0.2842 -0.0864 -0.1667
   24MOL   N42817954   4.662   5.908   5.357  0.3953 -0.5683 -0.0368
   24MOL   C42917955   4.802   5.862   5.364 -0.4236 -0.0866 -0.2264
   24MOL   C43017956   4.871   5.933   5.252  0.4969  0.1871 -0.4346
   24MOL   C43117957   5.024   5.911   5.242  0.1034  0.6014  0.1867
   24MOL   C43217958   5.079   6.005   5.129  1.2077  0.3057 -0.5587
   24MOL   C43317959   5.233   6.009   5.133  0.5850 -0.5427  0.4487
   24MOL   C43417960   5.278   6.071   4.993 -0.0473  0.1622 -0.0052
   24MOL   N43517961   5.423   6.087   4.980  0.2908 -0.5452  0.2016
   24MOL   H43617962   4.583   6.435   5.213 -1.9020  2.5463  0.4871
   24MOL   H43717963   4.420   6.430   5.184 -0.0006  0.7764 -0.1238
   24MOL   H43817964   4.457   6.169   5.114 -2.7119  0.5919  2.0343
   24MOL   H43917965   4.613   6.195   5.170 -1.4351 -0.1267 -3.1002
   24MOL   H44017966   4.348   6.241   5.317 -0.2441 -0.8436 -0.7386
   24MOL   H44117967   4.497   6.272   5.390 -0.6666  2.1202 -2.3302
   24MOL   H44217968   4.427   5.989   5.276  1.8734  0.1976 -1.5234
   24MOL   H44317969   4.409   6.018   5.439 -0.5157 -0.8368 -0.2911
   24MOL   H44417970   4.589   5.840   5.345  0.1664 -0.5228  1.0459
   24MOL   H44517971   4.854   5.883   5.457  2.2465 -0.9650 -1.4592
   24MOL   H44617972   4.809   5.755   5.341  0.7103  0.1281 -0.9490
   24MOL   H44717973   4.826   5.913   5.155 -2.3245  2.2090  0.4073
   24MOL   H44817974   4.847   6.038   5.268  0.1114  0.1545 -0.8087
   24MOL   H44917975   5.038   5.808   5.209 -1.1225 -0.4384  2.7087
   24MOL   H45017976   5.075   5.936   5.335 -0.5230  1.3785  0.3269
   24MOL   H45117977   5.056   5.968   5.029 -1.0815  3.1627 -1.1625
   24MOL   H45217978   5.042   6.108   5.140 -0.9405 -0.4074 -0.7830
   24MOL   H45317979   5.267   6.072   5.215 -0.8934  0.0256  0.6330
   24MOL   H45417980   5.273   5.912   5.162 -0.4219 -1.2271 -0.4109
   24MOL   H45517981   5.233   6.169   4.982  0.9747  0.7022  0.5594
   24MOL   H45617982   5.248   6.018   4.902  0.1469 -0.2707  0.1811
   24MOL   H45717983   5.479   6.056   5.058  0.6454 -0.3191  0.0370
   24MOL   C45817984   5.474   6.168   4.887 -0.6564  0.4158 -0.6405
   24MOL   O45917985   5.397   6.231   4.812 -0.4430 -0.4956 -0.5428
   24MOL   C46017986   5.621   6.204   4.891  0.3048 -0.2412  0.7235
   24MOL   C46117987   5.665   6.286   5.008  0.0591  0.5976  0.6105
   24MOL   C46217988   5.799   6.360   4.992 -0.0366 -0.3935 -0.0973
   24MOL   C46317989   5.821   6.448   5.120  0.2389 -0.3776  0.2969
   24MOL   C46417990   5.949   6.535   5.119  0.4503 -0.0896 -0.1483
   24MOL   O46517991   6.020   6.523   5.024 -0.1748 -0.1995 -0.7492
   24MOL   N46617992   5.965   6.631   5.215  0.2761  0.7894  0.0286
   24MOL   C46717993   6.069   6.722   5.212  0.0472  0.4828 -0.2256
   24MOL   C46817994   6.051   6.843   5.310  0.1946  0.6810  0.5461
   24MOL   C46917995   6.064   6.810   5.453  0.3360  0.0114 -0.2605
   24MOL   C47017996   6.060   6.937   5.539 -0.1471 -0.1899  0.4476
   24MOL   C47117997   5.924   7.012   5.567  0.8826  0.1865  0.3377
   24MOL   C47217998   5.930   7.138   5.657 -0.4639 -0.3966  0.2845
   24MOL   N47317999   5.803   7.207   5.649 -0.1252 -0.1204  0.2768
   24MOL   H47418000   5.682   6.113   4.895  0.8334  0.0561 -0.3484
   24MOL   H47518001   5.653   6.249   4.797 -2.3818 -2.6423 -1.4428
   24MOL   H47618002   5.589   6.360   5.032 -1.0768 -0.9597  1.9570
   24MOL   H47718003   5.682   6.215   5.089  0.8647  0.9203  0.7327
   24MOL   H47818004   5.804   6.428   4.907  1.4638 -0.7038 -0.2712
   24MOL   H47918005   5.887   6.297   4.977  0.7740  0.3083  1.5916
   24MOL   H48018006   5.830   6.375   5.200 -2.3290 -0.5623  0.4724
   24MOL   H48118007   5.736   6.515   5.140 -0.2375 -0.2505 -2.0599
   24MOL   H48218008   5.890   6.641   5.282  0.5259  0.1654  0.4151
   24MOL   H48318009   6.150   6.657   5.246  1.2934  1.0794 -1.9745
   24MOL   H48418010   6.088   6.756   5.110  0.6670  0.6959 -0.0442
   24MOL   H48518011   6.121   6.917   5.272  0.1377  0.2088 -0.5069
   24MOL   H48618012   5.961   6.900   5.288  0.1848  0.5225  0.1636
   24MOL   H48718013   6.164   6.767   5.465  0.0803 -0.2215  1.1033
   24MOL   H48818014   5.984   6.743   5.483 -0.0797 -0.1810 -1.7519
   24MOL   H48918015   6.105   6.920   5.637  0.1186 -3.0585 -0.1264
   24MOL   H49018016   6.117   7.021   5.499  1.4337 -1.9754 -1.1900
   24MOL   H49118017   5.887   7.039   5.468  1.0891 -0.2036  0.1527
   24MOL   H49218018   5.862   6.940   5.620 -0.1262  1.3398  0.7455
   24MOL   H49318019   6.014   7.206   5.643 -0.3921 -0.4726  0.3558
   24MOL   H49418020   5.936   7.119   5.764 -0.3276  0.4566  0.4322
   24MOL   H49518021   5.745   7.202   5.566 -2.0178  0.0311  1.5657
   24MOL   C49618022   5.738   7.269   5.747 -0.3336  0.1476  0.0610
   24MOL   O49718023   5.790   7.297   5.852 -0.0279  0.4991 -0.1378
   24MOL   C49818024   5.591   7.311   5.726 -0.0066  1.3746  0.0926
   24MOL   C49918025   5.552   7.422   5.837  0.3160  0.8971 -0.3037
   24MOL   C50018026   5.406   7.473   5.815 -0.7635  0.3235 -0.2399
   24MOL   C50118027   5.368   7.602   5.898  0.4560  0.4012  0.7605
   24MOL   C50218028   5.336   7.574   6.042  0.0117  0.9521  0.3601
   24MOL   O50318029   5.371   7.471   6.090  0.0644 -0.0345  0.1952
   24MOL   N50418030   5.267   7.663   6.108  0.1158 -0.0717 -0.3378
   24MOL   C50518031   5.232   7.653   6.249  0.2560  0.0492 -0.1669
   24MOL   C50618032   5.219   0.085   6.308 -0.1894 -0.1008  0.4624
   24MOL   C50718033   5.210   0.080   6.462  0.3043 -0.1269  0.1318
   24MOL   C50818034   5.073   0.025   6.513 -1.4676  0.5878  0.2117
   24MOL   C50918035   4.955   0.099   6.459  0.0050 -1.1547 -0.6647
   24MOL   C51018036   4.824   0.033   6.504  0.2449  0.0865 -1.0211
   24MOL   N51118037   4.716   0.105   6.443  0.9721  0.1018 -0.2637
   24MOL   H51218038   5.575   7.356   5.627 -2.6870 -1.2568 -0.7430
   24MOL   H51318039   5.532   7.220   5.716 -0.4727  1.4711  1.9240
   24MOL   H51418040   5.555   7.390   5.941 -3.2786  1.5052  0.0724
   24MOL   H51518041   5.621   7.505   5.825  1.5386  0.1366  1.2172
   24MOL   H51618042   5.343   7.387   5.839  1.9302 -1.4268  0.7660
   24MOL   H51718043   5.399   7.489   5.707  0.4822  0.8368 -0.2552
   24MOL   H51818044   5.270   7.639   5.868  1.4300 -0.0215 -3.2484
   24MOL   H51918045   5.440   7.683   5.902  0.4394  0.4700 -0.1693
   24MOL   H52018046   5.251   0.047   6.070 -0.7396 -0.6493 -1.3841
   24MOL   H52118047   5.147   7.585   6.256 -0.0944  0.6562  1.8562
   24MOL   H52218048   5.309   7.596   6.301 -0.6976 -0.6519  0.4941
   24MOL   H52318049   5.303   0.143   6.269 -1.1361  0.7523 -0.3408
   24MOL   H52418050   5.128   0.132   6.270  0.5559  0.3957 -0.7344
   24MOL   H52518051   5.223   0.182   6.499 -0.4996  0.1199 -0.2679
   24MOL   H52618052   5.284   0.018   6.512  2.3112  1.2195 -1.1143
   24MOL   H52718053   5.066   7.625   6.497  0.8221  0.4765 -0.2591
   24MOL   H52818054   5.072   0.024   6.622  0.8229  1.5636  0.2789
   24MOL   H52918055   4.959   0.199   6.501  1.0863 -1.4177 -0.1233
   24MOL   H53018056   4.943   0.088   6.352 -3.1657 -2.9886 -0.1869
   24MOL   H53118057   4.813   0.051   6.611 -1.1881 -2.0038 -0.7724
   24MOL   H53218058   4.810   7.634   6.486 -2.2707  0.4753 -1.5586
   24MOL   H53318059   4.727   0.195   6.399 -2.3574  0.6280 -0.1221
   24MOL   C53418060   4.585   0.066   6.454  0.2471 -0.1347 -0.3124
   24MOL   O53518061   4.548   7.669   6.503  0.4399  0.2063 -0.4067
   24MOL   C53618062   4.475   0.160   6.402  0.2496 -0.3145  0.2752
   24MOL   C53718063   4.332   0.151   6.473  0.4744 -0.4526 -0.0940
   24MOL   C53818064   4.220   0.252   6.424  0.4408  0.1556 -0.5933
   24MOL   C53918065   4.253   0.404   6.414  0.2950  0.0231  0.5123
   24MOL   C54018066   4.290   0.462   6.551 -0.9372  0.3532 -0.1976
   24MOL   O54118067   4.230   0.427   6.651 -0.1017 -0.1896  0.0616
   24MOL   N54218068   4.398   0.541   6.560  0.8625 -0.3578 -0.2890
   24MOL   C54318069   4.450   0.590   6.685  0.4135  0.9507  0.0588
   24MOL   C54418070   4.554   0.493   6.733 -0.3631 -0.5157 -0.2631
   24MOL   C54518071   4.650   0.560   6.842  0.0076  0.0565 -0.9086
   24MOL   C54618072   4.755   0.458   6.883 -0.1780 -0.1160  1.3002
   24MOL   C54718073   4.700   0.364   6.976  0.1031  0.7597 -0.0213
   24MOL   C54818074   4.798   0.255   7.019 -0.2973  0.1978  0.4510
   24MOL   N54918075   4.731   0.166   7.110  0.0586  0.2228  0.1118
   24MOL   H55018076   4.497   0.265   6.416 -1.1819 -0.1374  1.3273
   24MOL   H55118077   4.463   0.152   6.294 -0.9982  0.3680  0.3529
   24MOL   H55218078   4.297   0.052   6.442  2.1147 -0.6709 -1.3609
   24MOL   H55318079   4.346   0.158   6.581  3.6368  3.1474 -0.6345
   24MOL   H55418080   4.145   0.242   6.502  0.6501  0.1120 -0.3955
   24MOL   H55518081   4.171   0.225   6.330  0.5422 -4.1548  0.4842
   24MOL   H55618082   4.172   0.473   6.393  1.8949  1.7816  0.0253
   24MOL   H55718083   4.329   0.415   6.336  0.7478  1.0952  1.0940
   24MOL   H55818084   4.455   0.552   6.477  1.3612 -1.5953 -0.1176
   24MOL   H55918085   4.499   0.688   6.679  1.3489  0.4630 -0.3077
   24MOL   H56018086   4.378   0.603   6.766 -0.1109 -1.2765 -0.0231
   24MOL   H56118087   4.501   0.404   6.767  1.5015 -1.4250  0.3232
   24MOL   H56218088   4.617   0.465   6.649  1.0818  0.8387  0.3555
   24MOL   H56318089   4.586   0.595   6.923  0.7480 -0.0897 -0.2413
   24MOL   H56418090   4.708   0.645   6.807  2.2310 -0.1452  2.0007
   24MOL   H56518091   4.785   0.389   6.804 -2.1015 -0.5603  0.9214
   24MOL   H56618092   4.839   0.515   6.921  0.4299 -1.0900  1.4237
   24MOL   H56718093   4.661   0.424   7.059 -0.1547 -0.8203  1.0299
   24MOL   H56818094   4.609   0.318   6.938 -0.1114  1.3447 -0.2133
   24MOL   H56918095   4.884   0.296   7.072 -0.6895  1.7807 -0.1226
   24MOL   H57018096   4.837   0.196   6.936 -0.1259  1.1996 -0.1849
   24MOL   H57118097   4.689   0.080   7.078  0.2524 -0.0406  0.5516
   24MOL   C57218098   4.711   0.184   7.244 -1.0118  0.2887  0.0417
   24MOL   O57318099   4.763   0.277   7.300 -0.0118  0.1121  0.6118
   24MOL   C57418100   4.607   0.098   7.312 -0.7897  0.5949 -0.7924
   24MOL   C57518101   4.643   0.061   7.459 -0.5426 -0.2569 -0.3269
   24MOL   C57618102   4.754   7.662   7.478  0.4182  0.3514 -0.7166
   24MOL   C57718103   4.790   7.613   7.620  0.5361  0.3443 -0.2802
   24MOL   C57818104   4.911   7.524   7.630 -0.6238 -0.4533 -0.3536
   24MOL   O57918105   4.945   7.447   7.539  0.4059  0.9735  0.3474
   24MOL   N58018106   4.960   7.522   0.042 -0.6554  0.2536 -0.2967
   24MOL   C58118107   5.067   7.445   0.092 -0.7752  0.1490  0.3890
   24MOL   C58218108   5.149   7.513   0.195 -0.0347  0.2620  0.4004
   24MOL   C58318109   5.208   7.643   0.138 -0.7836 -0.2523  0.1290
   24MOL   C58418110   5.321   7.618   0.037 -0.3034  0.7259  0.0867
   24MOL   C58518111   5.382   0.043   7.690 -0.0762 -0.4530 -0.3885
   24MOL   C58618112   5.536   0.044   7.665 -0.8403  0.3838  0.5087
   24MOL   N58718113   5.569   0.158   7.584 -0.5077  0.3106 -0.3725
   24MOL   H58818114   4.508   0.142   7.300 -1.2530 -0.2341 -0.0503
   24MOL   H58918115   4.593   0.010   7.248 -0.0454  1.0069 -1.5319
   24MOL   H59018116   4.664   0.156   7.508 -1.5065  0.0209 -0.4388
   24MOL   H59118117   4.554   0.021   7.508 -1.4182  0.7162 -1.0938
   24MOL   H59218118   4.839   7.707   7.426 -0.3277  0.8616 -1.5148
   24MOL   H59318119   4.731   7.579   7.411 -1.4053 -0.4825  0.8871
   24MOL   H59418120   4.709   7.545   7.647  0.0404  0.8284 -0.5277
   24MOL   H59518121   4.795   7.691   7.697 -0.3705  1.2489 -1.1223
   24MOL   H59618122   4.918   7.588   0.106  2.0654  0.7153  1.1067
   24MOL   H59718123   5.021   7.361   0.144 -0.3011  1.0581  2.3017
   24MOL   H59818124   5.123   7.402   0.010  0.9069  0.9066  1.1305
   24MOL   H59918125   5.096   7.541   0.286  0.1733 -0.2818  0.6906
   24MOL   H60018126   5.222   7.435   0.217 -0.2042 -0.9711 -3.1790
   24MOL   H60118127   5.244   7.704   0.220  2.6343  0.4370 -1.8125
   24MOL   H60218128   5.131   7.708   0.095 -0.3070 -0.5129 -1.1295
   24MOL   H60318129   5.405   7.560   0.075 -0.5163  0.2724 -0.1295
   24MOL   H60418130   5.280   7.561   7.661 -0.3194 -0.6760  1.0283
   24MOL   H60518131   5.322   0.069   7.603  1.3064 -0.4324 -1.3551
   24MOL   H60618132   5.368   0.124   0.054 -0.7210 -1.1899  0.3176
   24MOL   H60718133   5.573   7.657   7.626  1.5105  2.0047 -1.4174
   24MOL   H60818134   5.588   0.057   0.052 -0.7581  1.6545  0.3066
   24MOL   H60918135   5.593   0.242   7.635 -1.0098  0.0521  0.2892
   24MOL   C61018136   5.574   0.153   7.455  0.6342  0.0876  0.6167
   24MOL   O61118137   5.540   0.057   7.384 -0.1964  0.1740 -0.0366
   24MOL   C61218138   5.623   0.280   7.395 -0.3195 -0.0015 -0.6052
   24MOL   C61318139   5.766   0.271   7.329  0.1511  0.1598 -0.4528
   24MOL   C61418140   5.880   0.338   7.411  0.7006 -0.1843 -0.5129
   24MOL   C61518141   5.899   0.259   7.543  0.4736  0.1592 -0.1201
   24MOL   C61618142   6.048   0.232   7.565  0.0942 -0.1515  0.3201
   24MOL   O61718143   6.133   0.324   7.568  0.0907  0.9574 -0.6334
   24MOL   N61818144   6.085   0.098   7.569 -1.0419 -0.9349 -0.1124
   24MOL   C61918145   6.222   0.064   7.621  0.0132 -0.0371 -0.0670
   24MOL   C62018146   6.244   7.623   7.657 -0.5446  0.2647 -0.2431
   24MOL   C62118147   6.394   7.593   7.676  0.5777 -0.2711  0.3813
   24MOL   C62218148   6.413   7.452   0.019  0.6530 -0.5765 -0.3932
   24MOL   C62318149   6.567   7.415   0.016 -0.4540  0.6462  0.1291
   24MOL   C62418150   6.586   7.262   0.048 -1.0576  0.8400 -0.1933
   24MOL   N62518151   6.724   7.222   0.030 -0.4013  0.1055 -0.2298
   24MOL   H62618152   5.555   0.302   7.313 -0.2126  1.6653 -0.2643
   24MOL   H62718153   5.622   0.362   7.467  2.8314 -0.9747  0.6700
   24MOL   H62818154   5.791   0.171   7.294  0.2632  0.2051 -0.5054
   24MOL   H62918155   5.756   0.323   7.234 -2.1810 -2.4319 -1.6654
   24MOL   H63018156   5.833   0.431   7.442 -1.8473 -0.8862 -2.1822
   24MOL   H63118157   5.964   0.361   7.346 -0.0431  0.8298 -1.1136
   24MOL   H63218158   5.838   0.169   7.550  2.1408 -0.9434  0.5294
   24MOL   H63318159   5.866   0.324   7.624  0.4480  1.4866 -1.1825
   24MOL   H63418160   6.013   0.029   7.554 -1.1690 -1.0478  0.9877
   24MOL   H63518161   6.286   0.083   7.535  0.3051  0.3213  0.2260
   24MOL   H63618162   6.253   0.115   0.004  0.9470  2.5638 -1.7673
   24MOL   H63718163   6.185   7.611   0.040 -0.3200  3.6989  0.4125
   24MOL   H63818164   6.198   7.571   7.573 -1.7542 -0.0894  0.6245
   24MOL   H63918165   6.446   7.662   0.034  1.6636  1.1185 -1.8759
   24MOL   H64018166   6.439   7.602   7.577 -0.5887  1.7474  0.0236
   24MOL   H64118167   6.388   7.453   0.125  0.3216 -1.6087 -0.4541
   24MOL   H64218168   6.340   7.388   7.677 -1.7383  1.3435  0.5110
   24MOL   H64318169   6.612   7.435   7.627  1.7306 -2.2509  0.4672
   24MOL   H64418170   6.628   7.467   0.090  0.7581 -2.5836  1.5353
   24MOL   H64518171   6.526   7.202   7.687  1.2825 -0.1828 -1.3899
   24MOL   H64618172   6.554   7.243   0.150 -0.2046 -0.7989 -0.2103
   24MOL   H64718173   6.790   7.286   0.071  0.3264  0.8000 -2.3910
   24MOL   C64818174   6.756   7.093   0.013 -0.3047  0.3011 -0.2938
   24MOL   O64918175   6.674   7.010   7.689  0.0875  0.6895  0.3309
   24MOL   C65018176   6.896   7.055   0.030  0.2382  0.0724  0.0780
   24MOL   C65118177   6.976   7.068   7.612 -0.1268  0.6579 -0.1175
   24MOL   C65218178   7.132   7.059   7.625  0.3103 -0.1871 -0.2528
   24MOL   C65318179   7.217   7.063   7.501 -0.0077 -0.4585  0.5066
   24MOL   C65418180   7.213   7.194   7.419 -0.2915 -0.0886 -0.6836
   24MOL   O65518181   7.294   7.282   7.451  0.1017  0.5824  0.2823
   24MOL   N65618182   7.135   7.207   7.311 -0.2012  0.0934  0.0572
   24MOL   C65718183   7.132   7.319   7.216 -0.2809  0.7130 -0.2770
   24MOL   C65818184   7.019   7.283   7.119 -0.1145 -0.3267 -0.3004
   24MOL   C65918185   6.990   7.390   7.011  0.0268  0.1836 -0.3923
   24MOL   C66018186   6.869   7.354   6.918 -0.2341 -0.4212 -1.2241
   24MOL   C66118187   6.844   7.459   6.802 -0.0198 -0.0781  0.2936
   24MOL   C66218188   6.706   7.434   6.744 -0.1040 -0.0131  0.0415
   24MOL   N66318189   6.686   7.483   6.607 -0.5741  0.6026 -0.0859
   24MOL   H66418190   6.941   7.144   0.075  1.8853  1.4695 -4.0574
   24MOL   H66518191   6.922   6.980   0.105  1.1070  0.1165 -0.1649
   24MOL   H66618192   6.928   6.995   7.547 -0.7463  1.1024 -0.1587
   24MOL   H66718193   6.968   7.164   7.560 -1.0530 -0.1343 -1.4497
   24MOL   H66818194   7.150   6.965   7.677 -0.2225  1.4748  3.0868
   24MOL   H66918195   7.172   7.145   7.679  3.6281 -1.4043 -0.6999
   24MOL   H67018196   7.178   6.995   7.425  0.4517  1.4739 -1.5008
   24MOL   H67118197   7.317   7.021   7.508  0.6130  0.6655 -1.2968
   24MOL   H67218198   7.079   7.126   7.290  0.8064 -0.5676 -0.1185
   24MOL   H67318199   7.105   7.409   7.272  1.4590  1.7244 -1.0152
   24MOL   H67418200   7.224   7.329   7.159 -0.9961  3.0280 -1.0799
   24MOL   H67518201   7.017   7.183   7.074 -0.7247 -0.1729 -0.6249
   24MOL   H67618202   6.931   7.281   7.184  0.4198 -2.5223  0.4059
   24MOL   H67718203   7.075   7.412   6.946  1.6376 -0.5890  1.4017
   24MOL   H67818204   6.973   7.488   7.057  0.4850  0.3046 -0.4757
   24MOL   H67918205   6.878   7.255   6.873  1.1335 -1.5519  1.4579
   24MOL   H68018206   6.778   7.353   6.979 -0.4998 -0.2180 -1.6092
   24MOL   H68118207   6.858   7.559   6.843  0.4318 -0.5569  1.3407
   24MOL   H68218208   6.917   7.448   6.722 -0.1838 -0.0618  0.1415
   24MOL   H68318209   6.631   7.475   6.811  0.5728  1.9357 -0.3791
   24MOL   H68418210   6.695   7.325   6.742 -0.9458  0.0537  0.6466
   24MOL   H68518211   6.642   7.419   6.542  0.2176  0.0953 -0.1174
   24MOL   C68618212   6.707   7.607   6.560  0.1277 -0.2317  0.3465
   24MOL   O68718213   6.745   7.690   6.640  0.2622  0.2529 -0.5481
   24MOL   C68818214   6.691   7.642   6.411  0.8649  0.7708 -0.3529
   24MOL   C68918215   6.669   0.091   6.393 -0.4969 -0.1896  0.2203
   24MOL   C69018216   6.802   0.169   6.419  0.1696  0.2747  0.2766
   24MOL   C69118217   6.792   0.326   6.404 -0.0416 -0.5192 -0.2513
   24MOL   C69218218   6.918   0.397   6.364  0.0519  0.3743 -0.1869
   24MOL   O69318219   7.027   0.334   6.360 -0.1734  0.0834  0.0473
   24MOL   N69418220   6.907   0.528   6.344  0.3289  0.0323 -0.4704
   24MOL   C69518221   7.010   0.620   6.298  0.6638  0.1958 -0.4008
   24MOL   C69618222   7.032   0.735   6.390 -0.6131 -1.3134 -0.0557
   24MOL   C69718223   6.905   0.824   6.415 -0.3179 -0.1960  0.1436
   24MOL   C69818224   6.925   0.917   6.532  0.1215  0.1373 -1.0526
   24MOL   C69918225   6.795   0.986   6.575 -0.0947 -0.1639  0.5043
   24MOL   C70018226   6.801   1.063   6.705  0.7687 -0.8133 -0.4200
   24MOL   N70118227   6.673   1.139   6.729 -0.0866  0.7687  0.1296
   24MOL   H70218228   6.773   7.601   6.352  0.9140  0.5157 -0.1034
   24MOL   H70318229   6.604   7.589   6.374  0.9943  0.3105  0.0016
   24MOL   H70418230   6.635   0.122   6.294  0.8018  0.3620 -0.0685
   24MOL   H70518231   6.594   0.128   6.462 -1.0236  0.2638 -0.5943
   24MOL   H70618232   6.889   0.128   6.367  0.4119  2.9127 -1.5078
   24MOL   H70718233   6.840   0.161   6.521 -1.1221 -0.9871  0.6675
   24MOL   H70818234   6.731   0.344   6.492 -1.1844 -1.2866 -0.8612
   24MOL   H70918235   6.714   0.353   6.333  1.6771 -0.5707 -2.2109
   24MOL   H71018236   6.819   0.575   6.356 -0.9000 -2.3136  0.0258
   24MOL   H71118237   7.107   0.572   6.280  0.8510  0.4825 -0.1560
   24MOL   H71218238   6.990   0.646   6.194 -1.0888 -1.7598 -0.5746
   24MOL   H71318239   7.058   0.697   6.489  0.2179  0.7082  0.5231
   24MOL   H71418240   7.109   0.798   6.345  0.7298 -3.5180 -0.9295
   24MOL   H71518241   6.819   0.758   6.426 -0.9905  0.2644 -1.9459
   24MOL   H71618242   6.876   0.874   6.322 -0.9871 -0.4227  0.2244
   24MOL   H71718243   6.949   0.855   6.619 -0.1647  4.4476  2.2549
   24MOL   H71818244   7.004   0.992   6.522  0.1712  0.0471 -1.3435
   24MOL   H71918245   6.768   1.051   6.492 -0.9544  0.6423  1.4015
   24MOL   H72018246   6.713   0.916   6.595 -1.2984  0.8655 -0.7115
   24MOL   H72118247   6.881   1.136   6.712 -0.5071  0.3430  3.0226
   24MOL   H72218248   6.818   1.002   6.794 -2.3596 -1.4627 -0.2037
   24MOL   H72318249   6.596   1.077   6.749  1.4126 -2.3989 -3.2321
   24MOL   C72418250   6.663   1.263   6.775 -0.0734  0.3734  0.6731
   24MOL   O72518251   6.756   1.344   6.782  0.1522  0.5341 -0.0877
   24MOL   C72618252   6.528   1.309   6.839  0.5379  0.0677 -0.3841
   24MOL   C72718253   6.505   1.466   6.823 -0.2914 -0.1149  0.5596
   24MOL   C72818254   6.349   1.505   6.837  0.6923  0.5720 -0.0789
   24MOL   C72918255   6.319   1.652   6.847 -0.4348  0.3936 -0.3830
   24MOL   C73018256   6.361   1.729   6.722 -0.1745  0.2048  0.5664
   24MOL   O73118257   6.359   1.677   6.613 -0.1445  0.2024  0.4927
   24MOL   N73218258   6.395   1.856   6.735  0.2539 -0.0428  0.7538
   24MOL   C73318259   6.409   1.955   6.628 -0.4593  0.0258  0.2932
   24MOL   C73418260   6.559   2.002   6.599  0.3337 -0.3766  0.8121
   24MOL   C73518261   6.633   2.082   6.709  0.0642 -0.0299  0.3023
   24MOL   C73618262   6.779   2.110   6.659 -0.7439  0.2492 -0.4140
   24MOL   C73718263   6.872   2.181   6.761 -0.2211 -0.2122  0.4039
   24MOL   C73818264   6.898   2.103   6.896  0.1142  0.5884  1.0504
   24MOL   N73918265   7.007   2.169   6.963 -0.0495  0.1836 -0.3212
   24MOL   H74018266   6.448   1.263   6.781  0.6874  0.3363 -0.8081
   24MOL   H74118267   6.523   1.278   6.943  2.8847 -0.0329 -0.2944
   24MOL   H74218268   6.558   1.510   6.907  1.9630  0.5327 -1.1665
   24MOL   H74318269   6.546   1.508   6.731 -1.2410  0.4217  0.3760
   24MOL   H74418270   6.311   1.456   6.927 -3.5623 -0.1654 -2.1486
   24MOL   H74518271   6.294   1.453   6.759 -1.9177  1.2370  1.2187
   24MOL   H74618272   6.371   1.690   6.935 -0.0421 -0.7622 -0.1149
   24MOL   H74718273   6.211   1.658   6.863 -0.4680  0.8402 -0.7899
   24MOL   H74818274   6.384   1.886   6.831 -1.4049  0.1783  0.5181
   24MOL   H74918275   6.379   1.912   6.532  2.4360 -1.0032 -0.2302
   24MOL   H75018276   6.348   2.043   6.645 -1.6302 -0.5868 -0.6566
   24MOL   H75118277   6.627   1.919   6.578  1.7800  0.2808  2.7759
   24MOL   H75218278   6.570   2.065   6.510 -0.2396 -1.6055 -0.1290
   24MOL   H75318279   6.609   2.023   6.798 -3.1024  1.0709  0.2681
   24MOL   H75418280   6.580   2.177   6.719  0.2861  0.1821 -0.5184
   24MOL   H75518281   6.816   2.011   6.635  2.2477  1.1433  0.2736
   24MOL   H75618282   6.787   2.154   6.560 -0.8281  0.5204 -0.3020
   24MOL   H75718283   6.968   2.187   6.710 -1.7670  1.1512 -2.4375
   24MOL   H75818284   6.847   2.282   6.794 -0.7138 -0.8558  2.0802
   24MOL   H75918285   6.931   2.002   6.872 -2.0999 -0.1352  0.9676
   24MOL   H76018286   6.811   2.097   6.961 -0.5631  0.7277  0.1699
   24MOL   H76118287   7.069   2.199   6.889  0.6787 -0.2975  0.0842
   24MOL   H76218288   6.975   2.257   7.001  0.3280 -0.9562  2.7821
   25MOL     C118289   3.401   5.523   5.490  0.0647  0.1262 -0.4586
   25MOL     O218290   3.480   5.613   5.494 -0.3692 -0.0474 -0.1511
   25MOL     C318291   3.351   5.481   5.352  0.6720  0.2568 -0.2356
   25MOL     C418292   3.264   5.594   5.282  0.4175 -0.4273 -0.1250
   25MOL     C518293   3.149   5.643   5.366 -0.0671 -0.7138  0.1332
   25MOL     C618294   3.055   5.535   5.429  0.6655 -0.1426  0.1208
   25MOL     C718295   2.968   5.461   5.328  0.3627 -0.4845 -0.2739
   25MOL     O818296   2.905   5.524   5.244  0.0225 -0.3767  0.1479
   25MOL     N918297   2.974   5.325   5.335 -0.7333  0.3087  0.2486
   25MOL    C1018298   2.917   5.229   5.241 -0.3945  0.6289  0.4142
   25MOL    C1118299   2.985   5.219   5.102  0.1985 -0.2803 -0.2032
   25MOL    C1218300   3.142   5.220   5.099  0.1330 -0.4111 -0.4073
   25MOL    C1318301   3.188   5.171   4.965 -0.3970 -0.6193  0.3627
   25MOL    C1418302   3.325   5.236   4.920  0.3454  0.2485 -0.5947
   25MOL    C1518303   3.387   5.171   4.792 -0.0127 -0.0625 -0.1571
   25MOL    N1618304   3.526   5.212   4.761 -0.4889 -0.4011 -0.2455
   25MOL    H1718305   3.445   5.457   5.301 -1.0075 -1.9334 -2.4444
   25MOL    H1818306   3.294   5.388   5.361 -0.5922  0.8407 -1.9417
   25MOL    H1918307   3.335   5.668   5.245  1.7955 -2.0627 -0.8246
   25MOL    H2018308   3.219   5.544   5.196 -1.5200 -1.0833  1.2336
   25MOL    H2118309   3.085   5.712   5.311  1.0975  1.8629  1.8798
   25MOL    H2218310   3.196   5.699   5.447  3.3995 -0.9561 -1.6093
   25MOL    H2318311   2.991   5.605   5.483  0.2822 -0.6650  0.3380
   25MOL    H2418312   3.098   5.460   5.494  0.7086  1.6945  2.2651
   25MOL    H2518313   3.041   5.286   5.399 -1.3659 -1.2305  0.0017
   25MOL    H2618314   2.937   5.132   5.286  0.5258  1.6806  2.3604
   25MOL    H2718315   2.809   5.233   5.230 -0.4306  0.3613  0.6665
   25MOL    H2818316   2.947   5.126   5.060 -2.2827  1.0056 -0.9396
   25MOL    H2918317   2.943   5.290   5.029 -1.7088 -0.5199  0.6289
   25MOL    H3018318   3.170   5.159   5.185 -0.0385 -0.3395 -0.2993
   25MOL    H3118319   3.187   5.317   5.122  0.3988 -0.6932  0.3005
   25MOL    H3218320   3.184   5.063   4.954  0.0261 -0.4363 -1.9289
   25MOL    H3318321   3.121   5.208   4.887  0.5426  1.3861  0.4674
   25MOL    H3418322   3.318   5.345   4.917  0.7780  0.3810  2.0255
   25MOL    H3518323   3.387   5.212   5.007  0.4598 -1.9589 -1.2728
   25MOL    H3618324   3.323   5.211   4.714  0.5402  1.6815  0.2766
   25MOL    H3718325   3.374   5.062   4.792 -3.1283  0.2818 -0.2194
   25MOL    H3818326   3.575   5.276   4.822  1.2925 -0.2039 -1.8484
   25MOL    H3918327   3.367   5.460   5.572  1.7957  0.5586  0.5966
   25MOL    C4018328   3.593   5.156   4.662 -0.0952  0.4096 -0.1668
   25MOL    O4118329   3.548   5.070   4.589  0.7256  0.0467 -0.1837
   25MOL    C4218330   3.745   5.196   4.637  0.2330  0.3559  0.1705
   25MOL    C4318331   3.845   5.074   4.645  0.6712 -0.2723 -0.1439
   25MOL    C4418332   3.989   5.113   4.647  0.9701  0.3459 -0.1932
   25MOL    C4518333   4.094   5.005   4.683 -0.4028 -0.3479 -1.1530
   25MOL    C4618334   4.103   4.899   4.580 -0.0739  0.5506  0.0666
   25MOL    O4718335   4.145   4.932   4.472 -0.4708 -0.4457 -0.8368
   25MOL    N4818336   4.072   4.771   4.604 -0.2349 -0.5271 -0.4147
   25MOL    C4918337   4.101   4.658   4.516 -0.0534 -0.4685 -0.0632
   25MOL    C5018338   4.065   4.528   4.584 -0.1618 -0.7271 -0.4615
   25MOL    C5118339   3.920   4.489   4.571 -0.0598  0.0870 -0.3541
   25MOL    C5218340   3.905   4.347   4.635 -0.3995  0.2652  0.4675
   25MOL    C5318341   3.775   4.275   4.630  0.3361 -0.1453 -0.2842
   25MOL    C5418342   3.646   4.349   4.587  0.0022  0.0213 -0.2692
   25MOL    N5518343   3.537   4.248   4.580  0.3039 -0.6724 -0.2325
   25MOL    H5618344   3.746   5.234   4.535 -1.2250  1.3552  0.5268
   25MOL    H5718345   3.770   5.282   4.699  0.8922 -0.5360  1.1482
   25MOL    H5818346   3.812   5.031   4.739 -0.3700 -0.3094 -0.5216
   25MOL    H5918347   3.824   4.996   4.572 -2.8330 -0.4386  0.9526
   25MOL    H6018348   4.005   5.192   4.721 -1.6828 -0.2887  1.0935
   25MOL    H6118349   4.020   5.157   4.552  2.4059 -2.0028 -0.8599
   25MOL    H6218350   4.077   4.969   4.785  0.2824  0.2848 -0.8038
   25MOL    H6318351   4.186   5.064   4.694 -1.5120  0.9149  1.7778
   25MOL    H6418352   4.040   4.747   4.697  0.0758  2.0962  0.3915
   25MOL    H6518353   4.053   4.669   4.419  2.2778 -3.2175 -1.5804
   25MOL    H6618354   4.208   4.659   4.496 -0.4836  1.3290 -2.4860
   25MOL    H6718355   4.124   4.463   4.519  1.6233 -1.3008  1.6711
   25MOL    H6818356   4.108   4.508   4.682  1.1838 -5.1004 -1.8080
   25MOL    H6918357   3.883   4.489   4.468  1.2947 -2.8367 -0.8858
   25MOL    H7018358   3.850   4.556   4.621 -2.1354 -1.5023 -1.0063
   25MOL    H7118359   3.984   4.285   4.591  0.0554 -0.9604  2.9388
   25MOL    H7218360   3.919   4.352   4.743 -1.2862  0.9650  0.5489
   25MOL    H7318361   3.778   4.197   4.554  1.6277  1.1066 -1.5654
   25MOL    H7418362   3.756   4.221   4.722  1.0517 -0.2513 -0.1988
   25MOL    H7518363   3.665   4.400   4.493  0.0515 -1.0337 -0.8444
   25MOL    H7618364   3.635   4.433   4.656  1.6074  0.2367 -0.2552
   25MOL    H7718365   3.567   4.157   4.546 -0.1511 -0.5260 -1.0243
   25MOL    C7818366   3.414   4.269   4.622 -0.1420 -0.1188 -0.2563
   25MOL    O7918367   3.379   4.380   4.655  0.1075 -0.0001 -0.9377
   25MOL    C8018368   3.322   4.148   4.640 -0.7868 -0.6152 -0.7881
   25MOL    C8118369   3.284   4.121   4.791 -0.3487  0.0351 -0.0400
   25MOL    C8218370   3.385   4.045   4.873  0.7265  0.1668  0.4690
   25MOL    C8318371   3.364   4.063   5.027 -0.5774 -0.2499 -0.0548
   25MOL    C8418372   3.480   4.001   5.118  0.1064 -0.2848 -0.2961
   25MOL    O8518373   3.542   3.897   5.089 -0.1165  0.5555 -0.4566
   25MOL    N8618374   3.515   4.074   5.221  0.8312  0.2933  0.3377
   25MOL    C8718375   3.605   4.045   5.327  0.2065 -0.4303  0.0330
   25MOL    C8818376   3.584   4.124   5.458 -0.1679  0.0582 -0.2761
   25MOL    C8918377   3.459   4.083   5.533  0.8356 -0.4052 -0.2392
   25MOL    C9018378   3.409   4.179   5.649  0.4921  0.1669 -0.1431
   25MOL    C9118379   3.514   4.212   5.751  0.0098  0.5157  0.3622
   25MOL    C9218380   3.457   4.322   5.840 -0.0619 -0.1750  0.1583
   25MOL    N9318381   3.549   4.346   5.954  0.1922 -0.2063  0.4346
   25MOL    H9418382   3.236   4.156   4.574  0.2449 -0.0584 -2.0897
   25MOL    H9518383   3.378   4.061   4.608 -0.4289 -0.5694 -0.2970
   25MOL    H9618384   3.259   4.217   4.834  2.3609 -0.0229  1.7902
   25MOL    H9718385   3.189   4.073   4.768  0.9724 -1.0367 -3.4784
   25MOL    H9818386   3.482   4.093   4.861  0.6913  1.1026  3.3997
   25MOL    H9918387   3.390   3.939   4.848  2.1833  0.9275 -2.7536
   25MOL   H10018388   3.264   4.025   5.049 -0.9380  0.9491  0.4634
   25MOL   H10118389   3.357   4.169   5.053  1.2500 -0.0640 -0.2830
   25MOL   H10218390   3.476   4.167   5.227 -1.2138 -0.6044  1.7112
   25MOL   H10318391   3.611   3.937   5.343  0.1601 -0.9391 -3.0287
   25MOL   H10418392   3.701   4.065   5.280 -0.0056 -0.8230 -0.5704
   25MOL   H10518393   3.662   4.108   5.532 -0.5524 -0.2814  0.0591
   25MOL   H10618394   3.585   4.232   5.442  0.3064  0.4455  2.1495
   25MOL   H10718395   3.466   3.987   5.583 -1.1480 -0.2885  0.2971
   25MOL   H10818396   3.375   4.065   5.466  1.5104 -1.9652 -0.6793
   25MOL   H10918397   3.382   4.274   5.602 -0.5443 -1.4628 -2.9630
   25MOL   H11018398   3.317   4.135   5.689 -0.3788  0.8711 -1.3268
   25MOL   H11118399   3.544   4.123   5.806 -0.8475 -0.3993 -0.6524
   25MOL   H11218400   3.611   4.242   5.712 -0.5256  1.3982 -0.3051
   25MOL   H11318401   3.356   4.293   5.869  0.5683 -0.8083  1.7480
   25MOL   H11418402   3.432   4.408   5.777  0.4468 -0.0462  0.1265
   25MOL   H11518403   3.639   4.303   5.943 -1.0188 -2.5384 -0.6291
   25MOL   C11618404   3.513   4.424   6.063 -0.5429 -0.2201 -0.2769
   25MOL   O11718405   3.411   4.491   6.069  0.6071  0.3307  0.3528
   25MOL   C11818406   3.615   4.414   6.187 -0.7288  0.2046 -0.4826
   25MOL   C11918407   3.548   4.394   6.326  0.0187  0.1280 -0.0747
   25MOL   C12018408   3.630   4.466   6.440  0.4258 -0.1278  0.2445
   25MOL   C12118409   3.561   4.460   6.579  0.5007 -0.2726  0.1877
   25MOL   C12218410   3.643   4.546   6.674  0.4909 -0.2626  1.0213
   25MOL   O12318411   3.722   4.633   6.639  0.0714  0.4823  0.2775
   25MOL   N12418412   3.624   4.513   6.799  0.1062  0.3203  0.0958
   25MOL   C12518413   3.694   4.570   6.914  0.2471 -0.3951 -0.8281
   25MOL   C12618414   3.769   4.468   7.006 -0.0347 -0.3091  0.0558
   25MOL   C12718415   3.897   4.413   6.944 -0.3107 -0.2659 -0.3756
   25MOL   C12818416   3.980   4.340   7.049  0.4893  0.4401 -0.5439
   25MOL   C12918417   4.129   4.338   7.005  0.5670  0.6441 -0.0219
   25MOL   C13018418   4.225   4.246   7.086  0.2962  0.1865  0.0945
   25MOL   N13118419   4.235   4.307   7.217  1.3675 -0.3303 -0.3029
   25MOL   H13218420   3.688   4.334   6.179 -0.7703  0.2233 -1.0819
   25MOL   H13318421   3.665   4.511   6.187  1.0084 -0.6684 -1.8590
   25MOL   H13418422   3.452   4.446   6.325 -1.1862 -2.0564 -1.3202
   25MOL   H13518423   3.521   4.292   6.354 -0.9252  1.0985  2.7783
   25MOL   H13618424   3.663   4.565   6.408  0.2729  0.2999  1.4144
   25MOL   H13718425   3.723   4.409   6.449 -0.9874 -2.1227  2.9023
   25MOL   H13818426   3.540   4.356   6.606 -2.6054  0.5093  0.9671
   25MOL   H13918427   3.465   4.510   6.565  0.7678 -0.7577 -4.0799
   25MOL   H14018428   3.554   4.443   6.816  1.0586 -0.9543 -1.1459
   25MOL   H14118429   3.765   4.646   6.880  1.6286 -2.0052 -1.6143
   25MOL   H14218430   3.618   4.615   6.978 -0.5149 -4.0833  0.9959
   25MOL   H14318431   3.801   4.510   7.102 -1.5055  1.4751 -0.2101
   25MOL   H14418432   3.699   4.386   7.023  0.8116 -1.2708 -1.0332
   25MOL   H14518433   3.955   4.485   6.886 -1.9040  1.2409 -0.1357
   25MOL   H14618434   3.865   4.343   6.866 -0.7098  0.8332 -1.2040
   25MOL   H14718435   3.985   4.391   7.145  2.8645  1.2847 -1.0684
   25MOL   H14818436   3.943   4.238   7.055  0.4289  0.5909  2.4704
   25MOL   H14918437   4.133   4.301   6.903 -3.1977  0.2540 -0.0994
   25MOL   H15018438   4.187   4.430   7.011  1.1577  0.2672  0.0182
   25MOL   H15118439   4.318   4.237   7.029  1.0215 -1.2255  1.4660
   25MOL   H15218440   4.188   4.143   7.081 -2.5723  1.1746 -0.0099
   25MOL   H15318441   4.259   4.405   7.213  2.4048 -0.5848 -0.5952
   25MOL   C15418442   4.193   4.264   7.332  0.4350 -0.6389  0.3161
   25MOL   O15518443   4.141   4.153   7.345  0.3167  0.4013  0.0721
   25MOL   C15618444   4.185   4.358   7.449 -0.1716 -0.0384  0.4472
   25MOL   C15718445   4.039   4.391   7.473  0.4169 -0.2177  0.1248
   25MOL   C15818446   4.021   4.508   7.566  0.6874  0.6381  0.3225
   25MOL   C15918447   3.870   4.528   7.583  0.0991  0.3649  0.1209
   25MOL   C16018448   3.824   4.651   7.664 -0.0299  0.4498 -0.2393
   25MOL   O16118449   3.829   4.650   0.080 -0.5093 -0.0114  0.4074
   25MOL   N16218450   3.774   4.751   7.601 -0.4751  0.1049  0.3847
   25MOL   C16318451   3.698   4.848   7.681  0.4810 -0.7141  0.3827
   25MOL   C16418452   3.645   4.955   7.583  0.1163 -0.3931  0.7627
   25MOL   C16518453   3.574   5.071   7.652 -0.1387  0.1234  0.2942
   25MOL   C16618454   3.547   5.197   7.564 -0.9618 -0.1123 -0.1416
   25MOL   C16718455   3.420   5.193   7.472 -0.2475 -0.5072 -0.2829
   25MOL   C16818456   3.416   5.308   7.380 -0.4945 -1.0124 -0.2827
   25MOL   N16918457   3.311   5.290   7.284  0.7886  0.0901  0.2563
   25MOL   H17018458   4.227   4.311   7.539  0.0199 -1.2633 -0.2673
   25MOL   H17118459   4.243   4.449   7.432 -1.0322  0.5023  0.3967
   25MOL   H17218460   3.994   4.421   7.378  1.0165  1.4871  0.3675
   25MOL   H17318461   3.985   4.305   7.512 -0.7397 -0.1052 -1.1800
   25MOL   H17418462   4.075   4.595   7.529 -1.1647  1.3915 -0.6745
   25MOL   H17518463   4.059   4.480   7.664 -2.8664 -2.4334  0.9265
   25MOL   H17618464   3.832   4.441   7.636 -0.2106  0.1367 -0.4786
   25MOL   H17718465   3.810   4.533   7.492  0.5342  0.9270 -0.1378
   25MOL   H17818466   3.782   4.757   7.500 -0.6013 -0.9775  0.2996
   25MOL   H17918467   3.624   4.804   0.040  0.5350  1.0993  1.6579
   25MOL   H18018468   3.766   4.901   0.039 -0.8623 -1.9861  2.8376
   25MOL   H18118469   3.731   4.998   7.532 -1.2819  1.2773 -0.2431
   25MOL   H18218470   3.582   4.898   7.514 -0.0790  0.2151  0.4403
   25MOL   H18318471   3.642   5.106   0.022  1.9954  1.7362 -2.1681
   25MOL   H18418472   3.482   5.035   7.697 -0.5070 -1.4612 -1.6442
   25MOL   H18518473   3.533   5.288   7.622  2.1444  0.3822 -0.1236
   25MOL   H18618474   3.637   5.211   7.505  0.5674 -1.2216  1.8784
   25MOL   H18718475   3.417   5.098   7.420 -0.9296 -1.5129  1.5603
   25MOL   H18818476   3.328   5.187   7.531 -0.0197  2.4961  0.4772
   25MOL   H18918477   3.507   5.307   7.320 -0.1790  1.4732  0.1273
   25MOL   H19018478   3.403   5.400   7.437 -2.9003 -1.8328  0.5874
   25MOL   H19118479   3.259   5.203   7.284  0.1261  0.4548  1.9668
   25MOL   C19218480   3.274   5.390   7.200 -0.0575 -0.0390  0.0427
   25MOL   O19318481   3.323   5.502   7.192  0.2861  0.1969 -0.3998
   25MOL   C19418482   3.164   5.352   7.102  0.5423 -0.4975  0.5420
   25MOL   C19518483   3.202   5.381   6.959  0.0376 -0.9450  0.9016
   25MOL   C19618484   3.315   5.301   6.901 -0.5074  0.1345  0.2293
   25MOL   C19718485   3.379   5.348   6.763  0.2703 -0.2832  0.1534
   25MOL   C19818486   3.485   5.458   6.763  0.9383  0.2668 -0.1414
   25MOL   O19918487   3.595   5.445   6.817  0.0693 -0.0828 -0.0667
   25MOL   N20018488   3.451   5.570   6.709 -0.4775  0.1927  0.0687
   25MOL   C20118489   3.522   5.692   6.713 -0.1044  0.0655 -0.1169
   25MOL   C20218490   3.447   5.799   6.795  0.0018  0.2857 -0.0645
   25MOL   C20318491   3.437   5.765   6.941 -0.5507 -0.0516 -0.2363
   25MOL   C20418492   3.334   5.841   7.023 -0.0720 -0.1708  0.2102
   25MOL   C20518493   3.378   5.977   7.067  0.0404 -0.2873 -0.8476
   25MOL   C20618494   3.262   6.069   7.101  0.1527  0.1607 -0.3812
   25MOL   N20718495   3.306   6.200   7.127  0.0756 -0.0282  0.1410
   25MOL   H20818496   3.149   5.246   7.117 -0.1961 -0.4032  0.4922
   25MOL   H20918497   3.069   5.399   7.130  1.7444  2.5884 -0.3397
   25MOL   H21018498   3.110   5.376   6.901 -1.0292 -3.8911  2.6826
   25MOL   H21118499   3.231   5.484   6.940 -1.3790 -0.8799 -1.0608
   25MOL   H21218500   3.278   5.199   6.898  0.2122 -0.1344  0.3784
   25MOL   H21318501   3.396   5.293   6.975  0.6626  0.1637 -1.0286
   25MOL   H21418502   3.305   5.361   6.685  0.4018 -3.5701 -0.6016
   25MOL   H21518503   3.439   5.264   6.727  2.2435  0.8284  0.7930
   25MOL   H21618504   3.365   5.571   6.657  1.5585  0.1406 -3.4853
   25MOL   H21718505   3.626   5.681   6.745 -0.1910  2.5660  1.1911
   25MOL   H21818506   3.521   5.731   6.611 -0.3284  1.5818  0.4515
   25MOL   H21918507   3.487   5.900   6.789  1.5045 -0.2257  1.0481
   25MOL   H22018508   3.347   5.794   6.752  1.0833 -1.6573 -2.4215
   25MOL   H22118509   3.538   5.784   6.978 -0.9550 -0.9257  1.3598
   25MOL   H22218510   3.426   5.658   6.958 -0.0792 -0.3512 -1.7188
   25MOL   H22318511   3.249   5.861   6.957  0.9431 -0.6207 -1.2669
   25MOL   H22418512   3.299   5.789   7.112 -2.7131 -0.8593 -1.1903
   25MOL   H22518513   3.454   5.985   7.145  1.4551  0.0255 -2.2378
   25MOL   H22618514   3.417   6.031   6.981  1.3415  0.6684  0.3248
   25MOL   H22718515   3.193   6.018   7.168 -1.0860  2.0717 -0.1670
   25MOL   H22818516   3.217   6.070   7.001 -1.3181 -1.1628  0.2502
   25MOL   H22918517   3.403   6.219   7.149  0.1234  0.7743 -0.7318
   25MOL   C23018518   3.215   6.297   7.147  0.3321 -0.5979  0.1830
   25MOL   O23118519   3.098   6.279   7.141 -0.2377  0.4503 -0.5403
   25MOL   C23218520   3.259   6.443   7.163  0.1693  0.4363  0.2846
   25MOL   C23318521   3.252   6.483   7.306 -0.2757  0.1996  0.1155
   25MOL   C23418522   3.320   6.622   7.336  0.1612  0.3744 -0.4180
   25MOL   C23518523   3.282   6.680   7.476 -0.1034 -0.2364  0.1862
   25MOL   C23618524   3.399   6.752   7.531  0.4119  0.2325 -0.3406
   25MOL   O23718525   3.453   6.840   7.461 -0.7495 -0.3152  0.4686
   25MOL   N23818526   3.445   6.716   7.651  0.4986  0.0976  0.1324
   25MOL   C23918527   3.539   6.791   0.029  0.1523  0.0600  0.1326
   25MOL   C24018528   3.675   6.729   0.023 -0.3398  0.1013  0.0162
   25MOL   C24118529   3.774   6.766   0.137 -0.1585 -0.2696  0.1910
   25MOL   C24218530   3.911   6.702   0.140  0.0979 -0.4349 -0.0379
   25MOL   C24318531   3.996   6.745   0.265 -0.2410  0.5860  0.2963
   25MOL   C24418532   4.136   6.682   0.252 -0.2000 -0.3159 -0.1517
   25MOL   N24518533   4.227   6.729   0.356  0.0508 -0.2981  0.0737
   25MOL   H24618534   3.363   6.447   7.129 -0.2692  0.9429 -1.0646
   25MOL   H24718535   3.190   6.507   7.108  0.6211  2.0445  1.5308
   25MOL   H24818536   3.148   6.502   7.333 -0.5624 -1.8591  0.5732
   25MOL   H24918537   3.303   6.414   7.374  0.7872  0.3544 -0.5140
   25MOL   H25018538   3.277   6.691   7.263 -1.8644  0.9851  1.2866
   25MOL   H25118539   3.428   6.613   7.323  0.0149 -0.8280 -0.8692
   25MOL   H25218540   3.257   6.604   7.550 -0.6276  0.2970  0.5703
   25MOL   H25318541   3.196   6.747   7.463  0.9502  1.3709  1.3127
   25MOL   H25418542   3.386   6.654   7.706 -1.4998  1.3103 -0.6123
   25MOL   H25518543   3.556   6.895   0.003 -0.0498  0.6208  2.1352
   25MOL   H25618544   3.506   6.788   0.133 -0.8946  1.7414 -0.1267
   25MOL   H25718545   3.675   6.620   0.023  2.3759  0.0575 -0.6383
   25MOL   H25818546   3.725   6.764   7.641  1.3698  2.8589  1.9438
   25MOL   H25918547   3.733   6.742   0.235 -0.5627  2.4053  0.7147
   25MOL   H26018548   3.800   6.872   0.127  1.0310 -0.7358 -1.9365
   25MOL   H26118549   3.896   6.594   0.146 -2.6995 -0.2193 -2.2049
   25MOL   H26218550   3.966   6.726   0.050  0.5880  0.4994  0.5043
   25MOL   H26318551   3.997   6.854   0.268  2.0637  0.6427 -1.1869
   25MOL   H26418552   3.953   6.722   0.362 -1.3918  4.3552  0.7562
   25MOL   H26518553   4.184   6.693   0.155  1.5499  0.4155  0.7868
   25MOL   H26618554   4.120   6.575   0.264 -0.4617 -0.2214  0.3340
   25MOL   H26718555   4.289   6.800   0.318 -0.9016  1.2397  1.3543
   25MOL   C26818556   4.224   6.694   0.485 -0.2945 -0.5084 -0.0368
   25MOL   O26918557   4.165   6.598   0.523  0.4780  0.4506 -0.1587
   25MOL   C27018558   4.325   6.769   0.573 -0.1503 -0.2657 -0.1915
   25MOL   C27118559   4.258   6.834   0.700 -0.8306  0.6594 -0.3600
   25MOL   C27218560   4.361   6.883   0.806  0.4028  0.0622  0.3097
   25MOL   C27318561   4.436   6.778   0.898 -0.0999 -0.1183 -0.0309
   25MOL   C27418562   4.334   6.688   0.975  0.4406 -0.7971  0.5905
   25MOL   O27518563   4.246   6.734   1.047  0.7176 -0.0091  0.3072
   25MOL   N27618564   4.345   6.552   0.963  0.3306  0.1439  0.2856
   25MOL   C27718565   4.247   6.467   1.025 -0.3236  0.1298  0.3942
   25MOL   C27818566   4.264   6.322   0.968 -0.0761 -0.4238 -0.3864
   25MOL   C27918567   4.167   6.222   1.036  0.4138  0.2505  0.5389
   25MOL   C28018568   4.213   6.175   1.177 -0.5498  0.9685  0.4883
   25MOL   C28118569   4.093   6.116   1.257 -0.2518  0.3948 -0.7468
   25MOL   C28218570   4.130   6.066   1.401 -0.4694 -0.4056 -0.0695
   25MOL   N28318571   4.008   6.026   1.483 -0.2533 -0.1346 -0.0665
   25MOL   H28418572   4.397   6.698   0.613 -0.8178 -0.8922 -0.0886
   25MOL   H28518573   4.382   6.837   0.510  1.0844 -0.5804  0.5685
   25MOL   H28618574   4.200   6.920   0.666  2.7460  2.4505 -2.1932
   25MOL   H28718575   4.199   6.763   0.758  0.2399  0.8966  1.0439
   25MOL   H28818576   4.326   6.960   0.876  1.0837  2.4774 -1.9368
   25MOL   H28918577   4.442   6.943   0.765 -1.0242  1.2164 -0.9008
   25MOL   H29018578   4.492   6.836   0.971  0.3328 -1.8676  1.0468
   25MOL   H29118579   4.511   6.721   0.845  2.8888  3.8854 -0.3521
   25MOL   H29218580   4.429   6.522   0.916  2.3578  4.2422  1.0760
   25MOL   H29318581   4.257   6.465   1.134  0.8686 -0.1811  0.2869
   25MOL   H29418582   4.144   6.504   1.022 -0.3019  0.3133  1.5501
   25MOL   H29518583   4.257   6.328   0.860  0.7312  0.2388 -0.4100
   25MOL   H29618584   4.367   6.292   0.986 -0.0981 -0.7786 -0.8655
   25MOL   H29718585   4.149   6.134   0.975  2.4526  1.3838 -1.8058
   25MOL   H29818586   4.066   6.260   1.047 -0.1970 -0.7896 -1.3107
   25MOL   H29918587   4.290   6.098   1.174 -1.3978  0.0863  1.1581
   25MOL   H30018588   4.256   6.258   1.233  2.5836 -0.2852  0.0464
   25MOL   H30118589   4.024   6.199   1.265 -2.9765 -1.6682 -2.1037
   25MOL   H30218590   4.045   6.041   1.194  0.5778 -1.1334  0.4069
   25MOL   H30318591   4.174   6.151   1.454 -1.7184 -0.1457  0.5860
   25MOL   H30418592   4.203   5.986   1.407  1.4705  1.2285 -1.5714
   25MOL   H30518593   3.965   6.097   1.540  0.6298  0.9982 -0.7752
   25MOL   C30618594   3.959   5.905   1.504 -0.1541 -0.0437  0.2216
   25MOL   O30718595   3.999   5.810   1.436  0.0691 -0.5088 -0.8296
   25MOL   C30818596   3.842   5.884   1.602 -0.0104 -0.0607 -0.3055
   25MOL   C30918597   3.888   5.801   1.724  0.1668 -0.0482  0.1612
   25MOL   C31018598   3.803   5.810   1.850  0.0565 -0.3324  0.7153
   25MOL   C31118599   3.653   5.773   1.824  0.2488 -0.1853 -1.0349
   25MOL   C31218600   3.571   5.826   1.942 -0.1603  0.3060  0.8589
   25MOL   O31318601   3.539   5.943   1.933 -0.2328  0.2948  0.1954
   25MOL   N31418602   3.531   5.749   2.046 -0.4024 -1.0297  0.2945
   25MOL   C31518603   3.432   5.787   2.145 -0.6469 -0.5585  0.6052
   25MOL   C31618604   3.487   5.750   2.285  0.3123 -0.4876  0.2373
   25MOL   C31718605   3.370   5.746   2.386 -0.4238  0.3685  0.3120
   25MOL   C31818606   3.428   5.742   2.531  0.5394 -0.1529  0.1377
   25MOL   C31918607   3.459   5.888   2.587 -0.6373  0.1760 -0.0990
   25MOL   C32018608   3.502   5.880   2.733  0.3146  0.0788  0.2233
   25MOL   N32118609   3.653   5.864   2.742  0.4453 -0.1092 -0.9502
   25MOL   H32218610   3.807   5.982   1.634 -1.9959  0.0375 -2.6993
   25MOL   H32318611   3.758   5.838   1.550 -2.1392  3.7511 -0.3972
   25MOL   H32418612   3.883   5.702   1.678 -1.3008  0.8270 -1.6249
   25MOL   H32518613   3.992   5.824   1.747  0.1258  0.2660  0.0308
   25MOL   H32618614   3.807   5.912   1.887 -0.3362  0.2025 -0.6593
   25MOL   H32718615   3.851   5.747   1.924 -2.0769 -2.9955 -0.0622
   25MOL   H32818616   3.640   5.665   1.818  0.2392 -0.2644  0.2149
   25MOL   H32918617   3.604   5.820   1.739 -2.2914 -0.3357  0.2940
   25MOL   H33018618   3.561   5.652   2.043 -1.0018 -1.1819 -1.7979
   25MOL   H33118619   3.397   5.890   2.144 -0.3182 -0.4425 -0.8355
   25MOL   H33218620   3.344   5.727   2.121 -1.9556  0.7278  2.0900
   25MOL   H33318621   3.528   5.650   2.277  2.4138  0.3757 -0.1539
   25MOL   H33418622   3.570   5.806   2.329  0.8776 -1.8325  0.9075
   25MOL   H33518623   3.321   5.649   2.377  0.3378  0.1423 -1.6593
   25MOL   H33618624   3.296   5.824   2.370 -0.6351  0.4046  1.4192
   25MOL   H33718625   3.354   5.704   2.601  1.6806 -0.9243  0.9548
   25MOL   H33818626   3.509   5.669   2.531 -0.6549 -1.5126 -0.0415
   25MOL   H33918627   3.540   5.940   2.536 -0.4336 -0.4700 -0.4357
   25MOL   H34018628   3.368   5.948   2.574 -0.0676  1.2449  0.7935
   25MOL   H34118629   3.449   5.797   2.779  1.2706 -0.2155  0.8071
   25MOL   H34218630   3.472   5.970   2.787 -1.4315 -2.3212  3.4232
   25MOL   H34318631   3.696   5.944   2.785  0.9149 -0.4481 -0.7790
   25MOL   C34418632   3.715   5.744   2.746 -0.0939 -0.0240  0.0352
   25MOL   O34518633   3.656   5.641   2.714 -0.3766  0.6909  0.1202
   25MOL   C34618634   3.864   5.742   2.797  0.2096 -0.2651  0.0748
   25MOL   C34718635   3.956   5.695   2.688 -0.0079  0.1322 -0.1070
   25MOL   C34818636   4.100   5.686   2.739  0.5634  0.1207  0.5222
   25MOL   C34918637   4.190   5.632   2.618  0.4020  0.0479 -0.5712
   25MOL   C35018638   4.335   5.639   2.656 -0.2539 -0.1086 -0.1656
   25MOL   O35118639   4.385   5.550   2.723 -0.0845 -0.0431  0.1470
   25MOL   N35218640   4.408   5.733   2.602  0.0001  0.5283 -1.0178
   25MOL   C35318641   4.551   5.751   2.620 -0.5710  0.2960  0.7535
   25MOL   C35418642   4.640   5.634   2.569  0.7353  0.1636 -0.4276
   25MOL   C35518643   4.627   5.618   2.413 -0.6880  0.0920 -0.2888
   25MOL   C35618644   4.737   5.528   2.367 -0.2517 -0.1161 -0.7052
   25MOL   C35718645   4.726   5.475   2.220 -0.2993 -0.5425 -0.3112
   25MOL   C35818646   4.746   5.580   2.109  0.3172 -0.0353 -0.8724
   25MOL   N35918647   4.751   5.504   1.982 -0.1554  0.1019 -0.0484
   25MOL   H36018648   3.897   5.842   2.825  0.2078  0.3184 -1.9437
   25MOL   H36118649   3.877   5.670   2.878  2.1017 -0.9618 -0.8080
   25MOL   H36218650   3.915   5.604   2.644  4.1666 -1.8556 -0.1031
   25MOL   H36318651   3.960   5.767   2.606 -0.4172  0.9544  0.5834
   25MOL   H36418652   4.113   5.616   2.822 -2.1169  0.1226  0.9876
   25MOL   H36518653   4.140   5.783   2.767  0.0768  0.4080  0.2238
   25MOL   H36618654   4.178   5.702   2.534 -1.7958  2.4060  1.6100
   25MOL   H36718655   4.162   5.533   2.583 -0.0753 -0.6691  1.7957
   25MOL   H36818656   4.376   5.785   2.522  1.9423  1.0259 -1.4886
   25MOL   H36918657   4.582   5.846   2.578  2.4992 -1.4316 -1.0507
   25MOL   H37018658   4.571   5.756   2.727 -0.9496 -3.1490  1.0521
   25MOL   H37118659   4.739   5.666   2.599  0.2708  0.1550  1.1679
   25MOL   H37218660   4.618   5.547   2.631  0.4051  1.1834  0.9148
   25MOL   H37318661   4.630   5.720   2.375 -1.5069 -0.1364 -0.9868
   25MOL   H37418662   4.529   5.584   2.379 -0.9490 -0.4991  1.0385
   25MOL   H37518663   4.835   5.575   2.379  0.1031 -1.1407  0.6282
   25MOL   H37618664   4.745   5.445   2.438 -1.9421 -0.6152 -1.0857
   25MOL   H37718665   4.811   5.409   2.214 -0.4465 -0.7764  0.1370
   25MOL   H37818666   4.636   5.415   2.203  1.0291 -3.2132  1.7442
   25MOL   H37918667   4.821   5.658   2.123  0.0088  0.2312 -0.6837
   25MOL   H38018668   4.660   5.646   2.101 -1.0902 -1.9108 -1.7807
   25MOL   H38118669   4.819   5.431   1.972 -1.3565 -0.8470 -1.5605
   25MOL   C38218670   4.690   5.541   1.872  0.5885 -0.6250  0.2520
   25MOL   O38318671   4.605   5.626   1.871  0.0959  0.7089  1.0893
   25MOL   C38418672   4.728   5.465   1.750  0.3312 -0.3644  0.5164
   25MOL   C38518673   4.807   5.556   1.657  0.4397  0.3497 -0.2360
   25MOL   C38618674   4.835   5.483   1.524  0.5732 -0.1243 -0.0528
   25MOL   C38718675   4.909   5.568   1.415 -0.2684  0.5909 -0.5284
   25MOL   C38818676   4.833   5.689   1.366  0.5775 -0.0643  0.4533
   25MOL   O38918677   4.848   5.791   1.438  0.2174 -0.1599  0.0286
   25MOL   N39018678   4.752   5.676   1.256  0.2288 -0.0618  0.5219
   25MOL   C39118679   4.654   5.781   1.213  0.8649 -0.3741 -0.2761
   25MOL   C39218680   4.526   5.703   1.168 -0.5936  0.1605 -0.4600
   25MOL   C39318681   4.430   5.800   1.114 -0.1548 -0.1840  0.2660
   25MOL   C39418682   4.305   5.746   1.051 -0.5029 -0.2566  0.6393
   25MOL   C39518683   4.179   5.831   1.066  0.1290 -0.5599 -0.3401
   25MOL   C39618684   4.055   5.791   0.971 -0.0122 -0.6305  0.0280
   25MOL   N39718685   4.083   5.818   0.829 -0.3520  0.2532 -0.5776
   25MOL   H39818686   4.782   5.375   1.777 -1.7573 -1.0981  2.3424
   25MOL   H39918687   4.637   5.429   1.704  1.0331 -1.9923  0.3822
   25MOL   H40018688   4.735   5.636   1.640  0.1062 -0.1712 -1.3716
   25MOL   H40118689   4.894   5.602   1.702  0.3983 -0.5797  0.8066
   25MOL   H40218690   4.738   5.448   1.489  0.2172  0.5594  0.2186
   25MOL   H40318691   4.902   5.399   1.538  0.3507 -0.1134  1.1809
   25MOL   H40418692   4.914   5.507   1.325 -1.4798  0.0967 -0.2730
   25MOL   H40518693   5.005   5.594   1.460 -1.1524  1.1105  1.1056
   25MOL   H40618694   4.745   5.589   1.206  0.8661  0.5391 -0.6349
   25MOL   H40718695   4.628   5.853   1.290  2.3325 -0.0562 -0.0718
   25MOL   H40818696   4.692   5.833   1.125  1.0828 -1.6876 -0.9717
   25MOL   H40918697   4.553   5.617   1.107  2.4740  1.8117 -1.5596
   25MOL   H41018698   4.476   5.657   1.253  1.4331 -0.5317  0.3822
   25MOL   H41118699   4.482   5.856   1.037 -0.1576  1.9062  1.7592
   25MOL   H41218700   4.421   5.876   1.192  0.5578 -1.7228  1.8923
   25MOL   H41318701   4.330   5.743   0.945 -0.2059 -1.3124  0.7387
   25MOL   H41418702   4.286   5.640   1.062 -1.8210 -0.0981  0.0762
   25MOL   H41518703   4.149   5.834   1.170 -1.9894  1.3842 -0.9583
   25MOL   H41618704   4.210   5.934   1.045  1.9329 -1.2039 -0.9047
   25MOL   H41718705   3.972   5.857   0.999  1.5597  1.0704  0.8155
   25MOL   H41818706   4.018   5.691   0.994 -2.3610  0.4913  1.3488
   25MOL   H41918707   4.079   5.913   0.795  2.6860 -0.1190 -2.1739
   25MOL   C42018708   4.101   5.717   0.745 -0.0049  0.7768  0.7940
   25MOL   O42118709   4.092   5.601   0.782  0.1222 -0.5820  0.1545
   25MOL   C42218710   4.132   5.739   0.597  0.0262 -0.0037 -0.3020
   25MOL   C42318711   4.016   5.705   0.506 -0.3325 -0.0278 -1.0244
   25MOL   C42418712   3.897   5.790   0.499 -0.3518  0.1950 -0.2805
   25MOL   C42518713   3.831   5.799   0.358 -0.0135  0.0913 -0.4647
   25MOL   C42618714   3.687   5.842   0.365  0.7643 -0.6248 -0.3327
   25MOL   O42718715   3.622   5.818   0.464  0.1429 -0.8610 -0.6146
   25MOL   N42818716   3.629   5.885   0.254  0.8527 -0.2056 -0.5959
   25MOL   C42918717   3.488   5.921   0.249 -0.3958  0.2299 -0.4241
   25MOL   C43018718   3.393   5.800   0.203 -0.6926  0.7282 -0.4668
   25MOL   C43118719   3.434   5.713   0.086  0.0106 -0.6448 -0.2858
   25MOL   C43218720   3.431   5.787   7.655  0.0595  0.1553  0.2006
   25MOL   C43318721   3.480   5.702   7.537  1.1037  0.1393  0.2935
   25MOL   C43418722   3.456   5.773   7.404  0.1363  0.1802 -0.1499
   25MOL   N43518723   3.500   5.680   7.302  0.0228  0.0462  0.6781
   25MOL   H43618724   4.151   5.844   0.576 -0.4673  0.1037 -0.2281
   25MOL   H43718725   4.211   5.669   0.572  0.4168  0.9043 -1.6331
   25MOL   H43818726   4.056   5.721   0.406  0.7530  0.5152 -0.5124
   25MOL   H43918727   3.987   5.601   0.522 -0.0186  0.2278  1.3728
   25MOL   H44018728   3.924   5.887   0.541  1.4270  0.4326 -1.9040
   25MOL   H44118729   3.823   5.752   0.569  0.1458 -0.6061 -0.1948
   25MOL   H44218730   3.834   5.703   0.306 -1.3236 -0.1821 -0.0498
   25MOL   H44318731   3.878   5.872   0.292 -0.9932  1.3933  0.2707
   25MOL   H44418732   3.688   5.911   0.177 -0.3685 -0.9358 -1.8092
   25MOL   H44518733   3.445   5.990   0.322  1.3611  0.8304  0.0718
   25MOL   H44618734   3.493   5.992   0.166  0.8712  1.6670  0.8564
   25MOL   H44718735   3.379   5.733   0.288  1.7696 -2.0142 -2.1709
   25MOL   H44818736   3.296   5.847   0.187 -1.1088 -0.0725 -0.3212
   25MOL   H44918737   3.366   5.628   0.089 -0.8147  0.0570  1.2903
   25MOL   H45018738   3.537   5.685   0.109 -0.5192 -1.1572  1.5715
   25MOL   H45118739   3.326   5.815   7.654 -0.1693 -0.6904 -0.4353
   25MOL   H45218740   3.498   5.873   7.652  1.9422 -1.2946 -1.1152
   25MOL   H45318741   3.584   5.673   7.548  0.9547  0.0526  1.6282
   25MOL   H45418742   3.425   5.608   7.548  0.0820  0.9465  2.4653
   25MOL   H45518743   3.496   5.874   7.405  1.8208 -0.4613  2.5184
   25MOL   H45618744   3.347   5.781   7.401  0.1370  0.6384  0.7396
   25MOL   H45718745   3.433   5.627   7.249  1.5373 -0.6794 -0.5703
   25MOL   C45818746   3.627   5.686   7.265  0.2654 -0.3667 -0.1271
   25MOL   O45918747   3.713   5.758   7.318  0.2724  0.1553  0.5023
   25MOL   C46018748   3.659   5.583   7.154  0.6447 -0.0228  0.4989
   25MOL   C46118749   3.777   5.489   7.191  0.2021 -0.2386  0.2532
   25MOL   C46218750   3.807   5.365   7.108 -0.1999 -0.6441  0.2542
   25MOL   C46318751   3.938   5.298   7.157  0.1184  0.1066  0.5486
   25MOL   C46418752   3.994   5.177   7.077 -0.9052  0.8332  0.7003
   25MOL   O46518753   3.964   5.055   7.099  0.1823 -0.6130 -0.2428
   25MOL   N46618754   4.090   5.211   6.984 -0.7577 -0.3600 -0.5764
   25MOL   C46718755   4.168   5.118   6.898  0.8169 -0.3230 -0.5982
   25MOL   C46818756   4.322   5.132   6.937 -0.2939  0.1178 -0.0216
   25MOL   C46918757   4.421   5.033   6.868  0.3949 -0.1875  0.1119
   25MOL   C47018758   4.568   5.062   6.890  0.0314 -0.2296 -0.0266
   25MOL   C47118759   4.659   4.973   6.791 -0.8325 -0.2559  0.1463
   25MOL   C47218760   4.803   5.016   6.809 -0.1532 -0.6949  0.0833
   25MOL   N47318761   4.889   4.932   6.722 -0.1938  0.0591 -0.4310
   25MOL   H47418762   3.576   5.513   7.140  1.0492 -0.6584  1.2379
   25MOL   H47518763   3.685   5.634   7.061 -0.4045 -1.9589 -0.8952
   25MOL   H47618764   3.874   5.538   7.189  0.1183 -0.0686  0.3649
   25MOL   H47718765   3.761   5.455   7.294 -1.6299 -0.9925 -0.2674
   25MOL   H47818766   3.819   5.390   7.003  2.1738 -1.3705  0.3407
   25MOL   H47918767   3.729   5.289   7.119 -1.5037  0.7051  0.5198
   25MOL   H48018768   3.941   5.265   7.261 -1.6815 -3.7702 -0.5578
   25MOL   H48118769   4.022   5.368   7.158 -0.8330  1.2764  0.0497
   25MOL   H48218770   4.113   5.308   6.966 -1.7888  0.0670  0.3333
   25MOL   H48318771   4.135   5.014   6.898  0.0158 -0.1099  2.5399
   25MOL   H48418772   4.143   5.142   6.795  0.4529  0.7708 -0.2696
   25MOL   H48518773   4.348   5.238   6.936  0.6914 -0.0959  1.2645
   25MOL   H48618774   4.325   5.100   7.041  0.1630 -2.1784 -0.7042
   25MOL   H48718775   4.402   5.042   6.761  0.7241 -3.4988 -0.2676
   25MOL   H48818776   4.384   4.937   6.905  1.3085  0.2071  2.0632
   25MOL   H48918777   4.602   5.162   6.861 -0.6287 -0.1897 -0.6654
   25MOL   H49018778   4.613   5.038   6.986  1.4864  0.1665 -0.5851
   25MOL   H49118779   4.656   4.866   6.811 -0.7671 -0.6290 -1.7255
   25MOL   H49218780   4.622   4.997   6.692 -1.3207 -0.8008  0.1977
   25MOL   H49318781   4.838   5.007   6.912  0.7407 -0.1165 -0.1625
   25MOL   H49418782   4.818   5.121   6.783 -0.0793 -0.8647 -0.5686
   25MOL   H49518783   4.925   4.855   6.776 -1.7031  1.1053  2.1695
   25MOL   C49618784   4.896   4.926   6.595  0.2235  0.0840  0.1179
   25MOL   O49718785   4.835   4.995   6.514 -0.0872  0.4332 -0.6860
   25MOL   C49818786   4.953   4.803   6.531 -0.1281 -0.0357 -0.3619
   25MOL   C49918787   5.014   4.827   6.393 -0.7639  0.2065 -0.5282
   25MOL   C50018788   5.095   4.710   6.347 -0.3430 -0.3235  0.2323
   25MOL   C50118789   5.150   4.720   6.202 -0.4505 -0.1022 -0.3228
   25MOL   C50218790   5.052   4.680   6.090  0.4514  0.2235 -0.1155
   25MOL   O50318791   4.925   4.686   6.106 -0.3433  0.1842  0.1924
   25MOL   N50418792   5.101   4.622   5.982 -0.2200 -0.2532  0.2077
   25MOL   C50518793   5.020   4.559   5.876  0.0926  0.2676 -0.3677
   25MOL   C50618794   4.977   4.651   5.755  0.2509  0.4753  0.1652
   25MOL   C50718795   4.880   4.587   5.652  0.0553  0.1482 -0.0143
   25MOL   C50818796   4.745   4.542   5.716 -0.2549  0.3990  0.5939
   25MOL   C50918797   4.652   4.655   5.777  0.6196  0.2066 -0.5753
   25MOL   C51018798   4.537   4.583   5.841  0.2006  0.1829  0.1677
   25MOL   N51118799   4.463   4.683   5.919  0.3246 -0.1653  0.0042
   25MOL   H51218800   5.039   4.767   6.588  0.4551 -1.7181 -2.2484
   25MOL   H51318801   4.874   4.728   6.529 -0.6707  0.5290 -0.3001
   25MOL   H51418802   4.926   4.833   6.329 -0.5087 -0.2898 -0.9283
   25MOL   H51518803   5.078   4.914   6.385  1.5495 -0.9688  3.5115
   25MOL   H51618804   5.038   4.617   6.350 -1.0199  0.0363 -1.1035
   25MOL   H51718805   5.183   4.709   6.412  0.1790  1.2810 -0.4331
   25MOL   H51818806   5.243   4.664   6.191  0.5247  1.1943  1.0529
   25MOL   H51918807   5.186   4.821   6.184 -3.2646  0.6767 -1.8009
   25MOL   H52018808   5.200   4.600   5.991 -0.8771 -3.5067  0.1719
   25MOL   H52118809   5.086   4.489   5.825  1.6974  1.5470 -0.1025
   25MOL   H52218810   4.936   4.513   5.927 -0.9107  1.6878 -0.6825
   25MOL   H52318811   4.926   4.739   5.795 -0.6207  0.5106 -0.9929
   25MOL   H52418812   5.062   4.687   5.697  0.8119 -1.3287 -0.1572
   25MOL   H52518813   4.926   4.497   5.609 -1.5257 -0.6077 -0.1862
   25MOL   H52618814   4.865   4.666   5.579 -1.0768 -0.2068 -0.1796
   25MOL   H52718815   4.690   4.506   5.629 -1.0454  0.6923  0.9612
   25MOL   H52818816   4.755   4.454   5.779  0.1258 -0.7263 -1.0481
   25MOL   H52918817   4.711   4.720   5.843  3.1296 -2.2719 -0.3004
   25MOL   H53018818   4.619   4.717   5.694 -0.2544  0.2766 -0.1796
   25MOL   H53118819   4.568   4.505   5.911  1.9070  2.3365  1.8740
   25MOL   H53218820   4.473   4.535   5.767 -0.5194  0.0614  0.8653
   25MOL   H53318821   4.471   4.778   5.887  0.0258 -0.1853 -0.1384
   25MOL   C53418822   4.373   4.653   6.012 -0.9091  0.2353  0.9980
   25MOL   O53518823   4.322   4.544   6.032  0.2323 -0.0244  0.5727
   25MOL   C53618824   4.312   4.765   6.092  0.6028 -0.5608 -0.1851
   25MOL   C53718825   4.335   4.746   6.245  0.4531  0.5407  0.1843
   25MOL   C53818826   4.478   4.772   6.297  0.5475  0.3866 -0.3539
   25MOL   C53918827   4.512   4.718   6.441  0.0438  0.1921  0.2287
   25MOL   C54018828   4.412   4.773   6.552  0.2448  0.1788  0.0681
   25MOL   O54118829   4.383   4.890   6.570 -0.1548 -0.7606  0.1666
   25MOL   N54218830   4.352   4.674   6.622  0.2107 -0.0060 -0.1893
   25MOL   C54318831   4.240   4.693   6.723 -0.3753  0.2630  0.0881
   25MOL   C54418832   4.110   4.641   6.663  0.1505  0.0671 -0.2604
   25MOL   C54518833   4.114   4.493   6.626 -0.2909  0.0819 -0.4027
   25MOL   C54618834   3.978   4.428   6.581 -0.6612 -0.0602 -0.1375
   25MOL   C54718835   3.976   4.291   6.516  0.0269 -0.1282 -0.2790
   25MOL   C54818836   4.027   4.286   6.365  0.2064  0.0180 -0.7182
   25MOL   N54918837   4.169   4.324   6.352 -0.3508 -0.0755  0.1304
   25MOL   H55018838   4.360   4.859   6.064  0.3702 -0.4280 -0.1333
   25MOL   H55118839   4.207   4.765   6.064  0.6700 -1.6803 -0.4325
   25MOL   H55218840   4.266   4.809   6.301  1.5595 -0.9331  3.3548
   25MOL   H55318841   4.300   4.643   6.259  1.4428 -0.4635 -3.9624
   25MOL   H55418842   4.494   4.880   6.301 -0.1437  0.5603 -1.9676
   25MOL   H55518843   4.547   4.728   6.225 -1.7179 -1.7842 -1.2915
   25MOL   H55618844   4.608   4.759   6.472 -1.0258  0.4179  3.4888
   25MOL   H55718845   4.513   4.609   6.444  1.3220  0.1154 -2.2183
   25MOL   H55818846   4.385   4.583   6.594  2.5002  0.2439  1.6174
   25MOL   H55918847   4.259   4.640   6.816 -0.3783 -1.0213 -0.6331
   25MOL   H56018848   4.241   4.799   6.749 -0.0718  1.1037 -3.0900
   25MOL   H56118849   4.028   4.677   6.725 -0.7196 -0.3187 -1.1657
   25MOL   H56218850   4.100   4.694   6.568 -1.8100  1.1914  0.5441
   25MOL   H56318851   4.160   4.422   6.695  0.4624 -0.0265 -1.0048
   25MOL   H56418852   4.180   4.488   6.539  1.2091 -0.5951  0.7428
   25MOL   H56518853   3.914   4.416   6.668  0.4736  2.5665  1.1518
   25MOL   H56618854   3.924   4.495   6.514 -0.8408  0.2446  0.3060
   25MOL   H56718855   4.045   4.223   6.565 -2.3584 -4.4380 -2.6201
   25MOL   H56818856   3.882   4.238   6.529  0.4183 -0.8824 -0.5468
   25MOL   H56918857   3.959   4.336   6.296  1.8289  1.7644 -1.0797
   25MOL   H57018858   4.020   4.190   6.314  0.4289 -1.3479  1.7229
   25MOL   H57118859   4.191   4.417   6.387 -0.7934 -0.2842  0.9833
   25MOL   C57218860   4.276   4.252   6.312 -0.5135  0.7867 -0.2573
   25MOL   O57318861   4.274   4.142   6.258  0.0462 -0.0682  0.3251
   25MOL   C57418862   4.413   4.318   6.356 -0.1872 -0.2847  0.3215
   25MOL   C57518863   4.519   4.319   6.244  0.1787 -0.3617  0.5612
   25MOL   C57618864   4.653   4.368   6.290 -0.0313 -0.2076 -0.1169
   25MOL   C57718865   4.746   4.419   6.180  0.5346  0.2463 -0.7887
   25MOL   C57818866   4.790   4.308   6.090 -0.0044  0.6408 -0.2925
   25MOL   O57918867   4.720   4.270   5.995  0.1118 -0.3698  0.0946
   25MOL   N58018868   4.917   4.262   6.106  0.0315  0.1843  0.6311
   25MOL   C58118869   4.967   4.160   6.021  0.0878  0.1830  0.0949
   25MOL   C58218870   5.061   4.221   5.921 -0.4203 -0.4651 -0.1401
   25MOL   C58318871   5.130   4.117   5.829 -0.9967  0.1341 -0.3124
   25MOL   C58418872   5.222   4.193   5.726  0.1911  0.3176  0.4388
   25MOL   C58518873   5.304   4.096   5.642  0.2532  0.0564 -0.8684
   25MOL   C58618874   5.406   4.154   5.542  0.1904 -0.4745  0.0161
   25MOL   N58718875   5.470   4.053   5.457  0.2026  0.3206 -0.6595
   25MOL   H58818876   4.398   4.424   6.379 -0.1262 -0.2593  0.2422
   25MOL   H58918877   4.442   4.268   6.449 -1.0140 -0.4052  0.5179
   25MOL   H59018878   4.535   4.227   6.187  0.2298 -0.2287  0.3572
   25MOL   H59118879   4.483   4.389   6.168 -2.9781 -0.2520  2.0797
   25MOL   H59218880   4.703   4.293   6.351 -0.5728 -0.3796  0.1138
   25MOL   H59318881   4.641   4.441   6.371  0.3688 -1.4791  1.1019
   25MOL   H59418882   4.829   4.472   6.228  0.9867 -3.4151  2.7892
   25MOL   H59518883   4.691   4.489   6.118 -4.2074 -1.5566  1.1766
   25MOL   H59618884   4.989   4.293   6.170  3.2894 -0.9726 -2.3299
   25MOL   H59718885   5.019   4.085   6.079  3.6597  0.2674 -2.7975
   25MOL   H59818886   4.894   4.095   5.972 -0.0021 -0.2354  0.7757
   25MOL   H59918887   4.993   4.288   5.868  0.5832  2.5109  2.1745
   25MOL   H60018888   5.138   4.275   5.976 -0.1440 -0.1192 -0.8512
   25MOL   H60118889   5.050   4.068   5.773 -0.8797  1.3798 -1.6027
   25MOL   H60218890   5.188   4.043   5.884  1.0300  2.0276  0.1967
   25MOL   H60318891   5.166   4.251   5.653 -2.5165 -0.5557  1.7595
   25MOL   H60418892   5.281   4.263   5.785  2.1949 -0.2087 -0.8947
   25MOL   H60518893   5.351   4.036   5.720 -1.6407 -1.1971 -0.6439
   25MOL   H60618894   5.236   4.025   5.594 -0.2285 -0.2470  0.2441
   25MOL   H60718895   5.488   4.207   5.589  0.9507 -0.8502 -0.8536
   25MOL   H60818896   5.353   4.228   5.482 -1.6797 -0.7180  1.3112
   25MOL   H60918897   5.565   4.026   5.477  0.0080  0.0834 -0.0108
   25MOL   C61018898   5.402   3.983   5.371  0.9685 -0.2076  0.2682
   25MOL   O61118899   5.284   4.009   5.344  0.0392 -0.3221 -0.7285
   25MOL   C61218900   5.472   3.865   5.308  0.4278  0.6601  0.7605
   25MOL   C61318901   5.463   3.722   5.371 -0.0699 -0.4896  0.5970
   25MOL   C61418902   5.465   3.718   5.520 -0.0156  0.2447  0.0223
   25MOL   C61518903   5.496   3.572   5.576  0.1694 -0.4379 -0.4920
   25MOL   C61618904   5.490   3.567   5.730 -0.7251 -0.9200  0.0143
   25MOL   O61718905   5.474   3.676   5.788  0.0475 -0.0488 -0.0795
   25MOL   N61818906   5.524   3.458   5.801 -0.9035  0.1306 -0.0513
   25MOL   C61918907   5.521   3.444   5.949  0.3031  0.6959  1.0293
   25MOL   C62018908   5.660   3.493   6.001 -0.5657 -0.1258 -0.2704
   25MOL   C62118909   5.686   3.431   6.137 -0.2827 -0.0073 -0.4552
   25MOL   C62218910   5.822   3.469   6.190  0.2052 -0.0625 -0.7019
   25MOL   C62318911   5.857   3.417   6.332 -0.0908  0.3226 -0.3245
   25MOL   C62418912   5.963   3.494   6.415 -0.3823  0.4130 -0.4231
   25MOL   N62518913   6.003   3.436   6.538 -0.1745  0.0288  0.1108
   25MOL   H62618914   5.437   3.852   5.206  1.3471 -2.4808  0.7919
   25MOL   H62718915   5.576   3.887   5.284  0.8504 -2.5238 -0.5592
   25MOL   H62818916   5.374   3.671   5.333  0.5694  1.6771 -4.1371
   25MOL   H62918917   5.537   3.651   5.335  0.6320  0.5971 -0.1121
   25MOL   H63018918   5.370   3.754   5.561 -1.1725 -0.2446 -2.1351
   25MOL   H63118919   5.530   3.799   5.554 -1.1406  0.6958  1.1279
   25MOL   H63218920   5.600   3.550   5.549  0.2255 -0.0020 -0.6251
   25MOL   H63318921   5.430   3.497   5.533 -0.3101  1.3491 -2.9394
   25MOL   H63418922   5.546   3.376   5.746 -1.1332 -0.9029  1.3751
   25MOL   H63518923   5.439   3.492   6.003  0.5484 -0.8071  2.7759
   25MOL   H63618924   5.522   3.338   5.971  0.1970  0.5200  0.1975
   25MOL   H63718925   5.748   3.471   5.942 -0.0023 -0.0417  0.5267
   25MOL   H63818926   5.648   3.600   6.014 -1.7473 -0.0728 -1.6434
   25MOL   H63918927   5.681   3.323   6.129 -1.0897 -0.3446  3.3716
   25MOL   H64018928   5.610   3.478   6.200 -1.5365  0.6963 -2.4288
   25MOL   H64118929   5.904   3.451   6.119  1.2501  1.9806 -0.0525
   25MOL   H64218930   5.834   3.577   6.195  1.8810 -0.3172  1.3619
   25MOL   H64318931   5.763   3.410   6.387  0.3616 -2.4373  0.1428
   25MOL   H64418932   5.881   3.311   6.328 -0.4750  0.2619 -1.1822
   25MOL   H64518933   5.928   3.594   6.437 -2.0925 -0.7655  2.4803
   25MOL   H64618934   6.052   3.487   6.352 -1.4156  0.3937 -1.9151
   25MOL   H64718935   5.930   3.393   6.593 -1.2255  1.5794 -0.0445
   25MOL   C64818936   6.127   3.430   6.587 -0.2432  1.0841  0.1311
   25MOL   O64918937   6.224   3.463   6.516  0.7599  0.6045 -0.0755
   25MOL   C65018938   6.136   3.386   6.728 -0.0624 -1.2017 -0.1665
   25MOL   C65118939   6.164   3.238   6.749  0.5357 -0.6730  0.1021
   25MOL   C65218940   6.197   3.196   6.900  0.9190  0.6886 -0.0627
   25MOL   C65318941   6.198   3.045   6.914  0.1107  1.0240  0.6787
   25MOL   C65418942   6.288   2.974   6.816  0.4048 -0.1001  0.3357
   25MOL   O65518943   6.405   2.948   6.842 -0.1301 -0.1710 -0.0729
   25MOL   N65618944   6.231   2.920   6.705  0.0140  0.1222 -0.0004
   25MOL   C65718945   6.285   2.820   6.618  0.5147  0.2490  0.6650
   25MOL   C65818946   6.356   2.862   6.491  0.5883 -0.0603 -0.0979
   25MOL   C65918947   6.298   2.991   6.440 -1.0380  0.2471 -0.1211
   25MOL   C66018948   6.343   3.001   6.295 -0.2599  0.7343 -0.9241
   25MOL   C66118949   6.300   3.136   6.223 -0.6424  0.9131 -0.6982
   25MOL   C66218950   6.394   3.259   6.242 -0.7223 -0.5643  0.3595
   25MOL   N66318951   6.414   3.302   6.383  0.3622  0.2864 -0.2741
   25MOL   H66418952   6.221   3.443   6.766 -0.8650 -0.0248 -0.1079
   25MOL   H66518953   6.054   3.427   6.787  2.4325  1.8010  1.4212
   25MOL   H66618954   6.080   3.182   6.707  0.6407  0.1176 -1.1945
   25MOL   H66718955   6.244   3.209   6.681 -0.4930 -1.6641 -0.7134
   25MOL   H66818956   6.115   3.236   6.960  1.1733 -1.4766  1.7643
   25MOL   H66918957   6.287   3.247   6.935 -0.3627  2.3871  0.8829
   25MOL   H67018958   6.097   3.006   6.912  0.4483  0.1554  0.4698
   25MOL   H67118959   6.239   3.028   7.014  0.5749  1.7853  0.6220
   25MOL   H67218960   6.133   2.943   6.693 -0.2505 -0.9671  0.0018
   25MOL   H67318961   6.353   2.768   6.686  0.4131  0.7743  1.1769
   25MOL   H67418962   6.201   2.752   6.604  1.7221 -1.8502  3.1556
   25MOL   H67518963   6.462   2.880   6.507  0.7140 -0.7472 -0.1687
   25MOL   H67618964   6.354   2.785   6.414 -1.4288  0.0283 -0.1738
   25MOL   H67718965   6.342   3.077   6.491  0.1775 -0.1584 -0.4900
   25MOL   H67818966   6.190   3.004   6.452 -1.2148  2.4214 -3.4193
   25MOL   H67918967   6.450   2.988   6.280  0.0431  1.1087  0.8221
   25MOL   H68018968   6.299   2.915   6.245  0.4149  0.0515 -0.3519
   25MOL   H68118969   6.289   3.110   6.118 -0.1174 -0.9656 -0.3177
   25MOL   H68218970   6.203   3.157   6.266  0.0993  2.2439  0.3685
   25MOL   H68318971   6.353   3.340   6.181 -0.1525 -1.8625 -1.7938
   25MOL   H68418972   6.488   3.224   6.200 -1.1295 -1.8898  0.5422
   25MOL   H68518973   6.335   3.343   6.430  0.8641 -0.1675  0.9916
   25MOL   C68618974   6.526   3.307   6.452  0.3238  0.1061  0.3136
   25MOL   O68718975   6.640   3.296   6.403  0.3243  0.3076  0.1109
   25MOL   C68818976   6.516   3.355   6.596  0.9204 -0.2332 -0.1698
   25MOL   C68918977   6.629   3.316   6.689  0.1034 -0.1941  0.0350
   25MOL   C69018978   6.668   3.176   6.718  0.1254 -0.1272 -0.8198
   25MOL   C69118979   6.781   3.139   6.825  0.0054 -0.6446  0.3557
   25MOL   C69218980   6.808   2.989   6.855 -0.1919  0.3079 -0.1931
   25MOL   O69318981   6.923   2.950   6.867 -0.2922 -0.0181 -0.4322
   25MOL   N69418982   6.696   2.913   6.882 -0.4533  0.0965  0.1186
   25MOL   C69518983   6.683   2.782   6.938  0.0199 -0.2348  0.2231
   25MOL   C69618984   6.707   2.662   6.841  0.6003  0.1528  0.3964
   25MOL   C69718985   6.585   2.634   6.743  0.2212 -0.1440 -0.3680
   25MOL   C69818986   6.614   2.521   6.640 -0.2701 -0.0825  0.3534
   25MOL   C69918987   6.499   2.495   6.537  0.6061  0.0346  0.0050
   25MOL   C70018988   6.536   2.375   6.456 -0.5108 -0.4075  0.1500
   25MOL   N70118989   6.443   2.347   6.341 -0.9209 -0.2841 -0.2492
   25MOL   H70218990   6.489   3.460   6.592  0.0789 -0.5024 -2.1462
   25MOL   H70318991   6.428   3.304   6.636 -0.4457 -0.1639 -3.0018
   25MOL   H70418992   6.716   3.370   6.651  0.6955 -1.2893 -0.1930
   25MOL   H70518993   6.614   3.368   6.783  1.9157 -1.0406  0.8369
   25MOL   H70618994   6.696   3.129   6.623  0.6397  1.4167 -1.4437
   25MOL   H70718995   6.579   3.118   6.740  0.4996 -1.4723 -2.6852
   25MOL   H70818996   6.749   3.186   6.918  2.0740  0.5045  0.5099
   25MOL   H70918997   6.872   3.194   6.802 -0.6232 -0.1660 -1.0107
   25MOL   H71018998   6.604   2.951   6.864  0.6245  1.7122 -2.2588
   25MOL   H71118999   6.746   2.772   7.027  0.6152  0.5498 -0.1134
   25MOL   H71219000   6.583   2.776   6.983  0.1154 -0.0826  0.4540
   25MOL   H71319001   6.797   2.686   6.785 -0.0634 -1.2693 -1.3376
   25MOL   H71419002   6.717   2.579   6.910 -1.0851  1.5497  2.3808
   25MOL   H71519003   6.570   2.721   6.679 -1.6563  1.7229  2.4651
   25MOL   H71619004   6.496   2.611   6.803 -1.2119  0.1029 -2.3390
   25MOL   H71719005   6.706   2.541   6.586  0.4231  0.2638  1.6482
   25MOL   H71819006   6.638   2.426   6.686 -1.3140 -0.5419 -0.0285
   25MOL   H71919007   6.408   2.465   6.589  1.5772 -1.2233  0.9882
   25MOL   H72019008   6.482   2.589   6.484  0.5316 -0.3495 -0.6632
   25MOL   H72119009   6.543   2.285   6.517  0.2911 -1.1037 -0.9475
   25MOL   H72219010   6.628   2.407   6.407  0.6835 -1.3950  1.7126
   25MOL   H72319011   6.356   2.398   6.344 -0.6060  0.2095  2.9714
   25MOL   C72419012   6.468   2.257   6.242 -0.0259  0.9454  0.0419
   25MOL   O72519013   6.578   2.205   6.223 -0.7124 -0.1666 -0.2738
   25MOL   C72619014   6.344   2.222   6.154 -0.8365  0.0873  0.2662
   25MOL   C72719015   6.337   2.081   6.092  0.7348  0.5836 -0.0811
   25MOL   C72819016   6.191   2.038   6.064  0.8517 -0.9166  0.3033
   25MOL   C72919017   6.183   1.898   6.010 -0.0572  0.1867  0.0870
   25MOL   C73019018   6.049   1.846   5.973 -0.0387  0.1898  0.3807
   25MOL   O73119019   5.966   1.820   6.060 -0.5800  0.0541 -0.3851
   25MOL   N73219020   6.020   1.823   5.849 -0.1285  0.7796 -0.3222
   25MOL   C73319021   5.889   1.785   5.802  0.1654 -0.4422  0.1370
   25MOL   C73419022   5.867   1.630   5.812  0.4685  0.2641 -0.0446
   25MOL   C73519023   5.767   1.585   5.701  0.5403  0.4223  0.5737
   25MOL   C73619024   5.731   1.438   5.713  0.4892 -0.2286  0.2806
   25MOL   C73719025   5.637   1.387   5.600 -0.1963 -0.8134  0.1386
   25MOL   C73819026   5.604   1.237   5.605  0.4447  0.2632  0.2056
   25MOL   N73919027   5.716   1.156   5.559  0.7063  0.0365  0.7181
   25MOL   H74019028   6.259   2.232   6.223 -0.7735 -1.7214  0.6325
   25MOL   H74119029   6.320   2.293   6.075 -1.6038  0.9069  1.2004
   25MOL   H74219030   6.406   2.068   6.009  1.2954 -1.2956  0.6451
   25MOL   H74319031   6.373   2.009   6.165 -0.4531 -0.1995 -0.2447
   25MOL   H74419032   6.133   2.103   5.997  0.6115  0.5414  1.8829
   25MOL   H74519033   6.126   2.043   6.152 -2.0218  0.3873 -1.8066
   25MOL   H74619034   6.219   1.826   6.084 -1.1327  0.1230  0.5575
   25MOL   H74719035   6.254   1.890   5.928 -0.1428  1.1864 -0.0879
   25MOL   H74819036   6.091   1.837   5.778 -1.4909  0.3880 -1.7963
   25MOL   H74919037   5.808   1.835   5.854  0.5292  0.4247 -0.1185
   25MOL   H75019038   5.886   1.835   5.705 -0.2309  0.8547  0.8053
   25MOL   H75119039   5.964   1.582   5.799 -0.1039 -1.2092  0.9276
   25MOL   H75219040   5.829   1.605   5.912  2.2581 -1.1703  0.2998
   25MOL   H75319041   5.820   1.595   5.606 -0.2915 -1.1511 -0.0716
   25MOL   H75419042   5.674   1.641   5.699  1.5691  2.1350 -0.3443
   25MOL   H75519043   5.830   1.391   5.708  0.6396 -0.0102  1.1044
   25MOL   H75619044   5.683   1.428   5.810 -0.4173  1.4902  0.0289
   25MOL   H75719045   5.545   1.445   5.606  0.2244 -0.2349  1.3926
   25MOL   H75819046   5.685   1.407   5.505  2.3401 -3.0327  0.8907
   25MOL   H75919047   5.519   1.217   5.540  0.6099 -0.2605  0.1443
   25MOL   H76019048   5.577   1.210   5.707  0.7701 -1.5527 -0.1661
   25MOL   H76119049   5.775   1.147   5.641  1.3300 -0.3981  0.2214
   25MOL   H76219050   5.681   1.063   5.539 -0.8550  0.5295  1.1470
   26MOL     C119051   4.997   3.717   2.252  0.1643 -0.5995 -0.4602
   26MOL     O219052   4.928   3.621   2.267 -0.1473 -0.3145 -0.1082
   26MOL     C319053   5.125   3.733   2.342  0.1120  0.4651  0.5795
   26MOL     C419054   5.153   3.874   2.394 -0.2276 -0.3060 -0.7617
   26MOL     C519055   5.064   3.920   2.513  0.2330 -0.0445  0.1979
   26MOL     C619056   5.074   4.066   2.548 -0.2599 -1.2025 -0.5810
   26MOL     C719057   5.018   4.156   2.427  0.1356  0.9474 -0.3316
   26MOL     O819058   4.919   4.111   2.370 -0.5255  0.2062 -0.0196
   26MOL     N919059   5.085   4.260   2.376  0.8418 -1.1754  0.3197
   26MOL    C1019060   5.045   4.343   2.262 -0.3623 -0.1581  0.1975
   26MOL    C1119061   5.172   4.378   2.186  0.2125 -0.1430  0.8703
   26MOL    C1219062   5.247   4.273   2.107  0.5239 -0.7690  0.1828
   26MOL    C1319063   5.176   4.234   1.978 -0.3762 -0.3492 -0.8279
   26MOL    C1419064   5.266   4.272   1.860  0.0208 -0.2100  0.5850
   26MOL    C1519065   5.318   4.411   1.848  0.1142  0.5472 -0.3130
   26MOL    N1619066   5.388   4.419   1.718 -0.8075 -0.3093  0.2435
   26MOL    H1719067   5.129   3.661   2.423  2.0948 -1.8730 -1.5113
   26MOL    H1819068   5.207   3.701   2.278 -0.6027  1.1611 -0.6930
   26MOL    H1919069   5.260   3.884   2.414  0.3101  0.9890 -4.0084
   26MOL    H2019070   5.142   3.939   2.307  0.9550 -1.6129 -1.9091
   26MOL    H2119071   5.094   3.877   2.609  1.8908  0.1383 -0.2240
   26MOL    H2219072   4.960   3.891   2.501 -0.1590  1.4013  0.0629
   26MOL    H2319073   5.175   4.103   2.567 -1.6639  3.3876 -1.2533
   26MOL    H2419074   5.006   4.085   2.631  0.8952 -0.0845  0.1171
   26MOL    H2519075   5.175   4.284   2.414  0.4311 -0.0367  0.5761
   26MOL    H2619076   4.969   4.302   2.195  0.6770  1.4633 -2.0209
   26MOL    H2719077   4.999   4.431   2.306 -2.3434 -2.0932  2.1441
   26MOL    H2819078   5.151   4.463   2.121 -2.7017 -1.7974 -0.4773
   26MOL    H2919079   5.246   4.416   2.256  0.0237 -2.3908  2.3732
   26MOL    H3019080   5.248   4.185   2.172  1.0378 -1.9087 -1.3474
   26MOL    H3119081   5.344   4.317   2.085 -0.3918  0.8742 -0.6422
   26MOL    H3219082   5.139   4.132   1.981 -0.8339 -0.1526  0.9028
   26MOL    H3319083   5.083   4.291   1.975 -1.8789 -2.6340  0.8355
   26MOL    H3419084   5.351   4.204   1.865  0.3700  0.2482  0.9147
   26MOL    H3519085   5.207   4.244   1.772  1.2583 -1.3546  0.1138
   26MOL    H3619086   5.387   4.430   1.930  1.1352 -2.7659 -0.3020
   26MOL    H3719087   5.233   4.478   1.858 -0.4843 -0.0173 -1.5108
   26MOL    H3819088   5.334   4.464   1.645  1.1774  0.0574 -1.0466
   26MOL    H3919089   4.964   3.799   2.187 -2.0790  0.0641  1.4434
   26MOL    C4019090   5.520   4.411   1.708 -0.6510 -0.0180 -0.4201
   26MOL    O4119091   5.594   4.387   1.806 -0.4887  0.6477  0.0577
   26MOL    C4219092   5.578   4.450   1.572  0.1601 -0.2994  0.1065
   26MOL    C4319093   5.703   4.539   1.553  0.4480 -0.0808  0.3981
   26MOL    C4419094   5.737   4.558   1.408 -0.8456 -0.9929  0.7765
   26MOL    C4519095   5.857   4.657   1.386 -0.2945  0.1387 -0.3194
   26MOL    C4619096   5.862   4.711   1.243  0.8437 -0.1148 -0.2604
   26MOL    O4719097   5.761   4.746   1.186  0.7042 -0.1234  0.0164
   26MOL    N4819098   5.987   4.742   1.199  0.0383 -0.3694  0.3349
   26MOL    C4919099   6.018   4.782   1.065 -0.0597  0.2760  0.5925
   26MOL    C5019100   6.120   4.679   1.008 -0.2955 -0.4360 -0.8180
   26MOL    C5119101   6.149   4.709   0.865 -0.4811 -0.0677  0.2735
   26MOL    C5219102   6.280   4.643   0.822  0.5666 -0.6238  0.0908
   26MOL    C5319103   6.281   4.495   0.788 -0.0366  0.2729  0.0664
   26MOL    C5419104   6.424   4.447   0.760  0.3067  0.3230 -0.6579
   26MOL    N5519105   6.422   4.309   0.716 -0.7846 -0.0532  0.4449
   26MOL    H5619106   5.599   4.354   1.524 -0.2862  0.2984 -1.2947
   26MOL    H5719107   5.497   4.499   1.518 -0.2043 -1.2754 -0.2470
   26MOL    H5819108   5.675   4.637   1.589 -0.0691 -0.1377  0.1581
   26MOL    H5919109   5.787   4.497   1.609  0.1377 -0.3948  0.6296
   26MOL    H6019110   5.644   4.585   1.359 -0.2037  0.8537  0.5320
   26MOL    H6119111   5.761   4.458   1.372  1.0350 -1.3436  2.9255
   26MOL    H6219112   5.944   4.591   1.387 -0.5610 -0.2062  0.8162
   26MOL    H6319113   5.860   4.731   1.466  3.0492 -2.4282  2.0718
   26MOL    H6419114   6.068   4.723   1.255 -0.8924  2.1817  2.6169
   26MOL    H6519115   5.932   4.778   0.998  0.0585 -2.5411  0.5879
   26MOL    H6619116   6.057   4.884   1.054  1.2785 -0.2891 -0.0556
   26MOL    H6719117   6.215   4.688   1.062  0.3157  0.0751 -1.9534
   26MOL    H6819118   6.098   4.572   1.019  1.1766 -0.5727  1.1189
   26MOL    H6919119   6.161   4.816   0.849  3.1328 -0.4400  0.0411
   26MOL    H7019120   6.071   4.677   0.796 -1.9423  2.1209  0.8479
   26MOL    H7119121   6.312   4.695   0.731 -1.8041  1.0704  0.1848
   26MOL    H7219122   6.353   4.677   0.895 -0.1236  0.0302  0.4832
   26MOL    H7319123   6.245   4.440   0.875 -1.9050  0.1061 -0.7965
   26MOL    H7419124   6.212   4.470   0.708  0.0051  0.0590  0.0982
   26MOL    H7519125   6.475   4.453   0.856 -0.9099  0.7727 -0.0351
   26MOL    H7619126   6.480   4.510   0.690  2.4167 -1.9890 -1.1514
   26MOL    H7719127   6.343   4.252   0.741 -0.7409 -0.7486 -0.9645
   26MOL    C7819128   6.524   4.255   0.652 -1.3958  0.4206 -0.3783
   26MOL    O7919129   6.631   4.308   0.623 -0.5583 -0.0612 -0.2107
   26MOL    C8019130   6.510   4.105   0.629 -0.6403  0.4785 -0.4812
   26MOL    C8119131   6.438   4.076   0.496 -0.4176 -0.0780 -0.0164
   26MOL    C8219132   6.443   3.924   0.445 -0.4620  0.2381  0.5176
   26MOL    C8319133   6.409   3.901   0.294 -0.4388 -0.0846 -0.2860
   26MOL    C8419134   6.438   3.756   0.245 -0.8201  0.2273 -0.4975
   26MOL    O8519135   6.525   3.687   0.298  0.5653  0.1082 -0.0193
   26MOL    N8619136   6.372   3.719   0.138 -0.2187 -0.0828  0.4165
   26MOL    C8719137   6.409   3.612   0.048 -0.0219 -0.5590  0.0641
   26MOL    C8819138   6.395   3.668   7.613 -0.4815 -0.8976  0.2177
   26MOL    C8919139   6.480   3.785   7.568  0.0891  0.1430 -0.3743
   26MOL    C9019140   6.452   3.835   7.435  0.4514  0.1965  0.0534
   26MOL    C9119141   6.561   3.943   7.394 -0.1074 -0.6771  0.0601
   26MOL    C9219142   6.544   4.005   7.254  0.6740 -0.5933  0.5987
   26MOL    N9319143   6.430   4.095   7.240  0.5099  0.2326 -0.1201
   26MOL    H9419144   6.612   4.070   0.616 -0.3599  1.8240 -1.9116
   26MOL    H9519145   6.470   4.070   0.725  0.1177 -0.1045 -0.3756
   26MOL    H9619146   6.337   4.117   0.492 -0.6245 -0.5761  0.0041
   26MOL    H9719147   6.491   4.130   0.419 -0.4522 -2.1001 -1.5031
   26MOL    H9819148   6.375   3.862   0.503  0.4105 -0.7030  0.5598
   26MOL    H9919149   6.542   3.883   0.467 -1.0658 -0.9375  1.0735
   26MOL   H10019150   6.463   3.966   0.226 -0.5566  1.5480  1.1403
   26MOL   H10119151   6.303   3.916   0.272 -0.6337  1.2306  1.4624
   26MOL   H10219152   6.319   3.798   0.102  1.9739  1.0548 -0.3851
   26MOL   H10319153   6.513   3.583   0.056  0.3931  0.6060 -1.0332
   26MOL   H10419154   6.346   3.526   0.072 -0.8435 -0.7531 -2.6063
   26MOL   H10519155   6.395   3.589   7.537 -1.3385  0.9322 -1.7572
   26MOL   H10619156   6.291   3.699   7.604 -0.9259 -2.4017 -0.0739
   26MOL   H10719157   6.584   3.756   7.576  0.0131 -0.1513 -0.4414
   26MOL   H10819158   6.468   3.866   7.639 -0.3582 -1.6887  1.6868
   26MOL   H10919159   6.453   3.756   7.360 -0.4435 -0.4053  0.6576
   26MOL   H11019160   6.356   3.886   7.428  0.0483 -0.7153 -1.2698
   26MOL   H11119161   6.563   4.016   7.475  1.5558 -2.7970  2.0334
   26MOL   H11219162   6.657   3.892   7.399 -0.4611 -1.5636 -1.7840
   26MOL   H11319163   6.542   3.927   7.178  0.4146  1.3719 -1.4546
   26MOL   H11419164   6.633   4.068   7.239 -0.6780  1.4467  0.8974
   26MOL   H11519165   6.422   4.183   7.289 -3.7310 -0.3669  0.4579
   26MOL   C11619166   6.310   4.060   7.180  0.4842  0.3147  0.1381
   26MOL   O11719167   6.294   3.955   7.115 -0.2626  0.0872  0.4183
   26MOL   C11819168   6.201   4.174   7.183 -0.4648 -0.2224  0.5964
   26MOL   C11919169   6.045   4.137   7.192  0.2253 -0.9336 -0.0090
   26MOL   C12019170   5.981   4.074   7.063 -0.3712  0.4653  0.2988
   26MOL   C12119171   5.831   4.071   7.073  0.8055 -0.7866 -0.2507
   26MOL   C12219172   5.755   4.194   7.007  0.3143  1.3590 -0.0366
   26MOL   O12319173   5.790   4.227   6.894 -0.1881 -0.6126  0.1396
   26MOL   N12419174   5.672   4.268   7.079  0.2473 -0.2768 -0.5305
   26MOL   C12519175   5.605   4.395   7.043  0.2753 -0.4102  0.1805
   26MOL   C12619176   5.630   4.511   7.143  0.2452  0.1421  0.0077
   26MOL   C12719177   5.557   4.638   7.096 -0.4669  0.3516  0.4171
   26MOL   C12819178   5.567   4.744   7.203 -0.3133 -0.2696  0.0068
   26MOL   C12919179   5.461   4.726   7.315  0.0298 -0.1457  0.5472
   26MOL   C13019180   5.440   4.854   7.399  0.1691 -0.6354 -0.0156
   26MOL   N13119181   5.562   4.875   7.480 -0.0269 -0.2900 -0.2295
   26MOL   H13219182   6.236   4.249   7.254 -2.4525  0.4065  0.9200
   26MOL   H13319183   6.213   4.218   7.084  0.8157  2.1433  1.7634
   26MOL   H13419184   6.027   4.074   7.279 -2.0845 -0.3265 -0.0101
   26MOL   H13519185   5.993   4.231   7.214  1.3862 -0.5201  1.0525
   26MOL   H13619186   6.014   3.970   7.066  0.1211  0.6428  1.0881
   26MOL   H13719187   6.013   4.122   6.971  0.3073 -1.4121 -0.4663
   26MOL   H13819188   5.790   4.063   7.173  1.1411  2.7982  0.2356
   26MOL   H13919189   5.788   3.995   7.007 -0.9023  1.0392 -1.3289
   26MOL   H14019190   5.661   4.240   7.175 -0.2239  1.8190  0.0289
   26MOL   H14119191   5.630   4.432   6.944 -1.2221  0.9739  0.2920
   26MOL   H14219192   5.497   4.380   7.033 -0.0901  1.2154  1.2934
   26MOL   H14319193   5.609   4.486   7.247 -1.0389  0.4653 -0.1555
   26MOL   H14419194   5.736   4.527   7.158 -0.1273  1.4068  1.4553
   26MOL   H14519195   5.453   4.627   7.064 -0.3346  3.8171 -1.3932
   26MOL   H14619196   5.611   4.682   7.012 -0.3816  2.2531  1.4436
   26MOL   H14719197   5.666   4.752   7.248 -0.6569  0.6126  0.6210
   26MOL   H14819198   5.547   4.843   7.160  1.9723 -0.3899 -1.4373
   26MOL   H14919199   5.362   4.718   7.270  0.6392  2.5475 -1.3276
   26MOL   H15019200   5.496   4.648   7.383  0.9133  2.5205  3.2414
   26MOL   H15119201   5.356   4.851   7.468 -0.4751  1.0319 -0.7030
   26MOL   H15219202   5.427   4.941   7.335  1.1838  0.9183  1.8537
   26MOL   H15319203   5.588   4.807   7.550  3.1462  1.0673  0.0242
   26MOL   C15419204   5.652   4.971   7.474  0.1081  0.2099 -0.5856
   26MOL   O15519205   5.649   5.063   7.390 -0.2973  0.3465  0.4201
   26MOL   C15619206   5.787   4.949   7.544  0.7513  0.2700  0.2665
   26MOL   C15719207   5.818   5.068   7.635  0.1365  0.2069 -0.2378
   26MOL   C15819208   5.958   5.051   7.706  0.1627 -0.8089 -0.5560
   26MOL   C15919209   6.014   5.181   0.059  0.1261 -0.3802  0.1729
   26MOL   C16019210   6.118   5.144   0.169  0.3513  0.1392  0.5349
   26MOL   O16119211   6.219   5.095   0.133 -0.1080  0.1101 -0.5810
   26MOL   N16219212   6.081   5.173   0.295 -0.9774  0.1398  0.1775
   26MOL   C16319213   6.150   5.123   0.415  0.6097  0.8143 -0.2286
   26MOL   C16419214   6.281   5.193   0.446  0.6780  0.0659 -0.1360
   26MOL   C16519215   6.328   5.182   0.593 -0.3341  1.0289 -0.0759
   26MOL   C16619216   6.268   5.288   0.685  0.0789  0.3792  0.1514
   26MOL   C16719217   6.228   5.231   0.826 -0.2849 -0.1688 -0.2041
   26MOL   C16819218   6.161   5.338   0.923  0.3565 -0.2442  0.0299
   26MOL   N16919219   6.027   5.379   0.876  0.2331 -0.2486 -0.4422
   26MOL   H17019220   5.783   4.849   7.589 -0.0151  0.3209  0.3165
   26MOL   H17119221   5.866   4.939   7.469 -0.9509  0.8086 -1.6365
   26MOL   H17219222   5.813   5.161   7.580  1.1409  0.4074  0.0077
   26MOL   H17319223   5.745   5.084   0.006  0.0156 -1.6579  0.0664
   26MOL   H17419224   6.033   5.022   7.633  0.7182  0.2116 -0.3907
   26MOL   H17519225   5.951   4.975   0.076 -1.0462 -0.7631 -0.6041
   26MOL   H17619226   5.926   5.226   0.104 -0.0116 -0.9035  0.4288
   26MOL   H17719227   6.057   5.243   7.688 -0.8112  0.9770  0.7163
   26MOL   H17819228   6.005   5.237   0.309  0.2868  1.5272  0.8451
   26MOL   H17919229   6.084   5.165   0.491  1.2960 -1.4403  1.6832
   26MOL   H18019230   6.156   5.015   0.428  2.0286  0.6080 -2.3520
   26MOL   H18119231   6.355   5.147   0.380 -0.9640 -0.2070 -1.8312
   26MOL   H18219232   6.286   5.299   0.423  3.9506  0.0935  0.4045
   26MOL   H18319233   6.436   5.175   0.611 -0.2233  1.1595 -0.6787
   26MOL   H18419234   6.295   5.089   0.638  2.6770 -0.0753 -0.0481
   26MOL   H18519235   6.342   5.367   0.677  2.6713 -2.0344 -0.3564
   26MOL   H18619236   6.179   5.333   0.641  0.8402  1.3152 -0.4611
   26MOL   H18719237   6.161   5.146   0.812 -1.6389  0.7005  0.8827
   26MOL   H18819238   6.311   5.200   0.889  1.8421  0.5569 -2.5794
   26MOL   H18919239   6.223   5.427   0.929 -1.7899  1.2047  1.3630
   26MOL   H19019240   6.151   5.306   1.027 -1.3821 -2.1807 -0.6962
   26MOL   H19119241   5.989   5.337   0.793 -1.4066 -0.0240  0.1928
   26MOL   C19219242   5.951   5.469   0.938 -0.3404  0.1709 -0.0161
   26MOL   O19319243   5.986   5.511   1.049 -0.3170 -0.0191  0.3953
   26MOL   C19419244   5.823   5.515   0.873 -0.4146 -0.1026  0.2331
   26MOL   C19519245   5.839   5.648   0.793 -0.3274 -0.2182  0.7733
   26MOL   C19619246   5.710   5.678   0.718  0.5133 -0.2766  0.6325
   26MOL   C19719247   5.727   5.775   0.600 -0.2308 -1.2225 -0.5163
   26MOL   C19819248   5.775   5.919   0.624 -0.3302  0.4848  0.4165
   26MOL   O19919249   5.695   5.998   0.667 -0.1460  0.6710 -0.2719
   26MOL   N20019250   5.901   5.948   0.603  0.2874 -0.3463 -0.1097
   26MOL   C20119251   5.965   6.081   0.626  0.8207  0.0941 -0.3033
   26MOL   C20219252   6.086   6.078   0.718 -0.3212 -0.5487 -0.6762
   26MOL   C20319253   6.037   6.069   0.864  0.3630 -0.2532 -0.4305
   26MOL   C20419254   6.130   6.137   0.965 -0.5984 -0.0816  0.3057
   26MOL   C20519255   6.085   6.138   1.113  0.2757  0.0255  0.5802
   26MOL   C20619256   6.202   6.155   1.204  0.3457  0.0024  0.1152
   26MOL   N20719257   6.161   6.216   1.333  0.3217  0.4222 -0.4299
   26MOL   H20819258   5.788   5.440   0.803 -4.2332  1.8769 -0.1393
   26MOL   H20919259   5.761   5.524   0.962  2.3589 -1.4569  2.3939
   26MOL   H21019260   5.870   5.733   0.853  0.4341 -0.0510  0.1527
   26MOL   H21119261   5.915   5.630   0.717 -1.7340 -2.7367 -0.1081
   26MOL   H21219262   5.631   5.699   0.791  0.5734  0.5209  0.4799
   26MOL   H21319263   5.680   5.582   0.677  1.4438 -0.9542  1.5377
   26MOL   H21419264   5.635   5.770   0.543 -1.8191 -1.1406  1.9458
   26MOL   H21519265   5.807   5.726   0.545  1.1962 -1.0313  1.3334
   26MOL   H21619266   5.963   5.874   0.574  2.4302  1.0726  0.7512
   26MOL   H21719267   5.997   6.101   0.524 -2.8903 -1.0370 -1.7718
   26MOL   H21819268   5.886   6.153   0.648  1.3045  1.0395 -1.6019
   26MOL   H21919269   6.141   5.986   0.697  0.0979 -0.5558  0.4090
   26MOL   H22019270   6.145   6.169   0.707  2.2863 -2.1360 -0.2337
   26MOL   H22119271   6.034   5.964   0.893 -0.6311 -0.6869 -2.0315
   26MOL   H22219272   5.940   6.118   0.874 -0.3330 -1.4776 -1.0868
   26MOL   H22319273   6.227   6.087   0.958 -0.6641  0.0645 -1.7391
   26MOL   H22419274   6.149   6.241   0.938  0.1429  0.2614  2.0389
   26MOL   H22519275   6.018   6.225   1.117  1.1401  0.6790  1.0196
   26MOL   H22619276   6.029   6.046   1.130  0.4756 -0.2074 -0.0299
   26MOL   H22719277   6.276   6.219   1.157  0.0269  0.6668  0.5278
   26MOL   H22819278   6.258   6.061   1.206 -0.5345 -0.5569 -0.6665
   26MOL   H22919279   6.094   6.291   1.336 -1.3569 -1.0995  1.8843
   26MOL   C23019280   6.212   6.184   1.452 -0.3112  0.0080  0.3862
   26MOL   O23119281   6.305   6.105   1.460 -0.6024 -0.2488  0.2354
   26MOL   C23219282   6.156   6.251   1.578 -0.5048  0.0601  0.4666
   26MOL   C23319283   6.208   6.197   1.710  0.6048 -0.0225 -0.0977
   26MOL   C23419284   6.122   6.084   1.785  0.1703 -0.2822  0.4259
   26MOL   C23519285   6.103   5.952   1.701 -0.2613  0.3006  0.2925
   26MOL   C23619286   5.973   5.948   1.619  0.4186  0.0546  0.3197
   26MOL   O23719287   5.865   5.990   1.665 -0.2265 -0.1007 -0.3064
   26MOL   N23819288   5.985   5.890   1.502 -0.1637  0.7858 -0.1334
   26MOL   C23919289   5.884   5.915   1.401 -0.1239  0.1619  0.4655
   26MOL   C24019290   5.894   5.808   1.288  0.5109 -0.0769 -0.2467
   26MOL   C24119291   5.803   5.820   1.172  0.0156  0.1008 -0.4573
   26MOL   C24219292   5.650   5.834   1.212  0.5744 -0.3046  0.5484
   26MOL   C24319293   5.561   5.806   1.091  0.5450 -0.0260  0.7285
   26MOL   C24419294   5.427   5.888   1.106 -0.3482  0.0429  0.2215
   26MOL   N24519295   5.349   5.860   1.225 -0.4897 -0.0668  0.4244
   26MOL   H24619296   6.171   6.359   1.578  2.4773 -0.2490  3.8921
   26MOL   H24719297   6.051   6.222   1.570  0.0879 -1.5939 -1.9450
   26MOL   H24819298   6.313   6.170   1.697  1.0051  1.2941  0.2461
   26MOL   H24919299   6.209   6.277   1.785 -1.1846 -2.0545  2.1657
   26MOL   H25019300   6.029   6.135   1.810  1.6255  2.2357  0.9301
   26MOL   H25119301   6.173   6.058   1.878 -1.5562 -1.7496  0.9868
   26MOL   H25219302   6.099   5.868   1.770  3.4050  0.4145  0.7614
   26MOL   H25319303   6.193   5.932   1.642  0.7695  0.9082  1.6345
   26MOL   H25419304   6.074   5.860   1.465 -0.8786 -0.5229 -0.8336
   26MOL   H25519305   5.780   5.912   1.435 -0.4671 -0.5186 -0.5764
   26MOL   H25619306   5.904   6.016   1.366  0.0691  0.2711  0.9021
   26MOL   H25719307   5.997   5.817   1.252 -0.5792  0.4991 -3.3059
   26MOL   H25819308   5.873   5.716   1.343 -0.9628  1.1118  1.2422
   26MOL   H25919309   5.826   5.730   1.114 -1.4368  0.3145 -1.3995
   26MOL   H26019310   5.819   5.910   1.112 -0.8443  0.4160 -0.2282
   26MOL   H26119311   5.630   5.764   1.293 -1.5146 -3.0546 -2.2199
   26MOL   H26219312   5.633   5.933   1.253 -1.0790  0.0175 -0.8194
   26MOL   H26319313   5.606   5.834   0.996 -1.2430 -0.5129 -0.2961
   26MOL   H26419314   5.546   5.699   1.077 -1.6228  0.5534 -1.9173
   26MOL   H26519315   5.365   5.857   1.022  0.5785 -0.7105 -0.1984
   26MOL   H26619316   5.441   5.994   1.086 -0.8874 -0.2842 -1.9623
   26MOL   H26719317   5.315   5.765   1.228 -0.8518  0.0624  0.4148
   26MOL   C26819318   5.327   5.943   1.325  0.6046  0.6268  0.6631
   26MOL   O26919319   5.341   6.067   1.320  0.2689 -0.4064 -0.0234
   26MOL   C27019320   5.266   5.876   1.450  0.1482 -0.4324 -0.0995
   26MOL   C27119321   5.357   5.898   1.570 -1.1973  0.3903 -0.2600
   26MOL   C27219322   5.482   5.811   1.566 -0.4927 -0.1599  0.6511
   26MOL   C27319323   5.558   5.792   1.698  0.5576 -0.8793 -0.3430
   26MOL   C27419324   5.649   5.669   1.709 -0.2361 -0.0786 -0.5824
   26MOL   O27519325   5.608   5.556   1.735 -0.2356  0.1759 -0.4741
   26MOL   N27619326   5.778   5.694   1.684  0.0012 -0.0509 -0.3698
   26MOL   C27719327   5.882   5.596   1.706 -0.0932  0.0705 -0.5357
   26MOL   C27819328   5.898   5.551   1.852  0.0948  0.4861  0.0760
   26MOL   C27919329   6.011   5.436   1.873 -0.3812 -0.4701 -0.1256
   26MOL   C28019330   6.154   5.478   1.842  0.6713  0.6221  0.7967
   26MOL   C28119331   6.255   5.364   1.873  0.4263  0.4724 -0.4954
   26MOL   C28219332   6.363   5.372   1.759 -0.7077  0.1184 -0.4316
   26MOL   N28319333   6.329   5.312   1.633 -0.6911  0.6058  0.1806
   26MOL   H28419334   5.178   5.937   1.468  1.8560  1.8570  0.7567
   26MOL   H28519335   5.224   5.775   1.442 -0.0408 -0.3479 -0.1843
   26MOL   H28619336   5.379   6.004   1.586  0.3860  0.5774 -3.4283
   26MOL   H28719337   5.310   5.863   1.662 -2.0025 -2.0941 -1.5707
   26MOL   H28819338   5.551   5.837   1.485 -0.9460 -0.3932  0.1868
   26MOL   H28919339   5.442   5.714   1.537 -0.7697  1.1699 -3.7514
   26MOL   H29019340   5.478   5.768   1.767 -0.1063 -1.8539 -1.4363
   26MOL   H29119341   5.614   5.882   1.725 -0.8349 -0.8376  2.6489
   26MOL   H29219342   5.807   5.789   1.663 -0.5062  0.5296  1.5156
   26MOL   H29319343   5.862   5.504   1.650  0.5006 -2.7851  3.6628
   26MOL   H29419344   5.979   5.627   1.669  0.2447 -1.7791 -1.2748
   26MOL   H29519345   5.922   5.637   1.914  1.3412 -0.5492  1.0902
   26MOL   H29619346   5.802   5.514   1.887  0.0004 -0.7885 -1.4588
   26MOL   H29719347   5.981   5.357   1.804 -0.4708 -0.8547  0.3507
   26MOL   H29819348   6.009   5.400   1.975 -0.1641 -0.0117  0.0403
   26MOL   H29919349   6.155   5.497   1.735  1.4856  0.0711  0.7090
   26MOL   H30019350   6.173   5.575   1.888  1.4777  0.6727  0.3652
   26MOL   H30119351   6.310   5.382   1.965  2.0350  0.6521 -1.4667
   26MOL   H30219352   6.206   5.267   1.880 -2.3011  1.7758 -0.6392
   26MOL   H30319353   6.460   5.332   1.785 -1.2298 -0.6493  0.3432
   26MOL   H30419354   6.390   5.476   1.744 -1.5612  0.5180  0.7745
   26MOL   H30519355   6.294   5.367   1.555  0.4910  0.3474 -0.5393
   26MOL   C30619356   6.320   5.181   1.614 -0.3707 -1.5996 -0.3815
   26MOL   O30719357   6.387   5.098   1.682 -0.5498 -0.2086 -0.9380
   26MOL   C30819358   6.231   5.122   1.508 -0.4771  0.5443 -0.2945
   26MOL   C30919359   6.159   5.211   1.406 -0.2740  0.3995  1.0816
   26MOL   C31019360   6.056   5.310   1.467 -0.3949 -0.2825 -0.1404
   26MOL   C31119361   6.027   5.425   1.368 -0.3752  0.0705 -0.1705
   26MOL   C31219362   6.142   5.528   1.378 -0.2771  0.5826 -0.2533
   26MOL   O31319363   6.206   5.541   1.480  0.3168 -0.3482  0.0354
   26MOL   N31419364   6.172   5.601   1.272 -0.2979  0.1981 -0.0285
   26MOL   C31519365   6.281   5.705   1.262  1.7458  0.8298 -0.5759
   26MOL   C31619366   6.358   5.676   1.134 -0.2569 -0.2998  0.3013
   26MOL   C31719367   6.277   5.729   1.016  0.2361 -0.3995 -0.2112
   26MOL   C31819368   6.349   5.738   0.882 -0.9358 -0.9795 -0.1690
   26MOL   C31919369   6.253   5.701   0.762  0.1424 -0.7194 -0.0543
   26MOL   C32019370   6.322   5.707   0.624 -0.0119 -0.0528 -0.3897
   26MOL   N32119371   6.248   5.627   0.534  0.2837 -0.0726 -0.1487
   26MOL   H32219372   6.294   5.049   1.457  1.2097 -0.1905  2.7297
   26MOL   H32319373   6.144   5.068   1.546  0.4632  1.4441  3.3752
   26MOL   H32419374   6.232   5.255   1.340  0.0578 -1.6802  0.0106
   26MOL   H32519375   6.107   5.145   1.336  1.7723  0.0790 -0.1649
   26MOL   H32619376   6.086   5.338   1.568 -3.6368  1.1955  0.4953
   26MOL   H32719377   5.959   5.261   1.479  0.3106 -1.6268  0.1355
   26MOL   H32819378   5.941   5.481   1.407 -1.3992 -2.4941  1.3521
   26MOL   H32919379   6.004   5.393   1.266 -1.7019  1.2383 -0.2481
   26MOL   H33019380   6.096   5.602   1.205  1.6679  3.3495 -2.3079
   26MOL   H33119381   6.237   5.805   1.256  1.2894  0.5813 -1.4641
   26MOL   H33219382   6.341   5.692   1.352 -0.9901  0.3056  1.2527
   26MOL   H33319383   6.456   5.724   1.135 -0.3253 -0.0893 -1.3601
   26MOL   H33419384   6.371   5.568   1.132  1.5508 -0.0991 -1.1318
   26MOL   H33519385   6.231   5.826   1.034  1.5430  0.2209 -0.1566
   26MOL   H33619386   6.192   5.665   0.994  0.1315 -0.4536  0.3221
   26MOL   H33719387   6.396   5.834   0.863  0.9502 -1.8209  0.1670
   26MOL   H33819388   6.440   5.680   0.894 -0.3341  0.0430  0.2207
   26MOL   H33919389   6.231   5.596   0.779 -0.9900 -0.3475  0.8755
   26MOL   H34019390   6.163   5.763   0.752 -0.8053 -2.2175 -0.9163
   26MOL   H34119391   6.422   5.666   0.628  0.7705  1.7637 -0.5945
   26MOL   H34219392   6.337   5.812   0.597  0.7390 -0.5536 -1.9462
   26MOL   H34319393   6.298   5.550   0.493  0.8839  0.6218 -0.7264
   26MOL   C34419394   6.125   5.647   0.479 -0.3225  0.3138 -1.0771
   26MOL   O34519395   6.046   5.728   0.522 -0.1088  0.0955 -0.7623
   26MOL   C34619396   6.093   5.562   0.360 -0.1221  0.0240 -0.4870
   26MOL   C34719397   5.947   5.540   0.338  0.3479 -0.5044  0.2376
   26MOL   C34819398   5.864   5.463   0.447  0.8709  0.3878  0.7069
   26MOL   C34919399   5.718   5.450   0.415  0.0119  0.0521  0.0980
   26MOL   C35019400   5.693   5.346   0.311  0.0542 -0.1117  0.1616
   26MOL   O35119401   5.781   5.263   0.283  0.2999 -0.4497  0.0294
   26MOL   N35219402   5.577   5.346   0.253  0.2439  0.5228  0.0711
   26MOL   C35319403   5.550   5.265   0.134 -0.3230 -0.0259  0.0634
   26MOL   C35419404   5.442   5.330   0.055 -0.1910  0.2313 -0.0445
   26MOL   C35519405   5.396   5.266   7.632 -0.1591 -0.1823  0.2103
   26MOL   C35619406   5.327   5.123   7.645 -0.1538 -0.1609  0.3588
   26MOL   C35719407   5.186   5.132   0.006  1.0249 -0.0966  0.6140
   26MOL   C35819408   5.088   5.220   7.624  0.0793  0.1043  0.0689
   26MOL   N35919409   4.948   5.223   7.680 -0.2379  0.2095 -0.4247
   26MOL   H36019410   6.136   5.612   0.274  1.9911 -0.1428  0.4479
   26MOL   H36119411   6.138   5.463   0.367  1.1745  0.4542 -2.3815
   26MOL   H36219412   5.901   5.638   0.328  2.4038  0.4375 -0.1259
   26MOL   H36319413   5.918   5.500   0.241  0.8028  0.1578 -0.1706
   26MOL   H36419414   5.865   5.511   0.545  1.1892  0.3482  0.7242
   26MOL   H36519415   5.905   5.365   0.470 -2.1011 -0.8151  1.1486
   26MOL   H36619416   5.686   5.548   0.379 -0.5254  0.1370  0.7973
   26MOL   H36719417   5.654   5.416   0.496 -0.7865  3.4934  0.9978
   26MOL   H36819418   5.503   5.412   0.273  1.4676  2.8121 -2.5943
   26MOL   H36919419   5.641   5.257   0.073 -1.3206 -2.0634 -1.1914
   26MOL   H37019420   5.519   5.166   0.166  0.8728  0.3942  2.7054
   26MOL   H37119421   5.348   5.343   0.109  0.0825 -0.3446  0.5620
   26MOL   H37219422   5.486   5.430   0.050  1.1264 -0.2520  1.4696
   26MOL   H37319423   5.479   5.246   7.566 -0.8256 -1.1731 -0.3345
   26MOL   H37419424   5.322   5.320   7.573 -0.4775  0.2212  0.9573
   26MOL   H37519425   5.304   5.086   7.545 -0.8322 -1.6207  1.0417
   26MOL   H37619426   5.397   5.052   7.689 -0.4408 -1.4207 -1.1597
   26MOL   H37719427   5.148   5.030   0.005  1.4523 -0.2711 -2.0158
   26MOL   H37819428   5.198   5.172   0.106  1.9178  3.2370 -0.7557
   26MOL   H37919429   5.078   5.187   7.521 -3.0019  1.7700 -0.1980
   26MOL   H38019430   5.120   5.324   7.620  1.1426 -0.2544 -0.8073
   26MOL   H38119431   4.938   5.298   0.039  0.9779 -1.3936  1.5757
   26MOL   C38219432   4.850   5.135   7.675  0.3947 -0.0193 -0.1569
   26MOL   O38319433   4.854   5.025   7.613  0.4033  0.0396  0.1825
   26MOL   C38419434   4.724   5.173   0.041  0.1211  0.1240  0.5292
   26MOL   C38519435   4.641   5.053   0.085 -0.3096  0.0373 -0.6792
   26MOL   C38619436   4.698   4.966   0.197  0.3111 -0.1141  0.2048
   26MOL   C38719437   4.599   4.860   0.245  0.1183 -0.0199  0.6341
   26MOL   C38819438   4.619   4.824   0.394 -0.6302 -0.3539 -0.7851
   26MOL   O38919439   4.635   4.909   0.483  0.6536 -0.1704  0.1647
   26MOL   N39019440   4.616   4.695   0.426  0.2738  0.3600  0.1229
   26MOL   C39119441   4.599   4.636   0.559  0.6473  0.0117  0.1731
   26MOL   C39219442   4.725   4.578   0.612  0.6202 -0.3634  0.1145
   26MOL   C39319443   4.697   4.491   0.740  0.1584 -0.6635 -0.1100
   26MOL   C39419444   4.829   4.433   0.796 -0.3974  0.2973  0.5262
   26MOL   C39519445   4.913   4.540   0.873 -0.2402 -0.5860  0.3659
   26MOL   C39619446   5.009   4.471   0.974  0.3017  0.5226  0.0269
   26MOL   N39719447   5.067   4.348   0.922  0.3413  0.5203 -0.5833
   26MOL   H39819448   4.757   5.218   0.134 -0.8278  1.7423  0.1008
   26MOL   H39919449   4.660   5.238   7.689  0.1138 -1.9281 -1.7704
   26MOL   H40019450   4.542   5.092   0.110 -0.1364  1.3093 -1.8927
   26MOL   H40119451   4.620   4.994   7.704 -0.6376 -0.3252 -0.3651
   26MOL   H40219452   4.721   5.026   0.285 -0.5887 -1.1318  1.1471
   26MOL   H40319453   4.787   4.911   0.165 -0.2046 -0.0127 -1.4759
   26MOL   H40419454   4.593   4.780   0.171  1.0716  1.3271 -0.9354
   26MOL   H40519455   4.498   4.900   0.240 -0.2653 -1.0197  0.2814
   26MOL   H40619456   4.619   4.634   0.345  0.6356 -0.5804  0.8358
   26MOL   H40719457   4.564   4.715   0.626 -1.9349 -0.4337 -0.5789
   26MOL   H40819458   4.524   4.556   0.560  1.4679 -0.8205 -1.9497
   26MOL   H40919459   4.765   4.507   0.541  1.4230  1.7680 -1.6160
   26MOL   H41019460   4.797   4.656   0.637 -0.5985  0.9438 -0.3955
   26MOL   H41119461   4.645   4.402   0.704 -1.2546  0.6145 -1.3418
   26MOL   H41219462   4.637   4.544   0.814  1.0280  0.0804  0.0785
   26MOL   H41319463   4.807   4.356   0.869 -0.9995  0.5321  0.5946
   26MOL   H41419464   4.893   4.389   0.719 -2.6164 -1.2456 -0.4926
   26MOL   H41519465   4.968   4.599   0.800 -0.0122 -1.2296  0.0075
   26MOL   H41619466   4.851   4.606   0.933  1.2445  1.9959 -0.8602
   26MOL   H41719467   4.951   4.447   1.063 -1.9080  0.3592 -1.4173
   26MOL   H41819468   5.089   4.538   1.005 -1.4010  3.3236 -1.3962
   26MOL   H41919469   5.021   4.261   0.943 -0.8720  1.5449  1.1213
   26MOL   C42019470   5.179   4.354   0.848  0.0119  0.5991  0.1031
   26MOL   O42119471   5.235   4.460   0.815 -0.4722  0.1051  0.2428
   26MOL   C42219472   5.254   4.218   0.822  0.0264  0.1308 -0.4314
   26MOL   C42319473   5.380   4.212   0.911  0.0233  0.0631  0.7575
   26MOL   C42419474   5.482   4.106   0.864 -0.1732  0.5432  0.6598
   26MOL   C42519475   5.597   4.111   0.969 -0.7213  0.4356 -0.3191
   26MOL   C42619476   5.704   4.000   0.940  0.5087  0.2031  0.8736
   26MOL   O42719477   5.693   3.926   0.845  0.0557  0.1595  0.1667
   26MOL   N42819478   5.797   3.989   1.034 -0.8451  0.4759  0.3115
   26MOL   C42919479   5.899   3.885   1.045  0.4098  0.7832  0.1262
   26MOL   C43019480   5.838   3.754   1.100 -1.0042  0.5719 -0.2285
   26MOL   C43119481   5.946   3.650   1.138 -0.4878 -0.0741  0.0645
   26MOL   C43219482   5.894   3.514   1.183  1.0411  0.5032 -0.0548
   26MOL   C43319483   6.006   3.422   1.235  0.7064 -0.0078 -0.4975
   26MOL   C43419484   5.970   3.279   1.260  0.1303  0.6555  0.7084
   26MOL   N43519485   6.076   3.190   1.301 -0.8202 -0.4173  0.3584
   26MOL   H43619486   5.187   4.133   0.819 -0.5218  0.5559 -0.3121
   26MOL   H43719487   5.302   4.219   0.724 -0.2815 -0.9630 -0.5995
   26MOL   H43819488   5.443   4.301   0.911 -1.6405  1.2957  3.2116
   26MOL   H43919489   5.346   4.185   1.012 -2.4682  1.2376  0.2771
   26MOL   H44019490   5.527   4.128   0.767 -2.1475 -0.7849 -0.5913
   26MOL   H44119491   5.432   4.009   0.859  0.3030  0.3495 -0.5828
   26MOL   H44219492   5.560   4.100   1.071 -1.0766  1.9845 -0.2580
   26MOL   H44319493   5.644   4.210   0.969  2.6427 -1.0818 -2.0537
   26MOL   H44419494   5.798   4.053   1.111  0.9256  0.3011  0.4642
   26MOL   H44519495   5.944   3.875   0.946  0.0427 -0.4098  0.0690
   26MOL   H44619496   5.983   3.909   1.109  1.6776 -1.1432 -0.7585
   26MOL   H44719497   5.781   3.781   1.189 -3.0224 -1.7745 -0.7666
   26MOL   H44819498   5.769   3.705   1.031  0.6401 -0.3313 -1.2675
   26MOL   H44919499   6.019   3.699   1.201  0.2264  1.4104 -1.8595
   26MOL   H45019500   6.007   3.618   1.053 -1.0394 -0.2137 -0.2862
   26MOL   H45119501   5.819   3.531   1.261  1.0636 -1.0249  0.3317
   26MOL   H45219502   5.843   3.463   1.101 -2.6743 -0.4362  2.6639
   26MOL   H45319503   6.081   3.420   1.155  0.1270 -2.1163 -1.0174
   26MOL   H45419504   6.051   3.471   1.322 -1.1697  1.0330 -0.0715
   26MOL   H45519505   5.927   3.240   1.167  1.0517  1.6496 -0.1432
   26MOL   H45619506   5.894   3.279   1.339 -1.1003  0.3336 -0.4452
   26MOL   H45719507   6.089   3.190   1.402 -1.5812 -2.1711  0.4721
   26MOL   C45819508   6.156   3.106   1.234 -0.4550  0.2214 -0.5457
   26MOL   O45919509   6.219   3.015   1.302 -0.1552  0.0487 -0.4893
   26MOL   C46019510   6.165   3.111   1.079 -0.1162 -0.4943  0.1979
   26MOL   C46119511   6.306   3.092   1.018  0.5098 -0.0338 -0.1451
   26MOL   C46219512   6.377   3.225   0.988 -0.5586  0.1256  0.3270
   26MOL   C46319513   6.519   3.221   0.933  0.2781 -0.4132  0.3497
   26MOL   C46419514   6.528   3.147   0.797  0.4471 -0.2556  0.7150
   26MOL   O46519515   6.431   3.134   0.723  0.4494 -0.7337  0.5813
   26MOL   N46619516   6.643   3.100   0.761 -0.3262 -0.3995  0.0273
   26MOL   C46719517   6.668   3.018   0.635  0.1972 -0.2902 -0.1399
   26MOL   C46819518   6.759   3.092   0.535 -0.3044  0.3244  0.4430
   26MOL   C46919519   6.734   3.246   0.522  0.2078 -0.2348  0.8971
   26MOL   C47019520   6.816   3.313   0.408  0.4884  0.1322  0.5167
   26MOL   C47119521   6.801   3.461   0.404  0.0926  0.4904  0.4909
   26MOL   C47219522   6.849   3.521   0.271  0.1012  0.1751 -0.6788
   26MOL   N47319523   6.813   3.658   0.264 -1.0467  0.0528  0.2186
   26MOL   H47419524   6.094   3.033   1.050 -3.3383  1.1369  3.3464
   26MOL   H47519525   6.132   3.210   1.049  3.0377 -0.2502 -2.7482
   26MOL   H47619526   6.373   3.028   1.075  2.1281 -0.3575 -2.3517
   26MOL   H47719527   6.282   3.051   0.920 -0.4372  0.0476  0.0498
   26MOL   H47819528   6.392   3.287   1.076 -0.5492  1.3871 -0.5513
   26MOL   H47919529   6.334   3.290   0.912  0.6070 -1.2631 -1.5645
   26MOL   H48019530   6.597   3.190   1.002  0.7505 -0.7586 -0.3389
   26MOL   H48119531   6.544   3.325   0.912 -0.8607  0.0073  1.0161
   26MOL   H48219532   6.727   3.122   0.813 -0.7760  1.6590 -0.1031
   26MOL   H48319533   6.708   2.920   0.662  1.1426 -0.0765 -0.7348
   26MOL   H48419534   6.567   2.988   0.606 -0.1312  2.1708 -1.6853
   26MOL   H48519535   6.862   3.070   0.563  0.1390  0.2060 -1.2582
   26MOL   H48619536   6.749   3.038   0.441  0.9628  0.1595  0.3940
   26MOL   H48719537   6.745   3.289   0.622 -1.9505  0.3475  0.8987
   26MOL   H48819538   6.629   3.269   0.508  1.0405  1.7337 -2.8015
   26MOL   H48919539   6.924   3.297   0.403  0.3826  0.3451 -3.7579
   26MOL   H49019540   6.775   3.268   0.318 -0.0593 -0.7254  1.1814
   26MOL   H49119541   6.695   3.478   0.416  0.1400  0.7342  0.5696
   26MOL   H49219542   6.852   3.525   0.477 -1.3020  0.5204  1.4658
   26MOL   H49319543   6.808   3.469   0.184  1.3117 -0.1433 -1.0710
   26MOL   H49419544   6.957   3.511   0.260  0.1184  0.8125 -1.1341
   26MOL   H49519545   6.712   3.667   0.266 -0.9599  0.9762  0.5205
   26MOL   C49619546   6.879   3.770   0.280  0.6520 -0.1778  0.3899
   26MOL   O49719547   6.996   3.777   0.310  0.1575  0.4610  0.2078
   26MOL   C49819548   6.795   3.898   0.267  0.1847 -0.3799 -0.5253
   26MOL   C49919549   6.778   3.949   0.116  0.1249  0.5033  0.6052
   26MOL   C50019550   6.912   3.992   0.048  1.0654 -0.5749 -0.4842
   26MOL   C50119551   6.906   4.032   7.610 -0.0756 -0.3535 -0.1190
   26MOL   C50219552   6.830   4.158   7.574  0.3592 -0.2791 -0.7873
   26MOL   O50319553   6.743   4.207   7.648  0.1350 -0.3164 -0.2737
   26MOL   N50419554   6.875   4.222   7.463 -0.3302  0.2988 -0.3055
   26MOL   C50519555   6.850   4.361   7.438 -0.1350  0.1481  0.0141
   26MOL   C50619556   6.968   4.465   7.433 -0.1903  0.0977  0.0161
   26MOL   C50719557   7.083   4.430   7.332 -0.7389 -0.2337  0.3359
   26MOL   C50819558   7.209   4.508   7.369 -0.7292  0.0922  0.6311
   26MOL   C50919559   7.332   4.465   7.284  0.4557 -0.2132 -0.2571
   26MOL   C51019560   7.323   4.471   7.129 -0.3629 -0.7189  0.2550
   26MOL   N51119561   7.265   4.603   7.093  0.0476 -0.0434  0.0026
   26MOL   H51219562   6.702   3.872   0.318  0.2327  0.2921 -0.0960
   26MOL   H51319563   6.842   3.981   0.319 -2.4252  0.7369  0.1486
   26MOL   H51419564   6.736   3.868   0.056  0.1273  0.9680 -0.0259
   26MOL   H51519565   6.714   4.035   0.137 -1.1472 -0.4721  0.8011
   26MOL   H51619566   6.979   3.905   0.054  1.9585  0.0643 -1.0416
   26MOL   H51719567   6.941   4.078   0.109  1.0598 -1.2726  0.5280
   26MOL   H51819568   6.862   3.960   7.542 -1.5451 -0.7770  1.2351
   26MOL   H51919569   7.009   4.037   7.576 -0.4001  1.9039 -0.8768
   26MOL   H52019570   6.919   4.168   7.390 -1.7891  0.3557 -1.2431
   26MOL   H52119571   6.813   4.360   7.336 -1.9526  0.1378  0.6594
   26MOL   H52219572   6.774   4.404   7.503 -0.2999  0.3006 -0.2770
   26MOL   H52319573   6.942   4.567   7.402  2.4912  0.8069 -0.0456
   26MOL   H52419574   7.005   4.490   7.532 -1.7800  0.0385  0.6381
   26MOL   H52519575   7.045   4.460   7.234  0.0364  2.1434  0.7302
   26MOL   H52619576   7.109   4.324   7.327 -1.0503 -0.2593 -0.8903
   26MOL   H52719577   7.201   4.616   7.357 -0.1084  0.0825  0.0633
   26MOL   H52819578   7.226   4.489   7.475  1.1336  0.4862  0.4287
   26MOL   H52919579   7.418   4.523   7.318  0.6371 -1.9721  2.3354
   26MOL   H53019580   7.364   4.367   7.318 -0.3333 -0.0116  1.0833
   26MOL   H53119581   7.258   4.389   7.100  0.0725 -0.8955 -0.2303
   26MOL   H53219582   7.419   4.454   7.079 -0.6863  0.2206 -0.7129
   26MOL   H53319583   7.285   4.683   7.152  1.3951  0.2255 -0.7737
   26MOL   C53419584   7.158   4.625   7.020 -0.2425  0.3695 -0.0312
   26MOL   O53519585   7.105   4.538   6.943 -0.5767  0.3918 -0.5722
   26MOL   C53619586   7.089   4.755   7.025 -0.1583  0.3823 -0.5125
   26MOL   C53719587   7.094   4.830   6.890 -0.7447  0.6844 -0.2591
   26MOL   C53819588   7.233   4.865   6.824 -0.7405 -0.3268 -0.0032
   26MOL   C53919589   7.225   4.880   6.673  0.0398 -0.1603 -0.6993
   26MOL   C54019590   7.359   4.883   6.604 -0.4337  0.2451  0.0489
   26MOL   O54119591   7.460   4.903   6.671 -0.2195 -0.7290 -0.1151
   26MOL   N54219592   7.371   4.844   6.478  0.2175 -0.2370  0.3031
   26MOL   C54319593   7.501   4.823   6.419 -0.3627  0.8545 -0.6579
   26MOL   C54419594   7.486   4.859   6.272  0.6131 -0.4318  0.0093
   26MOL   C54519595   7.419   4.759   6.171 -0.6046  0.2702  0.2425
   26MOL   C54619596   7.416   4.821   6.033  0.0722 -0.6517 -0.4829
   26MOL   C54719597   7.366   4.713   5.928 -0.2772  0.1408  0.3314
   26MOL   C54819598   7.364   4.759   5.788  1.1621 -0.0845  0.2036
   26MOL   N54919599   7.314   4.899   5.773 -0.2882  0.9957 -0.4527
   26MOL   H55019600   6.987   4.739   7.058 -0.5806  0.9441 -1.5002
   26MOL   H55119601   7.122   4.804   7.116  1.5384 -1.4122 -0.1233
   26MOL   H55219602   7.029   4.775   6.822 -0.2181 -0.2949  0.0138
   26MOL   H55319603   7.046   4.923   6.920  0.2555  0.7216  1.2794
   26MOL   H55419604   7.291   4.776   6.848  0.3872  0.7986  1.5009
   26MOL   H55519605   7.284   4.946   6.875 -2.1717  0.2458  0.5544
   26MOL   H55619606   7.159   4.960   6.638  0.7867  1.5161  1.6322
   26MOL   H55719607   7.173   4.793   6.633 -0.2914  0.3633 -1.4287
   26MOL   H55819608   7.298   4.787   6.437  1.0494 -1.2019  0.1369
   26MOL   H55919609   7.583   4.882   6.460  0.9355 -0.5450 -1.1989
   26MOL   H56019610   7.541   4.723   6.435 -1.3835  0.7011  1.0884
   26MOL   H56119611   7.446   4.952   6.233  3.3028 -0.7141 -3.6103
   26MOL   H56219612   7.588   4.857   6.234  0.0535 -3.9521 -1.4855
   26MOL   H56319613   7.317   4.735   6.200 -1.0464  0.5504 -1.0721
   26MOL   H56419614   7.471   4.663   6.172 -1.2368 -0.0668  1.5151
   26MOL   H56519615   7.347   4.905   6.038 -0.7324 -1.3763  1.4007
   26MOL   H56619616   7.512   4.853   5.993 -0.0403 -1.4710 -1.4240
   26MOL   H56719617   7.420   4.620   5.943 -4.5429 -2.4324  0.5595
   26MOL   H56819618   7.266   4.681   5.956 -0.8631  0.4142 -1.3853
   26MOL   H56919619   7.304   4.683   5.739  1.6505 -0.5748  0.3561
   26MOL   H57019620   7.464   4.750   5.745  0.5312  2.4518 -1.8728
   26MOL   H57119621   7.382   4.973   5.769  0.1138  0.6114 -0.7274
   26MOL   C57219622   7.189   4.936   5.761 -0.4829 -0.1718 -0.0674
   26MOL   O57319623   7.089   4.863   5.766  0.2111 -0.3460  0.0646
   26MOL   C57419624   7.178   5.085   5.733 -0.0715  0.0984  0.4038
   26MOL   C57519625   7.184   5.129   5.587 -0.2066 -0.1742  0.3283
   26MOL   C57619626   7.090   5.053   5.485  0.0488  0.2971  0.1295
   26MOL   C57719627   6.946   5.110   5.486  0.1807 -0.3112 -0.5667
   26MOL   C57819628   6.863   5.018   5.405  0.3883 -0.0780 -0.2871
   26MOL   O57919629   6.776   4.952   5.459  0.1002 -0.3801  0.5509
   26MOL   N58019630   6.876   5.017   5.275  0.0616  0.6993  0.3979
   26MOL   C58119631   6.788   4.937   5.187 -0.1522  0.0208  0.1206
   26MOL   C58219632   6.653   5.005   5.163  0.0632  0.2366 -0.0628
   26MOL   C58319633   6.662   5.126   5.070 -0.3799  0.2978  0.6594
   26MOL   C58419634   6.533   5.179   5.019  0.0341  0.4284  0.5205
   26MOL   C58519635   6.551   5.317   4.949 -0.8760 -0.8170 -0.5582
   26MOL   C58619636   6.422   5.404   4.917  0.1254 -0.3884 -0.4193
   26MOL   N58719637   6.349   5.435   5.044 -0.1176 -0.0535 -0.4401
   26MOL   H58819638   7.079   5.116   5.767 -0.5670 -1.6031  0.5821
   26MOL   H58919639   7.252   5.141   5.790  1.5105 -0.4520 -1.0759
   26MOL   H59019640   7.162   5.236   5.578 -0.5231 -0.3372 -0.9066
   26MOL   H59119641   7.284   5.121   5.546  0.7982  1.4541  2.3269
   26MOL   H59219642   7.098   4.945   5.493 -0.8187  0.0942 -1.5672
   26MOL   H59319643   7.119   5.082   5.384 -0.1498 -2.0084 -0.6122
   26MOL   H59419644   6.952   5.209   5.440  2.7223 -0.7418 -1.2067
   26MOL   H59519645   6.901   5.122   5.584  2.5663  2.3367  0.2521
   26MOL   H59619646   6.945   5.077   5.232 -0.6558  0.2203 -1.4533
   26MOL   H59719647   6.846   4.918   5.097  2.6551  0.8417  1.6876
   26MOL   H59819648   6.775   4.839   5.231  2.1653  0.0306  0.8762
   26MOL   H59919649   6.582   4.932   5.124 -1.3366  1.0972  0.8204
   26MOL   H60019650   6.607   5.040   5.256  1.4872  1.8402  0.0656
   26MOL   H60119651   6.732   5.100   4.991 -0.6767 -0.5288  0.6557
   26MOL   H60219652   6.708   5.212   5.118 -1.7104  1.1456  0.4631
   26MOL   H60319653   6.471   5.119   4.953 -2.0518  2.9678  0.0858
   26MOL   H60419654   6.464   5.196   5.103 -0.7428 -1.0893  0.1995
   26MOL   H60519655   6.636   5.380   4.974 -1.0909 -0.7584  0.0344
   26MOL   H60619656   6.578   5.298   4.845  0.3240 -0.0450 -0.3997
   26MOL   H60719657   6.338   5.362   4.862 -1.8973  1.1175  1.4083
   26MOL   H60819658   6.451   5.493   4.862 -3.0935  0.7769 -0.3548
   26MOL   H60919659   6.362   5.529   5.077 -1.0245  0.6784 -2.1293
   26MOL   C61019660   6.247   5.367   5.112  0.4932  0.6051  0.0876
   26MOL   O61119661   6.210   5.255   5.080 -0.2287  0.0692 -0.5658
   26MOL   C61219662   6.178   5.439   5.228  0.0760 -0.5741  0.3967
   26MOL   C61319663   6.091   5.349   5.326  0.0990 -0.0004 -0.6531
   26MOL   C61419664   6.053   5.432   5.451  0.3026  0.6170  0.2654
   26MOL   C61519665   5.957   5.552   5.413  0.4822 -0.5022 -0.0985
   26MOL   C61619666   5.882   5.607   5.535 -0.6491  0.3731 -1.0421
   26MOL   O61719667   5.929   5.591   5.648  0.3640 -0.7007  0.3690
   26MOL   N61819668   5.767   5.667   5.512 -0.1322 -0.3004 -0.6613
   26MOL   C61919669   5.694   5.738   5.617  0.1945  0.2770  0.4909
   26MOL   C62019670   5.566   5.799   5.571 -0.0444 -0.0289 -0.0340
   26MOL   C62119671   5.444   5.704   5.554 -0.2303  0.1016  0.1130
   26MOL   C62219672   5.312   5.772   5.500  0.1733  0.1865  0.3876
   26MOL   C62319673   5.201   5.678   5.478  0.3599  0.5642  0.9966
   26MOL   C62419674   5.220   5.595   5.344  0.5610 -0.9219 -0.3481
   26MOL   N62519675   5.131   5.482   5.336  0.3444 -0.3258  0.4848
   26MOL   H62619676   6.264   5.482   5.279  0.6618 -0.6600 -0.5166
   26MOL   H62719677   6.117   5.520   5.189 -0.8319 -1.9187 -1.0334
   26MOL   H62819678   5.999   5.309   5.285  0.5769 -1.0415 -0.7226
   26MOL   H62919679   6.152   5.265   5.360 -0.4246  0.5427  1.7743
   26MOL   H63019680   6.140   5.473   5.501  1.6248 -0.4516 -1.1052
   26MOL   H63119681   5.999   5.373   5.524  1.0858 -0.1236  0.2504
   26MOL   H63219682   5.894   5.523   5.328  1.7994 -1.5920 -0.7213
   26MOL   H63319683   6.018   5.627   5.363  2.8264 -1.7399  0.8180
   26MOL   H63419684   5.732   5.670   5.418 -1.5177 -1.4840 -0.2014
   26MOL   H63519685   5.700   5.675   5.706  4.5618 -0.9818 -0.6057
   26MOL   H63619686   5.762   5.817   5.646 -0.3027  0.6157  0.7491
   26MOL   H63719687   5.550   5.871   5.651  0.0380  1.2240 -1.1314
   26MOL   H63819688   5.589   5.857   5.481  0.4862 -0.0319  0.0939
   26MOL   H63919689   5.438   5.667   5.656 -1.5815 -0.7423 -0.2628
   26MOL   H64019690   5.475   5.624   5.488  0.7113  0.1082  0.5385
   26MOL   H64119691   5.284   5.846   5.574 -1.1349  0.8083 -0.7067
   26MOL   H64219692   5.344   5.834   5.416 -1.2801 -1.9507 -1.8278
   26MOL   H64319693   5.203   5.620   5.570 -0.4004 -0.2266  0.5221
   26MOL   H64419694   5.107   5.733   5.483 -0.3131 -0.4386 -0.2995
   26MOL   H64519695   5.319   5.550   5.348  1.1777  0.1359 -2.6526
   26MOL   H64619696   5.217   5.659   5.256  3.2898  0.6415  0.6408
   26MOL   H64719697   5.159   5.393   5.373  0.6171  0.8975  3.3249
   26MOL   C64819698   5.004   5.494   5.298  0.2421 -0.9194  0.1601
   26MOL   O64919699   4.951   5.586   5.238 -0.2961 -0.7969  0.1053
   26MOL   C65019700   4.909   5.385   5.341 -0.3286 -0.1654  0.7582
   26MOL   C65119701   4.827   5.440   5.465 -0.5165 -0.6477 -0.6837
   26MOL   C65219702   4.916   5.438   5.590  1.3470  0.3458  0.2614
   26MOL   C65319703   4.844   5.487   5.719 -0.2877 -0.3083  0.2670
   26MOL   C65419704   4.959   5.508   5.816  0.6500 -0.2580 -0.1645
   26MOL   O65519705   5.042   5.418   5.835 -0.5707  0.0385  0.0601
   26MOL   N65619706   4.951   5.615   5.895  0.0213 -0.2490  0.2612
   26MOL   C65719707   5.042   5.638   6.011  0.6905 -0.0240  0.2077
   26MOL   C65819708   4.968   5.682   6.139  0.3442  0.1878 -0.0121
   26MOL   C65919709   4.870   5.569   6.189  0.0539 -0.0975  0.8373
   26MOL   C66019710   4.738   5.628   6.241 -0.1923  0.4866  0.3973
   26MOL   C66119711   4.638   5.677   6.133 -0.0991 -0.2577 -0.3667
   26MOL   C66219712   4.581   5.560   6.041 -0.0581 -1.3011 -0.1729
   26MOL   N66319713   4.477   5.599   5.948  0.3905  0.2097  0.1962
   26MOL   H66419714   4.845   5.353   5.259 -1.2564  2.2807  0.4660
   26MOL   H66519715   4.961   5.298   5.379  0.4801  0.5893  1.4049
   26MOL   H66619716   4.786   5.540   5.452  1.2300  0.2354  0.5384
   26MOL   H66719717   4.745   5.371   5.487 -0.5974 -0.4551 -0.3790
   26MOL   H66819718   5.010   5.486   5.566  1.1900 -0.4281 -1.9769
   26MOL   H66919719   4.946   5.335   5.607  2.4575  0.6635  0.2217
   26MOL   H67019720   4.755   5.431   5.748 -1.4067  0.8964 -0.7366
   26MOL   H67119721   4.801   5.587   5.705 -1.3233 -0.4313  2.3413
   26MOL   H67219722   4.888   5.691   5.872 -0.1686  0.4596  2.9670
   26MOL   H67319723   5.115   5.559   6.024 -0.6728 -1.6251 -1.5194
   26MOL   H67419724   5.097   5.723   5.971 -0.7054 -0.0870 -1.9461
   26MOL   H67519725   5.046   5.693   6.215 -0.6554  1.8129  0.8134
   26MOL   H67619726   4.913   5.776   6.128  0.1265  0.0308 -0.2377
   26MOL   H67719727   4.921   5.518   6.271  1.2756  2.1960  1.5602
   26MOL   H67819728   4.850   5.492   6.115 -1.9551  0.0423  1.2146
   26MOL   H67919729   4.682   5.552   6.296 -0.6236  0.6598  0.1959
   26MOL   H68019730   4.770   5.707   6.309  0.3933 -0.1070  0.8246
   26MOL   H68119731   4.551   5.727   6.176 -0.3046 -0.6083 -0.3740
   26MOL   H68219732   4.684   5.759   6.077 -1.0752 -0.6405 -1.7329
   26MOL   H68319733   4.526   5.493   6.106  2.1450 -0.3197  2.8249
   26MOL   H68419734   4.659   5.502   5.992  1.5664 -0.1351  0.9809
   26MOL   H68519735   4.404   5.667   5.969  0.9833  0.4165  1.6730
   26MOL   C68619736   4.469   5.555   5.824  0.0982 -0.1116 -0.2787
   26MOL   O68719737   4.519   5.449   5.783 -0.4474 -0.0706  0.0017
   26MOL   C68819738   4.397   5.651   5.726 -0.3584 -0.1387  0.1857
   26MOL   C68919739   4.248   5.617   5.695 -0.4181 -0.3827  0.2930
   26MOL   C69019740   4.156   5.632   5.815  0.0920  0.4129 -0.0783
   26MOL   C69119741   4.010   5.580   5.800 -0.1875  0.3332 -0.9480
   26MOL   C69219742   3.924   5.680   5.725  0.6548 -0.3906 -0.2859
   26MOL   O69319743   3.852   5.752   5.793  0.0229 -0.5373 -0.7967
   26MOL   N69419744   3.937   5.686   5.593  0.3655 -0.4601  0.0030
   26MOL   C69519745   3.862   5.786   5.518 -0.0276  1.0653 -0.1267
   26MOL   C69619746   3.949   5.908   5.478  0.3396 -0.1781  0.0329
   26MOL   C69719747   4.078   5.876   5.398 -0.3799 -0.4770  0.4526
   26MOL   C69819748   4.043   5.828   5.251  0.3854  0.5685 -0.4638
   26MOL   C69919749   4.164   5.760   5.180 -0.3582 -0.2448  0.0588
   26MOL   C70019750   4.118   5.676   5.065 -0.2875 -0.1879 -0.5435
   26MOL   N70119751   4.225   5.605   5.001  0.1205 -0.0644 -0.2556
   26MOL   H70219752   4.408   5.758   5.745  1.1031  0.4084 -3.4548
   26MOL   H70319753   4.441   5.636   5.628 -1.4441 -2.5095  0.0062
   26MOL   H70419754   4.199   5.683   5.624 -2.2854 -0.8142  1.1639
   26MOL   H70519755   4.240   5.526   5.636  0.2680 -0.0494 -0.3248
   26MOL   H70619756   4.150   5.735   5.850  0.8605  0.6769 -0.7353
   26MOL   H70719757   4.195   5.575   5.900 -0.5648  1.0588  0.6732
   26MOL   H70819758   3.957   5.568   5.895  3.0562 -0.7994  0.7964
   26MOL   H70919759   4.015   5.484   5.749 -0.1537  0.3019 -0.8857
   26MOL   H71019760   3.995   5.622   5.541 -0.0444  1.0864 -2.4011
   26MOL   H71119761   3.835   5.724   5.433 -0.4284  2.2616 -0.8992
   26MOL   H71219762   3.769   5.822   5.563 -0.7084  1.3556 -1.7277
   26MOL   H71319763   3.892   5.972   5.412 -0.7188 -0.7992  0.3357
   26MOL   H71419764   3.985   5.956   5.570  0.5771  0.1254 -0.2165
   26MOL   H71519765   4.138   5.803   5.452  1.1203 -0.0479 -0.6106
   26MOL   H71619766   4.138   5.967   5.388 -0.8699 -0.1897  0.0504
   26MOL   H71719767   3.967   5.751   5.263 -2.2415  2.7847 -2.2945
   26MOL   H71819768   3.995   5.898   5.183 -0.6088 -0.0749 -0.4379
   26MOL   H71919769   4.235   5.836   5.146 -0.4030 -0.6934 -1.0691
   26MOL   H72019770   4.208   5.686   5.247 -2.5080  0.7617  2.6804
   26MOL   H72119771   4.058   5.738   4.997 -2.3101  0.2559  1.5951
   26MOL   H72219772   4.051   5.598   5.101  0.1664 -0.7548 -0.9260
   26MOL   H72319773   4.315   5.611   5.046 -0.2098  1.1247  0.2646
   26MOL   C72419774   4.203   5.529   4.890 -0.6642  0.0521  0.2045
   26MOL   O72519775   4.093   5.520   4.837  0.7567 -0.1456 -0.4472
   26MOL   C72619776   4.324   5.454   4.828 -0.2141  0.1134 -0.3702
   26MOL   C72719777   4.288   5.351   4.713 -0.1977  0.0773 -0.8191
   26MOL   C72819778   4.411   5.308   4.646  0.6041  0.0816 -0.0865
   26MOL   C72919779   4.384   5.210   4.531  0.5409  0.1040 -0.5835
   26MOL   C73019780   4.300   5.260   4.411  0.2789 -0.2116 -0.8701
   26MOL   O73119781   4.318   5.378   4.373  0.2886  0.0696  0.4577
   26MOL   N73219782   4.205   5.180   4.364  0.1088 -1.1339 -0.5647
   26MOL   C73319783   4.086   5.235   4.306 -0.6959 -0.4095  0.2886
   26MOL   C73419784   3.986   5.120   4.263  0.2134  0.4319  0.0241
   26MOL   C73519785   3.849   5.165   4.208  0.0469 -0.3040  0.6380
   26MOL   C73619786   3.753   5.051   4.174 -0.1532 -0.7013  0.1441
   26MOL   C73719787   3.731   4.948   4.281 -0.7246 -0.2828  0.4800
   26MOL   C73819788   3.626   4.845   4.242  0.7141  0.3508  0.1294
   26MOL   N73919789   3.663   4.783   4.114 -0.2670 -0.5678  0.6025
   26MOL   H74019790   4.376   5.532   4.772 -0.7985 -0.1656 -1.3141
   26MOL   H74119791   4.379   5.404   4.908 -1.8551 -1.5093 -0.2182
   26MOL   H74219792   4.240   5.262   4.753  2.1801 -0.5139  0.7764
   26MOL   H74319793   4.209   5.395   4.651  1.1900  2.5277 -0.9474
   26MOL   H74419794   4.479   5.274   4.724  0.3331  0.3319  0.2641
   26MOL   H74519795   4.457   5.397   4.603 -0.0409  0.2167 -0.5136
   26MOL   H74619796   4.353   5.110   4.561  0.1045  0.4320  0.0461
   26MOL   H74719797   4.486   5.187   4.498  0.6023 -2.5755  1.2467
   26MOL   H74819798   4.208   5.086   4.400  0.0743 -1.5761 -1.7236
   26MOL   H74919799   4.033   5.304   4.373 -0.6283  1.3675 -1.4401
   26MOL   H75019800   4.129   5.286   4.220  2.6190 -2.8077  0.4527
   26MOL   H75119801   4.037   5.042   4.207 -0.7061 -1.4025  1.7000
   26MOL   H75219802   3.959   5.074   4.358 -3.0493 -0.1692 -1.1098
   26MOL   H75319803   3.865   5.216   4.113 -0.7745  0.6328  0.9953
   26MOL   H75419804   3.797   5.234   4.274 -3.2382 -0.0887 -2.0451
   26MOL   H75519805   3.653   5.092   4.162 -0.5989 -1.6290  0.6441
   26MOL   H75619806   3.793   4.997   4.088  0.6484 -0.0362  0.0908
   26MOL   H75719807   3.826   4.896   4.297 -0.4893 -0.1744 -0.5062
   26MOL   H75819808   3.704   4.992   4.376  2.0320  1.8911  0.3100
   26MOL   H75919809   3.530   4.898   4.237  0.5201  0.0609  0.7052
   26MOL   H76019810   3.610   4.767   4.317 -0.5390 -0.2340 -0.7363
   26MOL   H76119811   3.594   4.725   4.068 -1.8167  1.3306  0.4560
   26MOL   H76219812   3.683   4.856   4.047 -0.1437 -0.9137  0.2614
   27MOL     C119813   3.403   1.081   1.635  0.5853  0.3093  0.0697
   27MOL     O219814   3.481   1.010   1.566  0.2505 -0.5389  0.4326
   27MOL     C319815   3.411   1.238   1.628  0.5493 -0.7678 -0.4405
   27MOL     C419816   3.522   1.307   1.548 -0.0793 -0.2559  0.3281
   27MOL     C519817   3.473   1.315   1.401 -1.0050 -0.1251 -0.3763
   27MOL     C619818   3.581   1.341   1.308  0.3245  0.6560 -0.3455
   27MOL     C719819   3.534   1.400   1.177  0.1199 -0.3610 -0.6251
   27MOL     O819820   3.433   1.365   1.125  0.2193 -0.0338 -0.4519
   27MOL     N919821   3.597   1.510   1.139 -0.2215  0.0326  0.1854
   27MOL    C1019822   3.564   1.593   1.021  0.7429  0.3275  0.2192
   27MOL    C1119823   3.670   1.584   0.908 -0.2459 -0.1657 -0.3705
   27MOL    C1219824   3.743   1.712   0.879 -0.7311 -1.1788  0.1157
   27MOL    C1319825   3.846   1.706   0.759  0.4761 -0.1736 -0.0793
   27MOL    C1419826   3.943   1.590   0.759 -0.4385  0.6137 -0.6880
   27MOL    C1519827   4.068   1.622   0.684 -0.4751 -0.1592 -0.2756
   27MOL    N1619828   4.135   1.745   0.733  0.0373 -0.1246 -0.9464
   27MOL    H1719829   3.308   1.268   1.608  0.6564 -1.3097 -1.8768
   27MOL    H1819830   3.422   1.257   1.735  2.5803 -0.7841 -0.6267
   27MOL    H1919831   3.549   1.406   1.585  2.1231  0.2129 -2.3634
   27MOL    H2019832   3.610   1.244   1.558 -1.0470 -1.6899 -0.0028
   27MOL    H2119833   3.386   1.380   1.393 -0.4368  0.6819 -0.1101
   27MOL    H2219834   3.429   1.219   1.374  2.2151 -1.2838 -1.8180
   27MOL    H2319835   3.646   1.254   1.298 -0.1787  0.1744  0.5178
   27MOL    H2419836   3.636   1.418   1.361 -0.3373  0.8886  0.0074
   27MOL    H2519837   3.670   1.534   1.204  0.8253  0.0071 -0.9730
   27MOL    H2619838   3.461   1.583   0.986 -0.5104  1.0734  3.4989
   27MOL    H2719839   3.570   1.694   1.062  0.2856  0.5099 -0.1656
   27MOL    H2819840   3.744   1.511   0.941  0.3237  0.3825 -0.4183
   27MOL    H2919841   3.630   1.556   0.810  1.6295 -2.7402 -0.4717
   27MOL    H3019842   3.788   1.748   0.971 -1.9033  0.0320  0.2199
   27MOL    H3119843   3.683   1.797   0.847 -0.9517  0.2891  4.2075
   27MOL    H3219844   3.779   1.698   0.673 -0.0283 -0.8207  0.3714
   27MOL    H3319845   3.901   1.800   0.752  1.6004 -0.8135  0.0716
   27MOL    H3419846   3.958   1.564   0.863 -1.8514  3.5735  0.3142
   27MOL    H3519847   3.893   1.503   0.715 -0.1144 -0.3071  0.7324
   27MOL    H3619848   4.042   1.640   0.580  2.1290  0.2919 -0.8721
   27MOL    H3719849   4.139   1.539   0.688  0.8735  0.9402 -0.8613
   27MOL    H3819850   4.099   1.837   0.710  0.0822 -0.0081 -0.5503
   27MOL    H3919851   3.332   1.040   1.707 -0.4244  2.7336  0.5272
   27MOL    C4019852   4.246   1.748   0.803 -0.3981  0.2597  0.0296
   27MOL    O4119853   4.318   1.646   0.811  0.1597  0.0331  0.3440
   27MOL    C4219854   4.284   1.872   0.883  0.6455 -0.3224 -0.5884
   27MOL    C4319855   4.215   1.879   1.028  0.5104 -0.2756  0.0799
   27MOL    C4419856   4.061   1.910   1.027  0.0768  0.2295 -0.1982
   27MOL    C4519857   3.998   1.925   1.163 -0.9738 -0.5856  0.7341
   27MOL    C4619858   4.017   2.060   1.226 -0.5666 -0.4575  0.0039
   27MOL    O4719859   4.025   2.159   1.155 -0.0461 -0.1337  0.5763
   27MOL    N4819860   4.040   2.074   1.354 -0.0667  0.3707 -0.1414
   27MOL    C4919861   4.030   1.976   1.457  0.0740 -0.0141 -0.5278
   27MOL    C5019862   4.168   1.950   1.518  0.6757 -0.1817  0.3152
   27MOL    C5119863   4.261   1.843   1.449  0.1549 -0.6829 -0.2077
   27MOL    C5219864   4.387   1.794   1.523  0.5767  0.0420 -0.3575
   27MOL    C5319865   4.454   1.677   1.446 -0.0611  0.9398 -0.0582
   27MOL    C5419866   4.601   1.626   1.490 -0.5227 -0.2049  0.4914
   27MOL    N5519867   4.655   1.519   1.405  0.0921  0.4148 -0.0663
   27MOL    H5619868   4.393   1.873   0.889  0.5541 -0.4231  1.8156
   27MOL    H5719869   4.252   1.961   0.828  0.4984 -0.4016 -0.6304
   27MOL    H5819870   4.219   1.784   1.080 -2.2877  0.0182  0.9242
   27MOL    H5919871   4.263   1.957   1.086  1.5669 -0.1532 -0.9330
   27MOL    H6019872   4.008   1.831   0.975  1.0607 -0.0779 -0.7536
   27MOL    H6119873   4.040   2.000   0.969  1.3010  0.2431 -0.6357
   27MOL    H6219874   4.034   1.855   1.238 -0.5473  0.4216  1.4795
   27MOL    H6319875   3.889   1.925   1.167 -0.9566  1.3335  1.8597
   27MOL    H6419876   4.087   2.157   1.387 -2.3189  0.9136  1.8583
   27MOL    H6519877   3.974   2.038   1.527 -0.0949 -0.1233 -0.5663
   27MOL    H6619878   3.965   1.892   1.432  0.5035 -0.3986 -0.3487
   27MOL    H6719879   4.221   2.046   1.520 -0.7166  0.7425 -2.8413
   27MOL    H6819880   4.160   1.919   1.622 -0.7513 -2.0320 -0.3192
   27MOL    H6919881   4.309   1.890   1.363  0.8484 -2.2153 -0.6738
   27MOL    H7019882   4.200   1.759   1.415  1.1222 -1.0888 -0.9641
   27MOL    H7119883   4.455   1.878   1.539  1.5178 -0.5239 -1.3448
   27MOL    H7219884   4.365   1.759   1.624  2.0560  0.4367  0.1100
   27MOL    H7319885   4.391   1.589   1.450 -1.8101  1.9895 -2.8383
   27MOL    H7419886   4.454   1.702   1.340  0.7561  3.5228  0.5111
   27MOL    H7519887   4.590   1.599   1.595 -0.9527 -1.4093  0.1530
   27MOL    H7619888   4.679   1.701   1.485  0.5299 -1.1299  2.4710
   27MOL    H7719889   4.588   1.485   1.337  1.6605  0.3286 -1.6078
   27MOL    C7819890   4.780   1.472   1.404 -0.5203 -0.1866  0.4719
   27MOL    O7919891   4.872   1.514   1.483 -0.0980 -0.1169  0.2511
   27MOL    C8019892   4.809   1.366   1.297 -0.9057  0.0148  0.0009
   27MOL    C8119893   4.890   1.245   1.336  0.4964  1.3808 -0.0570
   27MOL    C8219894   4.886   1.137   1.229 -0.7612  1.8365 -0.6740
   27MOL    C8319895   5.018   1.057   1.218 -0.0775  0.6110 -0.2757
   27MOL    C8419896   4.999   0.960   1.102 -0.4579  1.1084  0.2676
   27MOL    O8519897   4.965   0.844   1.113  0.5942 -0.5453 -0.7241
   27MOL    N8619898   5.040   1.003   0.978  0.1155  0.1258  0.2976
   27MOL    C8719899   5.024   0.937   0.848 -1.0119 -0.4105  0.1399
   27MOL    C8819900   5.152   0.871   0.798 -0.5303  0.4899 -0.6074
   27MOL    C8919901   5.134   0.791   0.669 -0.0079  0.2570  0.3669
   27MOL    C9019902   5.242   0.679   0.639  0.9883 -0.8578 -0.1600
   27MOL    C9119903   5.188   0.539   0.643 -0.5712 -0.2643 -0.1463
   27MOL    C9219904   5.291   0.422   0.645 -0.2224 -0.8801 -0.6201
   27MOL    N9319905   5.228   0.298   0.682 -0.2747  0.3073 -0.4750
   27MOL    H9419906   4.714   1.323   1.265  0.5185 -2.0433 -1.5739
   27MOL    H9519907   4.863   1.421   1.220 -1.2132  0.5643  0.1717
   27MOL    H9619908   4.993   1.264   1.366  0.5793 -1.6573  1.8245
   27MOL    H9719909   4.850   1.201   1.428 -0.0766 -2.2623 -1.9242
   27MOL    H9819910   4.873   1.175   1.127  2.1611  0.0593 -1.7775
   27MOL    H9919911   4.808   1.065   1.254  1.7605 -0.7042  0.0062
   27MOL   H10019912   5.052   1.006   1.308 -2.6060  0.8457  0.8803
   27MOL   H10119913   5.090   1.136   1.197  0.6133 -0.2222 -1.0341
   27MOL   H10219914   5.057   1.102   0.977 -1.8995  0.5041  1.0379
   27MOL   H10319915   4.944   0.866   0.869  0.0606 -2.1125 -1.2915
   27MOL   H10419916   4.988   1.011   0.777 -0.3039 -1.6387 -1.5633
   27MOL   H10519917   5.235   0.941   0.801 -0.1637  0.0252  1.6228
   27MOL   H10619918   5.170   0.788   0.867  0.8870  1.1105 -0.2123
   27MOL   H10719919   5.149   0.876   0.603 -1.0488 -1.2008 -1.7838
   27MOL   H10819920   5.036   0.744   0.659  0.7688 -1.0931 -1.0078
   27MOL   H10919921   5.277   0.693   0.537  0.0374  2.4155 -0.0894
   27MOL   H11019922   5.329   0.703   0.701  0.7601  1.5800 -0.7136
   27MOL   H11119923   5.121   0.525   0.728 -2.1957  1.3351 -1.1387
   27MOL   H11219924   5.121   0.525   0.559 -0.5007  0.0232 -0.2501
   27MOL   H11319925   5.355   0.448   0.729  0.0740 -0.7776 -0.8765
   27MOL   H11419926   5.363   0.430   0.564 -1.4243 -1.5156 -1.7699
   27MOL   H11519927   5.162   0.303   0.759  0.2175  3.0084 -0.1882
   27MOL   C11619928   5.234   0.186   0.608  1.1708  0.2427 -0.2362
   27MOL   O11719929   5.292   0.180   0.505 -0.0873  0.0674  0.0988
   27MOL   C11819930   5.155   0.068   0.665  0.4673 -0.1271  0.3641
   27MOL   C11919931   5.000   0.079   0.648 -0.9628  0.1651 -0.0859
   27MOL   C12019932   4.956   0.057   0.497 -0.0019 -0.1862 -0.0817
   27MOL   C12119933   4.813   0.092   0.467 -0.3001 -0.1258 -0.1029
   27MOL   C12219934   4.767   0.072   0.323 -0.2622 -0.2190  0.2662
   27MOL   O12319935   4.834   0.005   0.245 -0.1059  0.1417 -0.1691
   27MOL   N12419936   4.656   0.139   0.294  0.2764  0.2643  0.4030
   27MOL   C12519937   4.589   0.145   0.158  0.2949  0.7729 -0.1154
   27MOL   C12619938   4.499   0.020   0.125 -0.3216 -0.1100 -0.9963
   27MOL   C12719939   4.414   7.668   0.237  0.4050  0.1907 -0.3244
   27MOL   C12819940   4.298   7.575   0.190  0.1294 -0.9013 -0.1444
   27MOL   C12919941   4.238   7.495   0.303  0.7420  0.0488 -0.0253
   27MOL   C13019942   4.155   7.577   0.400  0.1592  0.4307 -0.5116
   27MOL   N13119943   4.237   7.654   0.488 -0.3370  0.6127 -0.4147
   27MOL   H13219944   5.184   7.681   0.619  0.2131 -0.1589  0.2676
   27MOL   H13319945   5.180   0.072   0.771  0.3002 -2.1589  0.5132
   27MOL   H13419946   4.960   0.005   0.717 -0.2070 -0.2416 -0.0797
   27MOL   H13519947   4.971   0.179   0.680 -0.6784  0.2927 -0.2224
   27MOL   H13619948   4.956   7.658   0.478  0.2997 -0.3632  0.9151
   27MOL   H13719949   5.023   0.117   0.435  0.4969  0.1778  0.8074
   27MOL   H13819950   4.795   0.197   0.493  0.3469  0.2113 -0.9827
   27MOL   H13919951   4.736   0.038   0.523 -0.3404  0.0311 -0.0039
   27MOL   H14019952   4.613   0.198   0.364 -0.9795  0.7219 -0.7217
   27MOL   H14119953   4.530   0.237   0.154 -0.2610  0.4743  1.0659
   27MOL   H14219954   4.667   0.156   0.083  1.2512  0.2684  0.7803
   27MOL   H14319955   4.431   0.047   0.043 -1.7978 -1.7389 -0.3421
   27MOL   H14419956   4.570   7.649   0.101  2.3468  2.0186 -0.3174
   27MOL   H14519957   4.372   0.036   0.303  0.5311 -0.1275  0.1240
   27MOL   H14619958   4.484   7.619   0.304  1.1638  0.6635 -0.7681
   27MOL   H14719959   4.224   7.631   0.134 -0.1127 -1.5248 -0.4523
   27MOL   H14819960   4.338   7.499   0.122 -0.5194  0.3233 -1.9308
   27MOL   H14919961   4.177   7.418   0.255 -0.4235  0.2309  1.1431
   27MOL   H15019962   4.326   7.451   0.350  1.4031  0.5188 -0.8108
   27MOL   H15119963   4.095   7.516   0.468 -1.8548  1.2874 -1.4921
   27MOL   H15219964   4.096   7.646   0.340  1.1658  0.6376 -1.2764
   27MOL   H15319965   4.333   7.623   0.483  0.0010  1.3810  1.0951
   27MOL   C15419966   4.206   0.055   0.556 -0.5266  0.0631 -0.1490
   27MOL   O15519967   4.099   0.110   0.564 -0.0245  0.3171  0.0390
   27MOL   C15619968   4.311   0.101   0.647 -0.0908  0.1999  0.8835
   27MOL   C15719969   4.285   0.054   0.787  0.1067 -0.3669  0.2326
   27MOL   C15819970   4.352   0.140   0.897  0.9761 -0.0217  0.5918
   27MOL   C15919971   4.321   0.111   1.043  0.3745 -0.3408  0.2027
   27MOL   C16019972   4.171   0.103   1.084 -0.7454  0.4289  0.0787
   27MOL   O16119973   4.077   0.116   1.005 -0.6181 -0.2004  0.2584
   27MOL   N16219974   4.150   0.063   1.208  0.1744 -0.2191  0.4313
   27MOL   C16319975   4.031   0.111   1.282  1.4492 -0.0298 -0.1809
   27MOL   C16419976   4.048   0.251   1.340  0.2472  0.5499 -0.1206
   27MOL   C16519977   3.939   0.301   1.434  0.0308  0.3566  0.1184
   27MOL   C16619978   3.822   0.350   1.346  0.2537 -0.5342  0.2361
   27MOL   C16719979   3.692   0.368   1.435  0.1032 -0.6074 -0.1530
   27MOL   C16819980   3.567   0.389   1.351  0.4906  0.1332  0.5211
   27MOL   N16919981   3.453   0.413   1.435  0.5818  0.1714  0.2356
   27MOL   H17019982   4.413   0.076   0.616  0.1917  1.7177  0.5893
   27MOL   H17119983   4.306   0.209   0.635 -0.1198  0.1009  0.0097
   27MOL   H17219984   4.178   0.047   0.806 -0.1579  0.7968 -0.7503
   27MOL   H17319985   4.320   7.660   0.796  2.0469  0.3291  0.7567
   27MOL   H17419986   4.318   0.242   0.881  0.7081 -0.3597 -1.0881
   27MOL   H17519987   4.460   0.140   0.884  0.5138 -1.2860 -3.9866
   27MOL   H17619988   4.390   0.162   1.110  2.5928 -0.8952 -1.5823
   27MOL   H17719989   4.362   0.010   1.052  4.0470  0.7704 -2.6699
   27MOL   H17819990   4.233   0.033   1.256  0.6037  0.5562  0.1856
   27MOL   H17919991   3.941   0.107   1.221  0.8988 -1.2992  0.6936
   27MOL   H18019992   4.000   0.035   1.354 -0.2574 -0.7941 -1.6790
   27MOL   H18119993   4.149   0.258   1.381  0.3380 -0.8510 -0.0906
   27MOL   H18219994   4.050   0.327   1.262 -3.1916  0.1239 -0.6921
   27MOL   H18319995   3.985   0.383   1.489 -2.2065  1.8754 -0.1758
   27MOL   H18419996   3.900   0.222   1.498 -0.6430  0.7638  0.2180
   27MOL   H18519997   3.846   0.438   1.287  1.2827 -1.1706 -0.3085
   27MOL   H18619998   3.781   0.272   1.281 -1.4471  1.0486 -0.6311
   27MOL   H18719999   3.673   0.277   1.492 -0.5507 -0.2601  0.1889
   27MOL   H18820000   3.704   0.456   1.499 -0.9831 -0.2626 -0.4191
   27MOL   H18920001   3.534   0.306   1.289 -0.8244  0.6104  0.5813
   27MOL   H19020002   3.587   0.476   1.288 -0.6708  3.1451  4.1404
   27MOL   H19120003   3.427   0.332   1.490  2.8652 -0.0423  1.0775
   27MOL   C19220004   3.377   0.522   1.425 -0.2879 -0.1155 -0.4427
   27MOL   O19320005   3.414   0.615   1.352 -0.4115  0.5619  0.2325
   27MOL   C19420006   3.245   0.522   1.493  0.4029 -0.1958 -0.5554
   27MOL   C19520007   3.126   0.500   1.402 -0.3385 -0.4120  0.0596
   27MOL   C19620008   3.140   0.365   1.322 -0.5627 -0.8631 -0.2708
   27MOL   C19720009   3.005   0.315   1.261 -0.5379  0.8606  0.1367
   27MOL   C19820010   2.942   0.385   1.142 -0.1715 -0.6295 -0.5027
   27MOL   O19920011   2.895   0.318   1.049 -0.6724 -0.5522 -0.6426
   27MOL   N20020012   2.950   0.515   1.139 -0.3739  0.4202 -0.4313
   27MOL   C20120013   2.931   0.604   1.030  0.0917  0.3828 -0.3361
   27MOL   C20220014   3.055   0.689   1.009  0.2002  0.1774 -0.0819
   27MOL   C20320015   3.034   0.820   0.932 -0.5145  0.2835  0.5385
   27MOL   C20420016   3.158   0.906   0.925 -0.0703 -0.3090  0.2185
   27MOL   C20520017   3.152   1.033   0.836  0.3631  0.4486 -0.1522
   27MOL   C20620018   3.269   1.137   0.869 -0.4993  0.0420  0.4870
   27MOL   N20720019   3.401   1.103   0.818  0.0892 -0.2775 -0.0851
   27MOL   H20820020   3.252   0.449   1.573  0.3069 -0.4374 -0.7686
   27MOL   H20920021   3.238   0.616   1.548 -2.1828 -1.2435  0.9839
   27MOL   H21020022   3.038   0.497   1.467 -2.2518 -0.7112 -2.4442
   27MOL   H21120023   3.110   0.586   1.336 -0.1661  0.3151  0.9454
   27MOL   H21220024   3.172   0.280   1.382 -0.2477 -1.0653 -0.7219
   27MOL   H21320025   3.207   0.375   1.237  1.4507 -3.4712  0.9388
   27MOL   H21420026   2.924   0.324   1.332  0.6152  2.2429  1.3066
   27MOL   H21520027   3.020   0.213   1.226  2.0762  1.3605 -0.3480
   27MOL   H21620028   2.991   0.553   1.224 -0.0611  0.7737 -0.7408
   27MOL   H21720029   2.921   0.537   0.945 -0.7546  0.1472 -0.0572
   27MOL   H21820030   2.838   0.658   1.049 -1.6711 -2.1340 -1.5270
   27MOL   H21920031   3.095   0.712   1.108  0.7860 -2.5888  0.3612
   27MOL   H22020032   3.128   0.628   0.957 -0.2007 -1.0230  0.7492
   27MOL   H22120033   2.946   0.863   0.981  1.7985  2.5957  2.8134
   27MOL   H22220034   3.002   0.801   0.830  0.3235 -0.0756  0.3454
   27MOL   H22320035   3.183   0.925   1.030  0.2593  1.3106 -0.1363
   27MOL   H22420036   3.241   0.843   0.893  1.2842  0.4625  2.1000
   27MOL   H22520037   3.137   1.003   0.732 -0.6759  0.9107 -0.1397
   27MOL   H22620038   3.062   1.085   0.868 -0.8658  0.1115 -2.9038
   27MOL   H22720039   3.278   1.143   0.978  0.0508 -2.5766  0.6321
   27MOL   H22820040   3.240   1.239   0.846  0.1162  0.5048  1.6769
   27MOL   H22920041   3.454   1.028   0.862 -0.8011  0.2643  1.9566
   27MOL   C23020042   3.472   1.190   0.743  0.4258 -0.1192  0.4584
   27MOL   O23120043   3.424   1.292   0.698 -0.1659  0.8808  0.0552
   27MOL   C23220044   3.616   1.142   0.706 -0.9048 -0.6853  1.3419
   27MOL   C23320045   3.711   1.257   0.660  0.4708 -0.7953  0.2657
   27MOL   C23420046   3.696   1.290   0.509  0.0394  0.0502 -0.4388
   27MOL   C23520047   3.760   1.429   0.483  0.0734 -0.0830  0.0742
   27MOL   C23620048   3.754   1.481   0.340  1.2091 -0.1900  0.2346
   27MOL   O23720049   3.699   1.415   0.251 -0.1563 -0.4314 -0.7476
   27MOL   N23820050   3.789   1.611   0.331  0.6400 -0.9127 -0.9850
   27MOL   C23920051   3.780   1.693   0.215  0.2778  1.2015  0.1202
   27MOL   C24020052   3.808   1.840   0.257  0.1006 -0.4153 -0.0704
   27MOL   C24120053   3.795   1.940   0.133  0.2064 -0.2942 -0.6248
   27MOL   C24220054   3.834   2.081   0.178 -0.0496 -0.2768 -0.3792
   27MOL   C24320055   3.837   2.178   0.058 -0.2592  0.6161 -0.4311
   27MOL   C24420056   3.881   2.325   0.101 -0.7636  0.0169  0.2725
   27MOL   N24520057   4.018   2.331   0.149 -0.3769 -0.0484 -0.1235
   27MOL   H24620058   3.646   1.101   0.803 -2.8935 -0.0420  2.2582
   27MOL   H24720059   3.618   1.055   0.640  1.7818 -0.2307  0.7403
   27MOL   H24820060   3.683   1.343   0.721  0.3304 -0.9559  0.4261
   27MOL   H24920061   3.812   1.243   0.697  0.7401 -0.6603 -0.4156
   27MOL   H25020062   3.590   1.299   0.487  0.1818 -0.7276 -1.4950
   27MOL   H25120063   3.740   1.206   0.455 -1.3702 -1.4497  0.6755
   27MOL   H25220064   3.865   1.420   0.512 -0.2858  1.8296  2.1040
   27MOL   H25320065   3.733   1.511   0.550  3.9143  0.5225  1.0092
   27MOL   H25420066   3.846   1.651   0.404 -0.9392  0.5109 -0.5022
   27MOL   H25520067   3.848   1.657   0.138 -1.7998 -1.0555 -0.7457
   27MOL   H25620068   3.682   1.678   0.169  0.0616  2.4144  0.1790
   27MOL   H25720069   3.749   1.872   0.343  0.5395 -0.9381  0.4283
   27MOL   H25820070   3.905   1.837   0.306  0.1925  0.6958 -0.1594
   27MOL   H25920071   3.696   1.945   0.087  0.2382  0.5680 -0.6213
   27MOL   H26020072   3.865   1.904   0.057  0.2455 -0.9425 -0.2854
   27MOL   H26120073   3.770   2.114   0.260  0.5491 -0.1317  0.0331
   27MOL   H26220074   3.933   2.091   0.222 -0.0279  2.8064 -1.0159
   27MOL   H26320075   3.904   2.139   7.689 -0.3781  1.3694 -0.9180
   27MOL   H26420076   3.743   2.184   0.003 -1.6488 -0.4775  1.7579
   27MOL   H26520077   3.816   2.362   0.180 -1.3200  1.2304 -0.7406
   27MOL   H26620078   3.874   2.389   0.013  1.1472  0.6783  0.5786
   27MOL   H26720079   4.082   2.369   0.081 -2.4844 -1.2373 -2.8412
   27MOL   C26820080   4.050   2.328   0.279 -0.1646 -0.4755  0.1044
   27MOL   O26920081   3.964   2.339   0.364 -0.0046 -0.0035 -0.0903
   27MOL   C27020082   4.200   2.331   0.312 -0.3101 -0.0804 -0.4222
   27MOL   C27120083   4.242   2.262   0.443  0.4857 -0.3711 -0.6251
   27MOL   C27220084   4.268   2.117   0.433  0.4868  0.7030 -0.1462
   27MOL   C27320085   4.143   2.019   0.420 -0.8733 -0.4340 -0.1622
   27MOL   C27420086   4.049   2.035   0.538  0.2637 -0.2277  0.7747
   27MOL   O27520087   4.077   1.986   0.651 -0.1884 -0.5099 -0.4909
   27MOL   N27620088   3.939   2.105   0.519 -0.8613  0.2845  0.1711
   27MOL   C27720089   3.834   2.120   0.615 -0.1430  0.0525 -0.1420
   27MOL   C27820090   3.728   2.218   0.560 -0.8137 -0.1650  0.2684
   27MOL   C27920091   3.603   2.205   0.645 -0.2312  0.1321 -0.4510
   27MOL   C28020092   3.497   2.301   0.621  0.3347  0.0100 -0.4429
   27MOL   C28120093   3.362   2.288   0.685  0.1237 -0.6458  0.2757
   27MOL   C28220094   3.270   2.408   0.658 -0.4978 -0.2982 -0.5309
   27MOL   N28320095   3.140   2.407   0.721  0.3042  0.2765 -0.5197
   27MOL   H28420096   4.266   2.322   0.226 -1.7809 -0.2136 -1.5689
   27MOL   H28520097   4.207   2.439   0.330 -0.2727 -0.1517 -0.0246
   27MOL   H28620098   4.332   2.299   0.493 -0.2743 -1.6610  1.7912
   27MOL   H28720099   4.166   2.274   0.520  2.2021 -1.3422  1.2934
   27MOL   H28820100   4.328   2.083   0.519 -0.8397 -0.9741  0.1526
   27MOL   H28920101   4.336   2.096   0.351 -0.2420  0.6519 -0.7388
   27MOL   H29020102   4.186   1.919   0.423  0.1885  0.0332  0.2205
   27MOL   H29120103   4.102   2.024   0.319  1.8857  2.2788 -1.2464
   27MOL   H29220104   3.939   2.177   0.449  2.3899 -0.7812 -1.0535
   27MOL   H29320105   3.775   2.029   0.614 -0.0397 -0.0062 -0.5394
   27MOL   H29420106   3.870   2.151   0.714  0.2017 -1.8243  0.3309
   27MOL   H29520107   3.771   2.319   0.564  2.2450 -1.2428 -2.9762
   27MOL   H29620108   3.705   2.206   0.454  1.1185  1.6696 -0.4062
   27MOL   H29720109   3.637   2.212   0.748 -0.0096 -0.9555 -0.4462
   27MOL   H29820110   3.559   2.106   0.637 -2.3128  1.0712 -0.8264
   27MOL   H29920111   3.549   2.391   0.653 -1.8275  2.0434 -2.4605
   27MOL   H30020112   3.491   2.313   0.513  0.5112 -1.4445 -0.6204
   27MOL   H30120113   3.329   2.191   0.649  0.7921 -0.4708 -0.8368
   27MOL   H30220114   3.379   2.276   0.792 -0.9488  1.6748  0.7230
   27MOL   H30320115   3.259   2.419   0.550  0.7816 -0.9617 -0.7376
   27MOL   H30420116   3.330   2.493   0.688  0.1880 -0.8143 -0.4431
   27MOL   H30520117   3.112   2.323   0.769 -0.7294  2.1454  2.2255
   27MOL   C30620118   3.048   2.507   0.725 -0.0560  1.0593  0.2603
   27MOL   O30720119   3.061   2.618   0.674  0.7497 -0.3764  0.1004
   27MOL   C30820120   2.916   2.468   0.793  0.5950 -0.8795  0.1019
   27MOL   C30920121   2.791   2.544   0.742 -0.8302 -0.7553  0.7474
   27MOL   C31020122   2.743   2.497   0.602 -0.5285  0.0231 -0.4982
   27MOL   C31120123   2.602   2.554   0.585  0.0060  0.3956  0.5005
   27MOL   C31220124   2.487   2.458   0.635 -0.9767 -0.1196  0.0653
   27MOL   O31320125   2.504   2.383   0.731  0.2802 -0.7439  0.0430
   27MOL   N31420126   2.379   2.458   0.560 -0.3212  0.4764 -0.3312
   27MOL   C31520127   2.277   2.357   0.568 -0.8795 -0.8119 -0.0573
   27MOL   C31620128   2.174   2.412   0.669 -0.1836 -0.1398 -0.6316
   27MOL   C31720129   2.054   2.321   0.682 -0.2891  0.0924 -0.0707
   27MOL   C31820130   1.952   2.320   0.560 -0.7809 -0.9156 -0.0265
   27MOL   C31920131   1.899   2.459   0.514 -0.2179 -0.1980  0.3164
   27MOL   C32020132   1.824   2.454   0.385 -0.2024 -0.0910 -0.1476
   27MOL   N32120133   1.698   2.377   0.400  0.0434 -0.1261 -0.5728
   27MOL   H32220134   2.890   2.364   0.773  1.5051 -0.7062 -2.1688
   27MOL   H32320135   2.933   2.481   0.899 -0.0907  1.1748 -0.0223
   27MOL   H32420136   2.707   2.534   0.811 -1.8282 -0.2969 -0.3959
   27MOL   H32520137   2.823   2.647   0.751  0.6773 -1.2028  0.6920
   27MOL   H32620138   2.752   2.388   0.607  0.5906  0.1226 -0.1918
   27MOL   H32720139   2.803   2.533   0.518  1.4791 -0.0402  0.8847
   27MOL   H32820140   2.583   2.587   0.483 -0.0466 -0.2902  0.2896
   27MOL   H32920141   2.584   2.638   0.653  0.4436 -0.5539  1.8050
   27MOL   H33020142   2.375   2.517   0.479 -0.6774  1.1728  0.1820
   27MOL   H33120143   2.238   2.356   0.466 -0.1032  0.8429 -0.3932
   27MOL   H33220144   2.331   2.270   0.603 -1.6974 -1.3074 -0.0081
   27MOL   H33320145   2.223   2.421   0.766 -2.1146 -0.4892  0.4169
   27MOL   H33420146   2.150   2.512   0.633  2.2924  0.5780 -0.3515
   27MOL   H33520147   1.994   2.365   0.762 -1.5542  0.2293 -1.0785
   27MOL   H33620148   2.080   2.218   0.706  2.2867  0.1279 -2.4098
   27MOL   H33720149   1.994   2.266   0.475 -1.8962 -0.0948 -1.1261
   27MOL   H33820150   1.872   2.255   0.596 -1.7183 -0.7509 -1.7519
   27MOL   H33920151   1.837   2.520   0.580  1.0152  1.8576 -0.3656
   27MOL   H34020152   1.993   2.514   0.502  0.8108 -1.7690  1.0281
   27MOL   H34120153   1.887   2.414   0.306  0.4995  0.0769  0.3283
   27MOL   H34220154   1.790   2.553   0.354  0.0297 -0.0529 -0.2757
   27MOL   H34320155   1.681   2.319   0.481 -2.4977  2.2659  0.6866
   27MOL   C34420156   1.597   2.379   0.308 -0.0276 -0.2555  0.1895
   27MOL   O34520157   1.609   2.442   0.200 -0.2656 -0.4616 -0.1495
   27MOL   C34620158   1.461   2.317   0.348 -0.3073  0.1973  0.6434
   27MOL   C34720159   1.395   2.239   0.228  0.2039 -0.5549 -0.8333
   27MOL   C34820160   1.266   2.177   0.255 -0.2376 -0.0001 -0.5413
   27MOL   C34920161   1.269   2.053   0.356  0.3712  0.0270 -0.5888
   27MOL   C35020162   1.129   2.001   0.388  0.7977 -0.5042  0.2007
   27MOL   O35120163   1.047   2.062   0.459 -0.4135 -0.6979 -0.1423
   27MOL   N35220164   1.097   1.888   0.323  0.1697 -1.0411 -0.2534
   27MOL   C35320165   0.975   1.816   0.334  0.6419  0.0517  0.2661
   27MOL   C35420166   0.896   1.852   0.207 -0.0640  0.6044 -0.2668
   27MOL   C35520167   0.751   1.792   0.200 -0.4614  1.1031  0.0323
   27MOL   C35620168   0.666   1.867   0.092 -0.0321  0.8732 -0.2496
   27MOL   C35720169   0.719   1.849   7.654  0.3724 -0.2305  0.0466
   27MOL   C35820170   0.604   1.861   7.560 -0.0402 -0.5392  0.2145
   27MOL   N35920171   0.538   1.989   7.572 -0.3252  0.0458 -0.2407
   27MOL   H36020172   1.475   2.257   0.437  2.8686  0.9759  0.7481
   27MOL   H36120173   1.387   2.390   0.382  0.2033 -0.1984  2.6618
   27MOL   H36220174   1.375   2.316   0.153 -0.0788 -0.4419 -0.6430
   27MOL   H36320175   1.467   2.169   0.187 -0.5554 -1.1640 -1.1271
   27MOL   H36420176   1.209   2.153   0.166 -1.1657 -0.5460  0.2002
   27MOL   H36520177   1.206   2.244   0.316 -0.9238 -0.5075 -0.6657
   27MOL   H36620178   1.309   2.078   0.454  0.9248  0.2428 -0.8714
   27MOL   H36720179   1.339   1.976   0.323  0.2970 -0.7673  1.0406
   27MOL   H36820180   1.161   1.850   0.255 -1.2837 -2.6498 -0.7527
   27MOL   H36920181   1.007   1.712   0.342 -0.8026 -0.4351 -0.1025
   27MOL   H37020182   0.923   1.836   0.427  0.2357  0.0900  0.0341
   27MOL   H37120183   0.899   1.961   0.211  0.4430  0.6201 -0.9823
   27MOL   H37220184   0.955   1.830   0.118  0.9539 -1.4519  0.8834
   27MOL   H37320185   0.697   1.804   0.294 -2.4675 -0.7795 -0.8587
   27MOL   H37420186   0.759   1.687   0.169  0.5873  1.0456  0.4563
   27MOL   H37520187   0.565   1.826   0.092  0.2201  0.2518 -0.9471
   27MOL   H37620188   0.669   1.973   0.119  0.6765  0.9794 -0.7358
   27MOL   H37720189   0.810   1.908   7.639  1.7097 -1.8977  1.3194
   27MOL   H37820190   0.737   1.744   7.633  1.0829 -0.3933  1.4163
   27MOL   H37920191   0.514   1.804   7.582  0.6361 -1.1550  1.3817
   27MOL   H38020192   0.638   1.846   7.457  2.3584 -0.7332  1.0122
   27MOL   H38120193   0.450   1.993   7.621 -0.1526  0.6248  0.0273
   27MOL   C38220194   0.591   2.105   7.532 -0.3872  0.4519 -0.4706
   27MOL   O38320195   0.685   2.116   7.455  0.5906 -0.5716 -0.0672
   27MOL   C38420196   0.514   2.226   7.581  0.7414 -0.5602 -0.6783
   27MOL   C38520197   0.571   2.357   7.521  0.1416 -0.0967  0.0048
   27MOL   C38620198   0.545   2.397   7.375 -0.3132  0.5922 -0.5687
   27MOL   C38720199   0.633   2.511   7.328  0.0859  0.0260 -0.0641
   27MOL   C38820200   0.765   2.475   7.249  0.2654 -0.2250  0.4112
   27MOL   O38920201   0.857   2.418   7.308  0.2791  0.3914 -0.4065
   27MOL   N39020202   0.775   2.524   7.125  0.2128 -0.5245 -0.1335
   27MOL   C39120203   0.894   2.518   7.045 -0.1759  0.0412  1.1195
   27MOL   C39220204   0.871   2.603   6.920 -0.2390 -0.3662 -0.9048
   27MOL   C39320205   0.999   2.649   6.846  0.0723  0.2508 -0.1006
   27MOL   C39420206   0.983   2.753   6.740 -0.6476 -0.5084 -0.4151
   27MOL   C39520207   1.109   2.779   6.648  0.2133  0.7108  0.6872
   27MOL   C39620208   1.088   2.911   6.567 -0.4811  0.0862  0.1857
   27MOL   N39720209   0.961   2.914   6.498 -0.6597 -0.6462 -0.6920
   27MOL   H39820210   0.407   2.219   7.566  0.7423 -3.8514  0.5864
   27MOL   H39920211   0.533   2.229   7.688  0.7558  0.1927 -0.6953
   27MOL   H40020212   0.518   2.441   7.567  0.0105 -0.5011  0.6009
   27MOL   H40120213   0.674   2.372   7.554  0.2636  2.4780 -1.4426
   27MOL   H40220214   0.447   2.442   7.365  0.3057  2.1888  0.4037
   27MOL   H40320215   0.545   2.312   7.306 -1.3095  0.6296 -0.6152
   27MOL   H40420216   0.644   2.588   7.404 -0.0912 -0.5018  0.5026
   27MOL   H40520217   0.572   2.562   7.254 -0.3809 -1.1453 -0.5096
   27MOL   H40620218   0.695   2.573   7.087 -0.3557  0.6744  2.4814
   27MOL   H40720219   0.977   2.563   7.100 -0.0557 -1.1388  1.9107
   27MOL   H40820220   0.907   2.412   7.028  1.8212  0.3654  0.5459
   27MOL   H40920221   0.806   2.556   6.846 -1.4881  1.0386 -0.7229
   27MOL   H41020222   0.817   2.692   6.954  0.6912  0.4841 -1.6400
   27MOL   H41120223   1.056   2.564   6.808  0.6704  1.1866 -1.3244
   27MOL   H41220224   1.071   2.686   6.918  0.7433 -1.4361  0.1235
   27MOL   H41320225   0.899   2.734   6.673  0.1207 -4.3397 -0.4131
   27MOL   H41420226   0.967   2.850   6.787  2.3982  0.2380 -0.8287
   27MOL   H41520227   1.206   2.786   6.699  1.0115 -1.3214 -0.4744
   27MOL   H41620228   1.114   2.704   6.568  0.3451 -0.5885  1.8860
   27MOL   H41720229   1.167   2.935   6.496  0.6739  1.6292  1.9493
   27MOL   H41820230   1.108   2.989   6.641  1.2195  0.5509 -0.7378
   27MOL   H41920231   0.953   2.849   6.421  0.1113  1.7404 -2.8622
   27MOL   C42020232   0.886   3.024   6.496  0.2137  0.6557 -0.5734
   27MOL   O42120233   0.904   3.129   6.562  0.2296  0.2475 -0.3545
   27MOL   C42220234   0.766   3.022   6.404  0.5318 -0.6393  0.2359
   27MOL   C42320235   0.635   3.038   6.483  0.3547  0.0253  0.7602
   27MOL   C42420236   0.508   3.056   6.393 -0.4254 -0.0449 -0.3664
   27MOL   C42520237   0.383   3.062   6.483 -0.4277 -0.1356 -0.0559
   27MOL   C42620238   0.363   3.193   6.559 -0.3237 -0.4966 -0.4997
   27MOL   O42720239   0.404   3.300   6.506 -0.3770 -0.0976  0.5014
   27MOL   N42820240   0.312   3.188   6.685 -0.2932 -0.3110  0.2263
   27MOL   C42920241   0.317   3.303   6.779 -0.0684 -0.7026 -0.0312
   27MOL   C43020242   0.252   3.262   6.914 -0.1139  0.4837  0.3260
   27MOL   C43120243   0.346   3.195   7.013 -0.5445  0.1988  0.0349
   27MOL   C43220244   0.328   3.227   7.162 -0.1028  0.1269 -0.3528
   27MOL   C43320245   0.449   3.183   7.248  0.0002  0.2157 -0.1643
   27MOL   C43420246   0.432   3.217   7.397  0.3552  0.6993  0.1869
   27MOL   N43520247   0.423   3.361   7.420  0.4296  0.0311  0.8582
   27MOL   H43620248   0.791   3.104   6.338 -1.2167  0.6027  1.0740
   27MOL   H43720249   0.756   2.928   6.349  0.1191 -0.8257  0.6256
   27MOL   H43820250   0.623   2.956   6.553  0.0558 -1.0914 -0.5654
   27MOL   H43920251   0.636   3.130   6.542  1.4295  1.1984 -1.0201
   27MOL   H44020252   0.502   2.963   6.337 -1.0401 -0.5437  0.5154
   27MOL   H44120253   0.524   3.139   6.324  1.7089 -0.2324 -0.1311
   27MOL   H44220254   0.373   2.976   6.549 -0.3095 -1.7729 -2.1064
   27MOL   H44320255   0.297   3.047   6.417 -1.2495 -0.4836  1.0705
   27MOL   H44420256   0.286   3.097   6.720  0.7045 -0.9980 -0.7769
   27MOL   H44520257   0.423   3.324   6.787 -0.8146  2.8447  1.3823
   27MOL   H44620258   0.275   3.391   6.729  2.4223  0.1841 -0.6377
   27MOL   H44720259   0.207   3.347   6.965 -2.2932 -0.0486 -0.6727
   27MOL   H44820260   0.171   3.191   6.895 -0.7847  0.1735  3.8464
   27MOL   H44920261   0.449   3.222   6.988 -0.5923  1.5961  1.2860
   27MOL   H45020262   0.342   3.087   7.003 -2.2473  0.2568  0.0576
   27MOL   H45120263   0.304   3.330   7.188 -1.9591 -0.1302 -0.9755
   27MOL   H45220264   0.248   3.161   7.196  1.2849 -1.3456  0.1066
   27MOL   H45320265   0.461   3.075   7.245  2.4406  0.3849  2.5428
   27MOL   H45420266   0.534   3.240   7.211  1.5450 -1.3790  0.8765
   27MOL   H45520267   0.523   3.178   7.444  0.6810  0.4503 -0.6379
   27MOL   H45620268   0.349   3.158   7.436  2.6412 -2.5995  0.2939
   27MOL   H45720269   0.397   3.414   7.338 -0.9502 -0.1080  1.2023
   27MOL   C45820270   0.445   3.432   7.532 -0.1818 -0.4633  0.4345
   27MOL   O45920271   0.481   3.383   7.641  0.2531  0.1382  0.6192
   27MOL   C46020272   0.420   3.583   7.521  0.0862 -0.2030 -0.2355
   27MOL   C46120273   0.550   3.657   7.490 -0.2937  0.3308 -0.0870
   27MOL   C46220274   0.517   3.810   7.465 -0.5105  0.0402  0.1651
   27MOL   C46320275   0.624   3.891   7.399  0.1587  0.4071 -0.3514
   27MOL   C46420276   0.723   3.950   7.496  0.0203  0.1114 -0.2774
   27MOL   O46520277   0.680   4.021   7.588 -0.0405 -0.1054 -0.2286
   27MOL   N46620278   0.850   3.929   7.470  0.4180  0.4011  0.2824
   27MOL   C46720279   0.962   3.969   7.549  0.2047 -0.1937  0.5638
   27MOL   C46820280   1.009   4.103   7.499 -0.0380 -0.5870 -0.0629
   27MOL   C46920281   1.043   4.109   7.347  0.4499 -0.5222 -0.2057
   27MOL   C47020282   1.068   4.248   7.292 -0.1439 -0.5509  0.0410
   27MOL   C47120283   1.131   4.239   7.152  0.0130  0.3227  0.2466
   27MOL   C47220284   1.036   4.233   7.030  0.1705 -0.2200  0.3572
   27MOL   N47320285   1.107   4.276   6.914 -0.2264 -0.2371  0.3564
   27MOL   H47420286   0.350   3.605   7.441  0.0248  1.5490  0.2905
   27MOL   H47520287   0.383   3.611   7.619  1.8536 -1.5471  0.8686
   27MOL   H47620288   0.611   3.627   7.576 -1.8869 -1.1194  0.5660
   27MOL   H47720289   0.595   3.620   7.398 -0.7817  1.1135 -0.6434
   27MOL   H47820290   0.494   3.856   7.561 -2.1681 -1.7681  0.6477
   27MOL   H47920291   0.426   3.828   7.407 -1.7234  0.4544  2.1442
   27MOL   H48020292   0.571   3.974   7.351  1.0234  0.4074 -1.3155
   27MOL   H48120293   0.672   3.830   7.323  1.7713  0.6018  0.5044
   27MOL   H48220294   0.870   3.856   7.403 -1.2050 -0.8703  1.1456
   27MOL   H48320295   0.929   3.978   7.652 -1.6273 -2.5693  0.2112
   27MOL   H48420296   1.041   3.895   7.535  1.7538  1.1304  1.9508
   27MOL   H48520297   0.926   4.170   7.519 -0.5023 -1.0528 -0.4087
   27MOL   H48620298   1.100   4.132   7.552  0.2832 -2.4872  0.4536
   27MOL   H48720299   0.964   4.076   7.280  0.8013  1.0038 -1.4175
   27MOL   H48820300   1.129   4.045   7.325  1.2949 -0.3223  2.3748
   27MOL   H48920301   0.973   4.301   7.286 -0.2985 -1.0974 -2.9703
   27MOL   H49020302   1.131   4.306   7.358 -1.2974 -0.6283  1.2400
   27MOL   H49120303   1.186   4.332   7.138 -2.6004  1.6230 -1.8262
   27MOL   H49220304   1.207   4.161   7.143 -0.8220 -0.6211  1.1518
   27MOL   H49320305   0.949   4.296   7.049  1.5012  1.5071  0.7981
   27MOL   H49420306   1.010   4.127   7.031  0.2632 -0.2487 -0.3222
   27MOL   H49520307   1.142   4.370   6.899  0.9836 -0.7196  0.0710
   27MOL   C49620308   1.157   4.197   6.815 -0.2524  0.3006  0.2025
   27MOL   O49720309   1.149   4.072   6.810 -0.2503  0.1590 -0.0204
   27MOL   C49820310   1.254   4.279   6.719 -0.6020 -0.0131 -0.2627
   27MOL   C49920311   1.334   4.206   6.608 -0.0743 -0.3234 -0.0080
   27MOL   C50020312   1.410   4.074   6.647  0.3550 -0.3169 -0.0875
   27MOL   C50120313   1.496   4.002   6.545 -1.1406 -0.2872 -0.5537
   27MOL   C50220314   1.434   3.989   6.404  0.0764  0.1491 -0.5217
   27MOL   O50320315   1.316   3.951   6.387  0.0784 -0.1506  0.2857
   27MOL   N50420316   1.510   4.029   6.302 -0.0458 -0.2046  0.6823
   27MOL   C50520317   1.457   4.033   6.170 -0.1234 -0.6141  0.4330
   27MOL   C50620318   1.472   3.896   6.100  0.2837 -0.8862  0.3576
   27MOL   C50720319   1.434   3.899   5.954  0.4175 -0.5218  0.7687
   27MOL   C50820320   1.433   3.756   5.891  0.8069 -0.2885 -0.1477
   27MOL   C50920321   1.558   3.677   5.909  0.0817  0.5581 -0.6384
   27MOL   C51020322   1.684   3.746   5.849  0.2642 -0.7555 -0.3751
   27MOL   N51120323   1.795   3.654   5.825 -0.2107 -0.0245  0.0747
   27MOL   H51220324   1.205   4.368   6.680 -0.8446  0.5326  1.2816
   27MOL   H51320325   1.329   4.312   6.790  0.6261  2.2014 -2.5433
   27MOL   H51420326   1.266   4.177   6.529 -0.0823  2.4527 -1.0647
   27MOL   H51520327   1.404   4.279   6.568 -1.3843  1.2658  0.5233
   27MOL   H51620328   1.331   4.004   6.677  0.3663  0.0794  0.8909
   27MOL   H51720329   1.468   4.091   6.737 -1.5111  0.7489  0.9464
   27MOL   H51820330   1.515   3.902   6.584  0.8531 -1.0875 -3.4369
   27MOL   H51920331   1.594   4.048   6.537 -0.4047 -1.6147  0.6398
   27MOL   H52020332   1.602   4.067   6.319 -0.7546  1.3649  1.0854
   27MOL   H52120333   1.353   4.066   6.176 -0.2866 -1.3275  1.9134
   27MOL   H52220334   1.515   4.112   6.121 -0.5695  0.1757  1.1633
   27MOL   H52320335   1.576   3.870   6.116  1.1003  1.6791 -0.6635
   27MOL   H52420336   1.398   3.828   6.144 -1.4803  0.4048 -0.5842
   27MOL   H52520337   1.506   3.965   5.907 -0.1199 -0.4488  0.0392
   27MOL   H52620338   1.333   3.937   5.939  1.4898  1.3109 -2.1600
   27MOL   H52720339   1.355   3.696   5.938  0.6344  0.6170  0.7480
   27MOL   H52820340   1.408   3.776   5.787  0.1254  2.1972  0.4648
   27MOL   H52920341   1.579   3.650   6.012 -0.5548 -0.6901 -0.8336
   27MOL   H53020342   1.537   3.584   5.857  0.5535 -0.3262  0.7432
   27MOL   H53120343   1.727   3.826   5.909  0.4593 -1.0370 -0.1359
   27MOL   H53220344   1.665   3.786   5.749 -0.3032  0.9386  0.3994
   27MOL   H53320345   1.822   3.633   5.730 -0.9880  1.5878 -0.5240
   27MOL   C53420346   1.883   3.607   5.914  0.4582 -0.2697 -0.0896
   27MOL   O53520347   1.879   3.631   6.033  0.1804  0.0171  0.5374
   27MOL   C53620348   1.996   3.516   5.862 -0.7727  0.4289 -0.1007
   27MOL   C53720349   2.131   3.542   5.922  0.3021 -0.2699 -0.6010
   27MOL   C53820350   2.196   3.666   5.867  0.0441  0.0707  0.7659
   27MOL   C53920351   2.319   3.715   5.940 -0.0084 -0.0747 -0.2637
   27MOL   C54020352   2.388   3.821   5.860  0.6499  0.6002 -0.4507
   27MOL   O54120353   2.332   3.919   5.821 -0.4358  0.5293  0.2973
   27MOL   N54220354   2.513   3.790   5.826 -0.0729  0.2053  0.6696
   27MOL   C54320355   2.608   3.880   5.758  0.2176 -0.4357  0.4031
   27MOL   C54420356   2.734   3.889   5.843  0.4172 -0.4451  0.1902
   27MOL   C54520357   2.703   3.919   5.990 -0.0271  0.7717  0.0326
   27MOL   C54620358   2.836   3.942   6.073  0.0267 -0.4798 -0.1415
   27MOL   C54720359   2.810   3.962   6.218  0.3197 -0.4633  0.5409
   27MOL   C54820360   2.934   3.951   6.309  0.6234 -0.5081 -0.8614
   27MOL   N54920361   2.901   3.960   6.446 -0.0859  0.0611 -0.3957
   27MOL   H55020362   1.965   3.414   5.882 -0.0036 -0.0010 -1.0976
   27MOL   H55120363   2.009   3.527   5.755  2.4146  0.2454  0.2115
   27MOL   H55220364   2.129   3.541   6.030  1.8949  0.7580 -0.5405
   27MOL   H55320365   2.189   3.454   5.895  2.0109  0.8657 -0.7772
   27MOL   H55420366   2.121   3.744   5.854 -0.0141 -0.3867 -1.9315
   27MOL   H55520367   2.221   3.647   5.762  0.0562  0.7751  0.6408
   27MOL   H55620368   2.392   3.638   5.963  0.7498  0.3698 -1.1557
   27MOL   H55720369   2.283   3.749   6.037  1.4174  1.2797 -0.1990
   27MOL   H55820370   2.551   3.708   5.872 -0.3638 -0.3132  0.0103
   27MOL   H55920371   2.630   3.833   5.662 -1.1285  0.9532 -0.6237
   27MOL   H56020372   2.575   3.983   5.748 -0.8152 -0.9102 -1.2205
   27MOL   H56120373   2.791   3.796   5.836  0.7286 -0.1819 -0.8426
   27MOL   H56220374   2.789   3.970   5.795 -2.1788  1.0395 -0.4084
   27MOL   H56320375   2.641   3.844   6.039 -1.0399  1.7960  0.3363
   27MOL   H56420376   2.647   4.012   5.988 -2.0825 -0.4437 -2.2422
   27MOL   H56520377   2.897   3.853   6.057  0.2170 -0.0580 -1.8180
   27MOL   H56620378   2.885   4.029   6.029  0.2340  0.3417  1.6581
   27MOL   H56720379   2.774   4.065   6.228 -0.6461 -0.8735  1.3297
   27MOL   H56820380   2.730   3.895   6.247  0.2194 -0.2113  0.8527
   27MOL   H56920381   3.008   4.030   6.290 -0.4786  0.4858 -1.0472
   27MOL   H57020382   2.995   3.864   6.282 -0.8228 -1.2017 -1.9516
   27MOL   H57120383   2.854   4.046   6.470 -1.1144  0.4137 -3.4302
   27MOL   C57220384   2.939   3.869   6.540 -0.7592 -0.2140 -0.3867
   27MOL   O57320385   2.994   3.762   6.520  0.2153 -0.1727  0.1379
   27MOL   C57420386   2.900   3.894   6.680  0.1463  0.1930  0.0716
   27MOL   C57520387   2.957   3.808   6.790 -0.3146  0.6278 -0.2121
   27MOL   C57620388   3.109   3.816   6.798  0.6658 -0.7238 -0.8478
   27MOL   C57720389   3.157   3.726   6.918  0.7215 -0.6291  0.7816
   27MOL   C57820390   3.299   3.749   6.961 -1.0753  0.2746  0.6202
   27MOL   O57920391   3.352   3.860   6.949 -0.3410  0.4685 -0.5290
   27MOL   N58020392   3.360   3.647   7.022 -0.0271 -0.2076 -0.2740
   27MOL   C58120393   3.489   3.646   7.083 -0.3854 -0.2780 -0.2688
   27MOL   C58220394   3.496   3.605   7.229  0.4341  0.0127  0.2617
   27MOL   C58320395   3.640   3.582   7.271  0.2775  0.0553 -0.2703
   27MOL   C58420396   3.668   3.514   7.408  0.3387 -0.1480 -0.5362
   27MOL   C58520397   3.645   3.606   7.530 -0.0502  0.0389  0.4922
   27MOL   C58620398   3.706   3.546   7.665  0.3580 -0.5731  0.1301
   27MOL   N58720399   3.613   3.457   0.023 -0.4942  0.3632  0.7186
   27MOL   H58820400   2.926   3.999   6.694  1.7103 -0.5122  2.8704
   27MOL   H58920401   2.792   3.903   6.683 -0.0188 -1.1570 -1.1300
   27MOL   H59020402   2.909   3.828   6.885  0.4065 -0.1807  0.3202
   27MOL   H59120403   2.927   3.707   6.765 -1.2396  1.0872 -0.9960
   27MOL   H59220404   3.123   3.921   6.823  0.6669 -0.6484 -1.1597
   27MOL   H59320405   3.155   3.789   6.702 -1.7198 -2.5415 -1.5222
   27MOL   H59420406   3.150   3.622   6.889 -0.5946  0.2962 -2.4482
   27MOL   H59520407   3.095   3.747   7.005  1.8686 -1.8503  1.9101
   27MOL   H59620408   3.315   3.557   7.017 -0.1892 -0.1716  0.4326
   27MOL   H59720409   3.546   3.577   7.021  0.6343  1.9570 -1.9214
   27MOL   H59820410   3.549   3.736   7.063  0.0387 -0.5156 -0.0647
   27MOL   H59920411   3.451   3.676   7.298  0.2682  1.5770 -1.3921
   27MOL   H60020412   3.441   3.515   7.256 -0.2517  0.6180  0.9143
   27MOL   H60120413   3.702   3.669   7.250  0.3956  0.3654  1.2782
   27MOL   H60220414   3.689   3.514   7.202  1.2518  0.5511 -0.0783
   27MOL   H60320415   3.615   3.419   7.413  0.3988 -0.1388  0.2638
   27MOL   H60420416   3.772   3.482   7.401  0.4829  0.3259 -0.5828
   27MOL   H60520417   3.701   3.696   7.504  0.8511 -1.1125 -1.5904
   27MOL   H60620418   3.539   3.626   7.540 -0.9404 -2.8065 -2.3530
   27MOL   H60720419   3.715   3.631   0.023 -1.6688 -1.3713  1.4926
   27MOL   H60820420   3.801   3.498   7.639 -0.8310 -3.0066  0.0760
   27MOL   H60920421   3.539   3.417   7.676 -0.9984  0.3136  1.4176
   27MOL   C61020422   3.638   3.405   0.143  0.6876 -0.4864 -0.5125
   27MOL   O61120423   3.731   3.446   0.214 -0.1363  0.0928  0.9252
   27MOL   C61220424   3.542   3.301   0.196 -0.6627 -0.2159  0.6338
   27MOL   C61320425   3.518   3.292   0.352 -0.1793 -0.1336  0.1460
   27MOL   C61420426   3.400   3.202   0.402 -0.5497 -0.3806  0.3549
   27MOL   C61520427   3.263   3.240   0.335  0.3949 -0.4273  0.1141
   27MOL   C61620428   3.150   3.203   0.430 -0.1966  0.1926  0.3295
   27MOL   O61720429   3.137   3.283   0.524 -0.2737 -0.6364 -0.2941
   27MOL   N61820430   3.071   3.092   0.408 -0.2468 -0.1852 -0.4793
   27MOL   C61920431   2.978   3.039   0.501 -0.1683 -0.2993 -0.0631
   27MOL   C62020432   2.916   2.904   0.460 -0.2426 -0.4374 -0.1513
   27MOL   C62120433   2.843   2.906   0.323  0.1414  0.4121 -0.6315
   27MOL   C62220434   2.763   2.776   0.311  0.5037 -0.0340 -0.3237
   27MOL   C62320435   2.650   2.777   0.206 -0.5156 -0.3623 -0.5986
   27MOL   C62420436   2.598   2.635   0.169 -0.6820 -0.7763  0.0115
   27MOL   N62520437   2.458   2.651   0.133  0.8265  1.2291 -0.5238
   27MOL   H62620438   3.446   3.312   0.147 -0.9479 -2.7977  0.5515
   27MOL   H62720439   3.588   3.206   0.167  1.1150  0.5283  0.9478
   27MOL   H62820440   3.603   3.245   0.402 -0.5442 -0.6488  0.2804
   27MOL   H62920441   3.502   3.391   0.394  2.8797  0.6550 -0.4006
   27MOL   H63020442   3.389   3.214   0.510 -2.0606 -2.9419  0.5329
   27MOL   H63120443   3.425   3.096   0.409  1.3461  0.0632  0.6029
   27MOL   H63220444   3.254   3.200   0.234 -0.3003  0.5587 -0.2260
   27MOL   H63320445   3.251   3.348   0.327 -0.4154 -0.5067  0.1950
   27MOL   H63420446   3.085   3.038   0.324 -2.4476 -0.9996 -0.3565
   27MOL   H63520447   3.010   3.028   0.605  0.4807  0.0252 -0.2293
   27MOL   H63620448   2.893   3.107   0.498 -0.2931 -0.4072  0.7354
   27MOL   H63720449   2.991   2.824   0.458 -2.4204 -2.5514  0.1172
   27MOL   H63820450   2.842   2.870   0.532  0.1443  1.1933  1.0440
   27MOL   H63920451   2.921   2.920   0.248  1.8204 -1.0888  0.7889
   27MOL   H64020452   2.774   2.989   0.313  0.3670  0.4319 -2.0991
   27MOL   H64120453   2.840   2.700   0.295  0.1347 -0.6540  0.7547
   27MOL   H64220454   2.716   2.746   0.405 -2.1440  0.3026 -1.5060
   27MOL   H64320455   2.564   2.835   0.239  1.2242  1.8970  0.1311
   27MOL   H64420456   2.690   2.828   0.118 -0.0994  2.1065  0.9559
   27MOL   H64520457   2.605   2.567   0.255 -0.0152 -0.4735  0.2020
   27MOL   H64620458   2.663   2.592   0.093  2.7712  2.0012  1.2377
   27MOL   H64720459   2.449   2.661   0.033  0.5747  0.9847 -0.5287
   27MOL   C64820460   2.352   2.648   0.219 -0.4112  0.0213  0.4948
   27MOL   O64920461   2.368   2.622   0.336 -0.0942 -0.1063 -0.3635
   27MOL   C65020462   2.213   2.686   0.164 -0.3965  0.2757 -0.0315
   27MOL   C65120463   2.168   2.817   0.231 -0.4008 -0.2560 -0.3153
   27MOL   C65220464   2.211   2.946   0.161  0.0609  0.1732 -0.2295
   27MOL   C65320465   2.353   2.982   0.186  0.0908  0.3360 -0.1607
   27MOL   C65420466   2.392   3.126   0.206  0.1931  0.2311  0.6439
   27MOL   O65520467   2.312   3.212   0.250  0.1209  0.0115 -0.2274
   27MOL   N65620468   2.506   3.171   0.163  0.7085  0.5513  0.5044
   27MOL   C65720469   2.553   3.307   0.164  0.7447 -0.0946  0.4170
   27MOL   C65820470   2.684   3.328   0.083  0.3561  0.3701 -0.7128
   27MOL   C65920471   2.798   3.237   0.130 -0.3400 -0.1264 -0.0391
   27MOL   C66020472   2.929   3.249   0.041  0.0857 -0.3050  0.0424
   27MOL   C66120473   2.929   3.152   7.631  0.4659  0.0710 -0.7465
   27MOL   C66220474   2.892   3.007   7.664 -0.6471  0.5698  0.1396
   27MOL   N66320475   2.920   2.929   7.546  1.1702  0.0155  0.1571
   27MOL   H66420476   2.204   2.681   0.056  1.5311 -0.0992 -0.1882
   27MOL   H66520477   2.144   2.608   0.197  0.5463 -0.3161  0.5813
   27MOL   H66620478   2.060   2.807   0.242 -0.5064  0.4843 -0.6112
   27MOL   H66720479   2.202   2.821   0.334 -0.2966  1.1519 -0.3949
   27MOL   H66820480   2.147   3.030   0.190  0.2282  0.2152  0.0133
   27MOL   H66920481   2.186   2.939   0.055  0.9127 -2.1439 -0.2980
   27MOL   H67020482   2.418   2.937   0.110  0.1346 -0.6985  0.4836
   27MOL   H67120483   2.400   2.951   0.279 -0.3182 -0.5682 -0.2566
   27MOL   H67220484   2.574   3.100   0.141 -0.6527 -0.9812  1.1347
   27MOL   H67320485   2.474   3.371   0.124  0.4021 -0.1136  1.0438
   27MOL   H67420486   2.568   3.321   0.272  0.4085 -0.4589  0.5115
   27MOL   H67520487   2.662   3.317   7.685  0.8476  0.5550 -0.8335
   27MOL   H67620488   2.711   3.433   0.090  1.8368 -0.0286 -0.1595
   27MOL   H67720489   2.755   3.138   0.122  0.4421 -0.4174 -0.6871
   27MOL   H67820490   2.819   3.263   0.234 -0.4898  1.9277 -0.4847
   27MOL   H67920491   2.942   3.352   0.007  1.3211  0.3818  2.5119
   27MOL   H68020492   3.013   3.215   0.102  0.1583 -0.5786 -0.2094
   27MOL   H68120493   2.858   3.187   7.555 -0.3899  1.7944  0.8117
   27MOL   H68220494   3.026   3.152   7.581 -0.0588  1.0336 -1.8024
   27MOL   H68320495   2.794   2.995   0.000 -1.3418 -0.7333 -1.6865
   27MOL   H68420496   2.960   2.969   0.032 -0.8563 -0.3368 -0.1236
   27MOL   H68520497   2.964   2.980   7.471  0.7494 -1.1779 -0.9252
   27MOL   C68620498   2.894   2.791   7.543  0.6405  0.4272 -0.3184
   27MOL   O68720499   2.855   2.730   7.647  0.6351  0.3412 -0.1211
   27MOL   C68820500   2.914   2.708   7.417  0.5397  0.0558  0.0098
   27MOL   C68920501   2.982   2.581   7.450  0.2817  0.3604  0.1631
   27MOL   C69020502   3.117   2.581   7.519 -0.8132  0.0032  0.7028
   27MOL   C69120503   3.232   2.623   7.427 -0.4347  0.0020  0.2762
   27MOL   C69220504   3.367   2.639   7.493 -0.0013 -0.3501 -0.4828
   27MOL   O69320505   3.382   2.600   7.615  0.2294  0.2385  0.3173
   27MOL   N69420506   3.471   2.679   7.420 -0.5366 -0.1132 -0.2068
   27MOL   C69520507   3.603   2.689   7.478 -0.0289 -0.6374  0.2547
   27MOL   C69620508   3.712   2.655   7.375 -0.2802  0.5643  0.2293
   27MOL   C69720509   3.856   2.657   7.431  0.4555  0.2191  0.3311
   27MOL   C69820510   3.957   2.665   7.317  0.0086  0.0113 -0.4937
   27MOL   C69920511   4.106   2.659   7.365 -0.0990  0.2322 -0.3874
   27MOL   C70020512   4.138   2.527   7.437  0.8936 -0.8376 -0.4166
   27MOL   N70120513   4.282   2.525   7.477 -0.1847 -0.5351 -0.3561
   27MOL   H70220514   2.818   2.686   7.371  0.8021 -2.5745  0.6153
   27MOL   H70320515   2.963   2.769   7.343 -0.7754  1.5111  0.3104
   27MOL   H70420516   2.911   2.518   7.504  1.8689 -0.6558  1.1175
   27MOL   H70520517   2.989   2.523   7.358 -0.6426  0.5061 -0.0004
   27MOL   H70620518   3.142   2.478   7.542  0.0891  0.0219 -0.1771
   27MOL   H70720519   3.118   2.638   7.612  2.4312  0.0870  0.6824
   27MOL   H70820520   3.205   2.721   7.387 -3.9288  0.1859  2.8216
   27MOL   H70920521   3.256   2.553   7.347 -1.5669 -1.3018  1.0534
   27MOL   H71020522   3.457   2.693   7.321 -1.6497 -2.6804 -0.4515
   27MOL   H71120523   3.619   2.792   7.511  0.3600  0.9799 -4.5644
   27MOL   H71220524   3.624   2.633   7.569 -0.9570  1.3302  1.7236
   27MOL   H71320525   3.687   2.554   7.340  0.5428  0.2687  0.4870
   27MOL   H71420526   3.697   2.728   7.295 -1.1724 -0.0050 -0.1312
   27MOL   H71520527   3.878   2.563   7.481 -0.1968 -0.1609 -0.0895
   27MOL   H71620528   3.865   2.740   7.501 -1.8663  0.8145 -0.0173
   27MOL   H71720529   3.932   2.577   7.257  0.6676  0.0062 -0.7676
   27MOL   H71820530   3.944   2.749   7.249  1.2550 -1.2299 -2.3428
   27MOL   H71920531   4.173   2.671   7.280 -1.0694 -1.0042 -1.3363
   27MOL   H72020532   4.116   2.746   7.430 -0.6761 -0.3388  0.4704
   27MOL   H72120533   4.110   2.444   7.373 -1.7035  0.2365 -0.7425
   27MOL   H72220534   4.073   2.509   7.523  0.9376  0.1448 -0.1767
   27MOL   H72320535   4.343   2.569   7.409  0.3462 -2.3759 -1.1326
   27MOL   C72420536   4.321   2.483   7.594 -0.2427  0.0719 -0.2018
   27MOL   O72520537   4.248   2.434   7.674  0.2429 -0.2249 -0.3698
   27MOL   C72620538   4.471   2.479   7.618  0.3540  0.0448 -0.1927
   27MOL   C72720539   4.562   2.575   7.528  0.2547  0.1047  0.6432
   27MOL   C72820540   4.537   2.729   7.550  0.4815 -0.3412 -0.8794
   27MOL   C72920541   4.571   2.819   7.426 -0.3848  0.2976 -0.1351
   27MOL   C73020542   4.467   2.811   7.311  0.4526  0.5588  0.3828
   27MOL   O73120543   4.429   2.698   7.270 -0.0691  0.2373  0.7795
   27MOL   N73220544   4.435   2.930   7.258  0.4635 -0.1912  0.5343
   27MOL   C73320545   4.358   2.945   7.138  0.5678 -0.1024  0.0611
   27MOL   C73420546   4.294   3.082   7.132 -0.0801  0.0002 -0.4447
   27MOL   C73520547   4.396   3.197   7.150  0.4933  0.0643  0.0673
   27MOL   C73620548   4.332   3.336   7.153 -0.2242 -0.9950  0.6768
   27MOL   C73720549   4.272   3.374   7.022  0.4551 -0.1812  0.6779
   27MOL   C73820550   4.223   3.518   7.026 -0.1099 -0.1006 -0.1351
   27MOL   N73920551   4.192   3.564   6.893  0.2497  0.6100  0.2015
   27MOL   H74020552   4.492   2.510   0.013 -0.6175  0.3743 -0.0875
   27MOL   H74120553   4.502   2.375   7.625 -0.5179 -0.1765  0.6604
   27MOL   H74220554   4.659   2.547   7.568  0.0988  0.8092  1.5303
   27MOL   H74320555   4.557   2.544   7.423 -1.1442  0.1415  0.6887
   27MOL   H74420556   4.594   2.750   7.640  2.0708 -2.2186 -1.4007
   27MOL   H74520557   4.432   2.747   7.573  0.2532 -0.5395 -1.7268
   27MOL   H74620558   4.671   2.807   7.385  0.3347  0.7680  1.4424
   27MOL   H74720559   4.574   2.922   7.461  0.2656 -0.3322  1.7389
   27MOL   H74820560   4.477   3.012   7.299 -0.7759  0.1027  1.2293
   27MOL   H74920561   4.423   2.931   7.051 -1.9010 -0.2505 -1.8049
   27MOL   H75020562   4.282   2.866   7.141  1.1422 -0.6313  0.8777
   27MOL   H75120563   4.239   3.079   7.038 -2.2244  0.6210  0.7736
   27MOL   H75220564   4.210   3.101   7.198  0.4094  3.3539 -0.7013
   27MOL   H75320565   4.465   3.186   7.066 -0.6205 -1.1466 -0.6874
   27MOL   H75420566   4.458   3.190   7.240  0.0094  0.5946  0.4457
   27MOL   H75520567   4.252   3.340   7.227 -0.7333  0.8380  0.0580
   27MOL   H75620568   4.410   3.406   7.183 -0.6438  0.2601 -1.0728
   27MOL   H75720569   4.352   3.369   6.948 -0.1001  0.3062  0.0371
   27MOL   H75820570   4.197   3.301   6.994  0.3674  0.0883  0.1965
   27MOL   H75920571   4.288   3.595   7.068 -2.2331  1.2680  0.7181
   27MOL   H76020572   4.132   3.522   7.086 -0.3811  0.2468 -0.5598
   27MOL   H76120573   4.284   3.580   6.855  0.0350  1.2837 -0.0360
   27MOL   H76220574   4.160   3.659   6.902 -1.2097  0.1288  0.2296
   28MOL     C120575   3.141   5.609   6.399  0.3156 -0.3926 -0.4865
   28MOL     O220576   3.219   5.574   6.486 -0.9739  0.1494 -0.2396
   28MOL     C320577   3.129   5.757   6.366 -0.5502 -0.3098  0.0483
   28MOL     C420578   3.240   5.805   6.274  0.1673  0.6537 -0.2631
   28MOL     C520579   3.270   5.954   6.275 -0.1049  0.0535 -0.2688
   28MOL     C620580   3.401   5.996   6.201 -0.2544 -0.0173 -0.0299
   28MOL     C720581   3.413   6.148   6.164  0.7811  0.2049 -0.7874
   28MOL     O820582   3.358   6.186   6.054  0.1128 -0.3178 -0.3453
   28MOL     N920583   3.486   6.228   6.240  0.3099  0.0475  0.0170
   28MOL    C1020584   3.546   6.345   6.184 -0.3462 -0.3162 -0.6868
   28MOL    C1120585   3.531   6.465   6.278  0.6539  0.6572 -0.6894
   28MOL    C1220586   3.583   6.592   6.206  0.5311  0.2355 -0.5367
   28MOL    C1320587   3.599   6.709   6.303 -0.5996 -0.4944  0.0066
   28MOL    C1420588   3.656   6.829   6.225 -1.0666  0.0370  0.8070
   28MOL    C1520589   3.657   6.968   6.282 -0.4844  0.8499  0.0350
   28MOL    N1620590   3.724   7.066   6.194 -0.5668  0.5026  0.4913
   28MOL    H1720591   3.030   5.782   6.326 -0.8862  1.4962  1.8860
   28MOL    H1820592   3.144   5.811   6.460  3.5621 -1.6721  0.2465
   28MOL    H1920593   3.330   5.752   6.304 -0.6245 -0.3802  0.3449
   28MOL    H2020594   3.215   5.780   6.171  0.7755  0.6771 -0.4177
   28MOL    H2120595   3.275   5.977   6.381  0.1923 -1.3804  0.0314
   28MOL    H2220596   3.183   6.011   6.241 -0.9664 -1.6358 -0.9726
   28MOL    H2320597   3.409   5.942   6.107  0.0574  0.9317 -0.5600
   28MOL    H2420598   3.482   5.959   6.265  0.4990  1.8634  0.1388
   28MOL    H2520599   3.534   6.203   6.325  1.0095  1.6679  0.1200
   28MOL    H2620600   3.648   6.316   6.158 -0.2319  0.0518 -0.6434
   28MOL    H2720601   3.494   6.380   6.095 -0.6760  0.3625 -0.2261
   28MOL    H2820602   3.424   6.484   6.289  1.2396  2.6505  2.2137
   28MOL    H2920603   3.577   6.443   6.374 -0.4432 -2.7519 -0.8999
   28MOL    H3020604   3.511   6.627   6.131  2.3090  1.9196 -1.5157
   28MOL    H3120605   3.673   6.560   6.154 -0.5412  0.8248 -2.8489
   28MOL    H3220606   3.498   6.737   6.331 -1.2763 -1.7590 -1.0994
   28MOL    H3320607   3.663   6.689   6.389  1.3350  1.6505 -0.8518
   28MOL    H3420608   3.750   6.799   6.180 -1.6487 -0.0953 -0.3287
   28MOL    H3520609   3.596   6.828   6.134  1.3989  0.0135 -0.8891
   28MOL    H3620610   3.699   6.962   6.382 -2.3439 -0.8387  0.7375
   28MOL    H3720611   3.556   7.001   6.305 -0.6367  0.3509  0.0841
   28MOL    H3820612   3.674   7.133   6.137 -0.2434  0.0102 -0.3709
   28MOL    H3920613   3.054   5.549   6.371 -0.1361 -0.0914  0.2298
   28MOL    C4020614   3.852   7.097   6.195 -0.4090 -0.5264  0.5411
   28MOL    O4120615   3.938   7.037   6.262 -0.6396  0.2948  0.6444
   28MOL    C4220616   3.897   7.209   6.095 -0.3120 -0.2851  0.4983
   28MOL    C4320617   4.051   7.232   6.065  0.0947  0.3696 -0.2792
   28MOL    C4420618   4.124   7.107   6.009 -0.0605 -0.3739 -0.0511
   28MOL    C4520619   4.279   7.121   6.009 -0.4694  0.1099  1.2258
   28MOL    C4620620   4.325   7.166   5.867  0.9080 -0.1004 -0.8499
   28MOL    O4720621   4.258   7.243   5.804  0.1823 -0.2105  0.2825
   28MOL    N4820622   4.440   7.112   5.820 -0.4661 -0.3039  0.2605
   28MOL    C4920623   4.487   7.126   5.689 -0.0703 -0.0700  0.3087
   28MOL    C5020624   4.639   7.106   5.665 -0.5507 -0.2897  0.5161
   28MOL    C5120625   4.678   7.052   5.525 -0.0971  0.6954  0.1998
   28MOL    C5220626   4.833   7.031   5.529  0.1173 -0.0583 -0.1628
   28MOL    C5320627   4.886   6.944   5.416 -0.3710 -0.0393 -0.3357
   28MOL    C5420628   5.041   6.935   5.415 -0.2957  0.1823 -0.2771
   28MOL    N5520629   5.091   6.923   5.551  0.3325 -0.1662 -0.2209
   28MOL    H5620630   3.841   7.192   6.004 -2.6890  0.9334  1.6619
   28MOL    H5720631   3.859   7.298   6.147 -3.8441 -0.8531 -0.9628
   28MOL    H5820632   4.069   7.319   6.001  1.1710  0.7710  0.5559
   28MOL    H5920633   4.099   7.257   6.159 -0.9248 -1.8783  0.8788
   28MOL    H6020634   4.094   7.082   5.907  1.6586  1.9319 -1.1660
   28MOL    H6120635   4.093   7.022   6.070 -1.6603  0.1085 -0.1600
   28MOL    H6220636   4.323   7.027   6.043 -1.5203  0.6322  4.0801
   28MOL    H6320637   4.323   7.195   6.075 -0.7387 -0.0681  1.6000
   28MOL    H6420638   4.485   7.037   5.871  0.5244  1.3273  1.8136
   28MOL    H6520639   4.432   7.043   5.645 -0.6459 -0.0112  0.9187
   28MOL    H6620640   4.455   7.210   5.627  0.9325 -0.4658 -0.7732
   28MOL    H6720641   4.677   7.207   5.678 -0.8390  0.3054 -2.6869
   28MOL    H6820642   4.683   7.051   5.748 -0.9342  1.0243  1.6020
   28MOL    H6920643   4.657   7.118   5.441 -2.1132  1.6073  1.3762
   28MOL    H7020644   4.629   6.955   5.515  1.2787  0.2104 -1.9918
   28MOL    H7120645   4.879   7.130   5.526 -0.3319  0.3231  3.3468
   28MOL    H7220646   4.864   6.989   5.624 -2.9030 -2.8882 -0.3525
   28MOL    H7320647   4.835   6.851   5.438 -0.3247  0.1112  0.4446
   28MOL    H7420648   4.844   6.984   5.324 -0.8981 -1.2369 -0.6174
   28MOL    H7520649   5.072   7.033   5.380 -2.7122  2.0092  2.4819
   28MOL    H7620650   5.050   6.853   5.343  0.2656 -0.6035  0.6643
   28MOL    H7720651   5.051   6.986   5.619  0.4598 -1.3188  0.9293
   28MOL    C7820652   5.136   6.803   5.595  0.5149 -0.4716  0.3174
   28MOL    O7920653   5.158   6.707   5.517 -1.0110  0.3115 -0.4047
   28MOL    C8020654   5.145   6.788   5.753  0.1875 -0.3188 -0.0256
   28MOL    C8120655   5.185   6.643   5.801 -0.2457  0.1761 -0.0349
   28MOL    C8220656   5.148   6.599   5.945  0.5622  0.8913 -0.3456
   28MOL    C8320657   5.216   6.473   6.013 -0.1501  0.3939  0.1223
   28MOL    C8420658   5.344   6.520   6.093  0.0015 -0.2161 -0.3426
   28MOL    O8520659   5.337   6.617   6.167 -0.0686 -0.0903 -0.0194
   28MOL    N8620660   5.455   6.449   6.075 -0.0770  0.0409 -0.1934
   28MOL    C8720661   5.573   6.458   6.157  0.1914 -0.2553  0.1294
   28MOL    C8820662   5.683   6.544   6.089  0.5553 -0.1014 -0.6672
   28MOL    C8920663   5.743   6.474   5.963 -0.4735 -0.1624 -0.2241
   28MOL    C9020664   5.809   6.570   5.858  0.3319  0.3279 -0.4950
   28MOL    C9120665   5.865   6.501   5.736 -0.6534 -0.1352  0.7429
   28MOL    C9220666   5.756   6.425   5.657  0.4899  0.6106  0.0542
   28MOL    N9320667   5.651   6.512   5.608 -0.0691 -0.0920  0.1450
   28MOL    H9420668   5.210   6.857   5.805  1.7634 -0.9691 -1.1089
   28MOL    H9520669   5.043   6.819   5.778  1.3750  1.7516  2.4068
   28MOL    H9620670   5.155   6.561   5.735 -0.5106  1.1269 -1.1133
   28MOL    H9720671   5.293   6.636   5.810 -0.2315  0.5987  0.1251
   28MOL    H9820672   5.040   6.598   5.950  0.6284  0.7559  1.6595
   28MOL    H9920673   5.166   6.684   6.011 -2.7886  1.9008 -0.6849
   28MOL   H10020674   5.234   6.388   5.948 -3.0320 -0.9867  1.0213
   28MOL   H10120675   5.145   6.446   6.091 -0.5152 -0.9626 -0.6663
   28MOL   H10220676   5.442   6.361   6.027 -0.7999 -0.1387  0.3217
   28MOL   H10320677   5.540   6.485   6.257 -1.4415 -2.6390  0.2839
   28MOL   H10420678   5.614   6.358   6.175  0.3143 -0.0765  0.8471
   28MOL   H10520679   5.647   6.643   6.063  0.1263 -0.3115 -0.8842
   28MOL   H10620680   5.760   6.569   6.162  1.2797  1.7639 -2.0149
   28MOL   H10720681   5.655   6.435   5.911  0.2493 -0.7401 -1.0410
   28MOL   H10820682   5.806   6.388   5.986 -1.0870 -1.1058 -1.9435
   28MOL   H10920683   5.743   6.653   5.831 -1.6791 -0.5663  1.4653
   28MOL   H11020684   5.893   6.610   5.914 -0.8831  1.4476  0.5690
   28MOL   H11120685   5.926   6.576   5.686 -0.1015 -0.0208  1.5943
   28MOL   H11220686   5.934   6.423   5.768 -2.2428 -1.9007 -0.0419
   28MOL   H11320687   5.712   6.351   5.724 -2.5100  0.6804 -1.7087
   28MOL   H11420688   5.798   6.368   5.574 -1.4473  0.5450 -0.9201
   28MOL   H11520689   5.580   6.536   5.676  2.3001  1.0709  2.2977
   28MOL   C11620690   5.651   6.576   5.492  0.7821 -0.7476 -0.7590
   28MOL   O11720691   5.734   6.559   5.403  0.1973  0.0207  0.5058
   28MOL   C11820692   5.539   6.673   5.460  0.2303  1.0794  0.3121
   28MOL   C11920693   5.595   6.804   5.406 -0.4303 -0.1314  0.3924
   28MOL   C12020694   5.499   6.925   5.430  0.0333 -0.2652 -0.0672
   28MOL   C12120695   5.492   7.018   5.307 -0.1029  0.7220  0.5915
   28MOL   C12220696   5.626   7.095   5.294  0.2141  0.0689 -0.0635
   28MOL   O12320697   5.666   7.164   5.391  0.2592 -0.2249 -0.1654
   28MOL   N12420698   5.689   7.087   5.179  0.0996  0.1709 -0.3640
   28MOL   C12520699   5.806   7.171   5.135  0.3581 -0.1984  0.6653
   28MOL   C12620700   5.904   7.087   5.043 -0.0114  0.2174 -0.2544
   28MOL   C12720701   6.048   7.128   5.026 -1.0357 -0.4470 -0.1472
   28MOL   C12820702   6.134   7.048   4.934 -0.1691  0.4871 -0.0520
   28MOL   C12920703   6.277   7.092   4.932 -0.3375  0.6008 -0.1307
   28MOL   C13020704   6.349   7.031   4.813 -0.0353  0.3653 -1.4132
   28MOL   N13120705   6.479   7.087   4.797  0.6037  0.2251 -0.0723
   28MOL   H13220706   5.477   6.624   5.385  2.3912  0.8867 -1.3854
   28MOL   H13320707   5.480   6.676   5.552  2.4958  2.2376  1.7889
   28MOL   H13420708   5.683   6.831   5.466 -0.2961  1.9562 -0.7063
   28MOL   H13520709   5.615   6.791   5.300  1.2107 -1.2278  0.8076
   28MOL   H13620710   5.512   6.986   5.520  1.3206  1.5490 -1.4199
   28MOL   H13720711   5.396   6.891   5.437  0.5293 -1.9217 -0.7272
   28MOL   H13820712   5.418   7.096   5.321 -0.8529  0.4120 -1.4675
   28MOL   H13920713   5.455   6.969   5.217  0.4354  0.0826  0.7149
   28MOL   H14020714   5.661   7.008   5.123 -0.9878  2.1112 -2.6209
   28MOL   H14120715   5.767   7.261   5.087 -0.6040 -1.0203 -0.1328
   28MOL   H14220716   5.861   7.206   5.222 -1.2192  0.4609  1.4007
   28MOL   H14320717   5.903   6.991   5.094 -0.5169  0.6882  0.6529
   28MOL   H14420718   5.868   7.070   4.942  1.1433  0.0761 -0.6452
   28MOL   H14520719   6.101   7.131   5.121  1.1184  1.2749 -1.3329
   28MOL   H14620720   6.034   7.225   4.978  4.7450  0.8138  0.2965
   28MOL   H14720721   6.124   6.947   4.974 -1.8472  0.7482  0.2383
   28MOL   H14820722   6.088   7.034   4.836  1.1114  1.4173 -0.8024
   28MOL   H14920723   6.289   7.200   4.923  0.4245  0.8194  2.7295
   28MOL   H15020724   6.319   7.052   5.025  2.1051  3.0420 -0.1189
   28MOL   H15120725   6.297   7.051   4.719 -0.0931 -0.3851 -1.5434
   28MOL   H15220726   6.367   6.924   4.822  0.7368  0.5492 -0.7233
   28MOL   H15320727   6.512   7.164   4.855 -1.9527  1.8792 -0.7416
   28MOL   C15420728   6.573   7.029   4.716  0.3721  0.0920 -0.0017
   28MOL   O15520729   6.553   6.934   4.642 -0.6912 -0.1778  0.2739
   28MOL   C15620730   6.720   7.092   4.722 -0.3919 -0.1259  0.1080
   28MOL   C15720731   6.741   7.193   4.608  0.4802 -0.4025 -0.0679
   28MOL   C15820732   6.643   7.315   4.601  0.7672 -0.2710 -0.4922
   28MOL   C15920733   6.675   7.427   4.699 -0.0739  0.4954  0.7223
   28MOL   C16020734   6.646   7.418   4.850 -0.1521  0.4058 -0.0815
   28MOL   O16120735   6.560   7.339   4.888 -0.2233 -0.4403 -0.6750
   28MOL   N16220736   6.716   7.489   4.938  0.4893 -0.5917  0.3957
   28MOL   C16320737   6.729   7.486   5.083 -0.6274 -0.3652 -0.1213
   28MOL   C16420738   6.613   7.559   5.151 -0.7331  0.2355  0.0154
   28MOL   C16520739   6.635   7.593   5.301  0.6415  0.1535 -0.5048
   28MOL   C16620740   6.644   7.481   5.398 -0.0510  0.0233 -0.2631
   28MOL   C16720741   6.650   7.526   5.546 -0.3300  0.2921  0.5420
   28MOL   C16820742   6.610   7.407   5.639  0.2290 -0.6760 -0.8303
   28MOL   N16920743   6.629   7.452   5.779  0.6846  0.3418  0.2026
   28MOL   H17020744   6.737   7.142   4.817  1.0836 -0.5587  0.0822
   28MOL   H17120745   6.792   7.010   4.716  0.8651  0.8666  1.3385
   28MOL   H17220746   6.840   7.236   4.622 -0.5908  2.6117 -1.1814
   28MOL   H17320747   6.736   7.138   4.514  1.5573  0.8384 -0.8718
   28MOL   H17420748   6.536   7.300   4.607  1.2106 -3.0005  2.1528
   28MOL   H17520749   6.650   7.353   4.499  0.2519 -1.3403 -0.9256
   28MOL   H17620750   6.626   7.516   4.661 -0.3022  0.7974  1.7191
   28MOL   H17720751   6.783   7.433   4.710  0.5006 -5.3686  0.2571
   28MOL   H17820752   6.779   7.550   4.889 -2.4296  1.7025 -0.6872
   28MOL   H17920753   6.727   7.382   5.115  0.1798  0.0587  1.3843
   28MOL   H18020754   6.828   7.530   5.100 -0.6560 -0.3902  0.1198
   28MOL   H18120755   6.597   7.651   5.095  1.2661 -0.2084 -1.3592
   28MOL   H18220756   6.526   7.500   5.124 -0.5324 -0.5450  1.0369
   28MOL   H18320757   6.543   7.644   5.327 -1.2293 -2.3160 -2.0554
   28MOL   H18420758   6.721   7.660   5.304  1.5634 -0.9431 -1.6408
   28MOL   H18520759   6.556   7.417   5.385  1.1180 -1.4057 -1.4362
   28MOL   H18620760   6.729   7.413   5.385 -0.9828 -0.9712 -1.3255
   28MOL   H18720761   6.747   7.566   5.576  0.0613 -0.0947 -0.1907
   28MOL   H18820762   6.582   7.608   5.564  0.5877  1.5100 -1.4365
   28MOL   H18920763   6.664   7.315   5.616  3.2633  1.3268 -2.1360
   28MOL   H19020764   6.505   7.377   5.640 -0.1286  0.5528  0.3542
   28MOL   H19120765   6.543   7.485   5.820 -1.1344 -2.6025 -1.0866
   28MOL   C19220766   6.742   7.438   5.855  0.3358  0.3894  0.4670
   28MOL   O19320767   6.852   7.397   5.808  0.4064  0.6758  0.8799
   28MOL   C19420768   6.738   7.479   5.999  0.4925  0.2127  0.4386
   28MOL   C19520769   6.734   7.367   6.102 -0.2295  0.3095 -0.3411
   28MOL   C19620770   6.830   7.249   6.085  0.0172 -0.6382 -0.6468
   28MOL   C19720771   6.807   7.156   6.198 -0.1006 -0.7083 -0.4320
   28MOL   C19820772   6.900   7.035   6.197 -0.3991 -0.1171  0.5322
   28MOL   O19920773   6.873   6.953   6.113  0.1910 -0.5632 -0.2748
   28MOL   N20020774   6.992   7.026   6.290 -0.5394 -0.0572 -0.5590
   28MOL   C20120775   7.110   6.940   6.297 -0.0035 -0.2838 -0.4183
   28MOL   C20220776   7.239   7.023   6.273  0.7306  0.1912  0.1079
   28MOL   C20320777   7.368   6.934   6.279  0.6221  0.1731  0.0437
   28MOL   C20420778   7.491   7.005   6.222  0.6160  0.4888 -0.2933
   28MOL   C20520779   7.481   7.016   6.063  0.1794 -0.4057  0.3502
   28MOL   C20620780   7.615   7.065   6.003 -0.1560  0.5018 -0.1956
   28MOL   N20720781   7.613   7.095   5.862  0.1892  0.8042 -0.8780
   28MOL   H20820782   6.816   7.549   6.028 -2.0094  2.6347  1.5717
   28MOL   H20920783   6.643   7.529   6.015  0.1550 -0.7999  1.7929
   28MOL   H21020784   6.749   7.419   6.197  2.2745  1.2753 -1.2245
   28MOL   H21120785   6.633   7.327   6.103  0.8964 -2.6577  0.9228
   28MOL   H21220786   6.931   7.289   6.080  0.3679 -1.9263 -5.4534
   28MOL   H21320787   6.807   7.199   5.991  0.3189  1.0320 -1.6350
   28MOL   H21420788   6.707   7.114   6.190  0.7692 -3.3596  1.7558
   28MOL   H21520789   6.822   7.201   6.296  0.1414  0.9933 -1.2414
   28MOL   H21620790   6.968   7.088   6.366  0.2034 -1.1413  0.5839
   28MOL   H21720791   7.107   6.889   6.393  0.6095 -2.1702 -1.3735
   28MOL   H21820792   7.111   6.856   6.228  0.0139 -0.6061 -0.0262
   28MOL   H21920793   7.221   7.061   6.173 -0.9861 -2.0327 -0.4560
   28MOL   H22020794   7.253   7.106   6.342  0.5456 -0.9859  1.6019
   28MOL   H22120795   7.346   6.837   6.233 -2.0955  1.2450 -0.9926
   28MOL   H22220796   7.373   6.912   6.386  1.7870 -1.5739 -0.3510
   28MOL   H22320797   7.496   7.109   6.253  1.1636  0.4055 -0.0922
   28MOL   H22420798   7.583   6.953   6.252 -1.3290 -2.7511  0.2959
   28MOL   H22520799   7.455   6.928   6.005 -0.5448  0.7870 -1.1815
   28MOL   H22620800   7.411   7.098   6.046  1.7065  1.0899  1.0778
   28MOL   H22720801   7.700   7.003   6.032 -0.5085  1.0883  2.1942
   28MOL   H22820802   7.643   7.161   6.045  0.7633 -0.3954  1.2816
   28MOL   H22920803   7.630   7.192   5.841 -1.9428  1.5670  0.6902
   28MOL   C23020804   7.605   7.000   5.764  0.1108  0.7020 -0.1751
   28MOL   O23120805   7.584   6.882   5.787 -0.0347  0.0653 -0.2811
   28MOL   C23220806   7.651   7.037   5.619  0.0794 -1.0090 -0.1659
   28MOL   C23320807   7.527   7.084   5.530  0.0227  0.2332  0.4779
   28MOL   C23420808   7.454   7.208   5.572  0.0046 -0.5582  0.6719
   28MOL   C23520809   7.522   7.347   5.534 -0.9346  0.4001 -0.5994
   28MOL   C23620810   7.650   7.369   5.618 -0.4443 -0.8155 -1.0937
   28MOL   O23720811   7.651   7.346   5.739  0.2277  0.0052 -0.0124
   28MOL   N23820812   0.049   7.413   5.556 -0.2554 -0.4472  0.6615
   28MOL   C23920813   0.178   7.450   5.618  0.4183  0.4139 -0.0279
   28MOL   C24020814   0.265   7.537   5.530 -0.0739  1.0205 -0.8016
   28MOL   C24120815   0.401   7.562   5.597 -0.3199 -0.1484 -0.0421
   28MOL   C24220816   0.501   7.633   5.508  0.3408  0.1248  0.1929
   28MOL   C24320817   0.498   0.079   5.508  0.4272 -0.1965  0.5255
   28MOL   C24420818   0.620   0.137   5.444  0.3751 -0.6881 -0.8028
   28MOL   N24520819   0.626   0.282   5.444 -0.2274 -0.6060 -0.8121
   28MOL   H24620820   0.017   7.117   5.616 -2.2744  1.2475 -0.8646
   28MOL   H24720821   7.693   6.955   5.562  1.4712 -0.4971  0.1172
   28MOL   H24820822   7.567   7.097   5.429 -1.0571 -0.6514 -0.0612
   28MOL   H24920823   7.447   7.011   5.533  1.3103 -1.2078  0.5670
   28MOL   H25020824   7.435   7.202   5.679 -2.9784 -0.3118  0.2107
   28MOL   H25120825   7.358   7.214   5.521 -0.6823 -0.7774  1.9034
   28MOL   H25220826   7.438   7.417   5.535 -1.1343  0.1713  1.3432
   28MOL   H25320827   7.555   7.350   5.431 -0.7481  1.7370 -0.5032
   28MOL   H25420828   0.053   7.428   5.457  1.0717 -0.8221  0.6575
   28MOL   H25520829   0.150   7.493   5.714 -1.1646  0.2837 -0.4211
   28MOL   H25620830   0.226   7.357   5.647  2.7927  1.4768 -0.4778
   28MOL   H25720831   0.291   7.495   5.433  2.4635 -2.9092  1.4570
   28MOL   H25820832   0.205   7.626   5.509 -0.8278  0.3699 -1.4470
   28MOL   H25920833   0.455   7.473   5.629 -0.2143 -0.3322 -0.7083
   28MOL   H26020834   0.386   7.613   5.692 -1.1985  0.8850 -0.7256
   28MOL   H26120835   0.597   7.601   5.548  0.4909 -0.4975 -0.6339
   28MOL   H26220836   0.491   7.589   5.408 -1.0306 -0.8405  0.7434
   28MOL   H26320837   0.410   0.115   5.454  0.2296 -0.0257  0.9675
   28MOL   H26420838   0.483   0.120   5.608  2.9405  0.6375  0.5776
   28MOL   H26520839   0.625   0.115   5.338  1.2534 -0.0941 -0.8875
   28MOL   H26620840   0.708   0.094   5.492 -0.7196 -1.7519  0.3072
   28MOL   H26720841   0.575   0.339   5.378  1.9686  1.4967 -0.7450
   28MOL   C26820842   0.685   0.363   5.536  0.9825  0.2049  0.2546
   28MOL   O26920843   0.678   0.486   5.520 -0.6395 -1.0701 -0.7853
   28MOL   C27020844   0.762   0.310   5.658  0.8006  0.2810  0.7575
   28MOL   C27120845   0.848   0.416   5.728  0.4836  0.5025 -0.2249
   28MOL   C27220846   0.942   0.350   5.828  0.2770  0.9388 -0.1621
   28MOL   C27320847   1.029   0.461   5.901  0.0213  0.2625  0.5814
   28MOL   C27420848   1.120   0.388   5.997 -0.0303 -0.0136  1.2297
   28MOL   O27520849   1.115   0.266   6.009 -0.2383 -0.2134  0.4478
   28MOL   N27620850   1.203   0.469   6.067  0.2573  0.0806  0.2516
   28MOL   C27720851   1.304   0.420   6.155  0.0862  0.0293 -0.1955
   28MOL   C27820852   1.346   0.514   6.264  0.1369  0.1289 -0.5424
   28MOL   C27920853   1.475   0.462   6.328 -0.7154  0.6484  0.4779
   28MOL   C28020854   1.533   0.577   6.418  0.8407  0.4095  0.0253
   28MOL   C28120855   1.643   0.537   6.522 -0.2973  0.1680  0.3069
   28MOL   C28220856   1.681   0.652   6.614  0.2300  0.1353 -0.5123
   28MOL   N28320857   1.561   0.688   6.689 -0.0759  0.7978 -0.1037
   28MOL   H28420858   0.695   0.254   5.724  0.1142 -0.1097 -0.2437
   28MOL   H28520859   0.825   0.231   5.617  1.5211  0.1774  2.0481
   28MOL   H28620860   0.899   0.480   5.657 -0.3429  3.1343  1.4767
   28MOL   H28720861   0.789   0.492   5.779  0.2336 -0.0292  0.2863
   28MOL   H28820862   1.006   0.280   5.775  0.4660 -0.5114  1.9013
   28MOL   H28920863   0.894   0.285   5.901 -1.8159  0.6762 -1.7150
   28MOL   H29020864   0.964   0.524   5.962 -0.3378 -0.3670  0.8511
   28MOL   H29120865   1.076   0.530   5.832  2.1045 -0.9131  0.8100
   28MOL   H29220866   1.207   0.569   6.053 -0.8494  0.1488  0.3570
   28MOL   H29320867   1.285   0.326   6.205  0.5261  0.0516  0.0154
   28MOL   H29420868   1.393   0.404   6.094  1.8631  1.1093  1.9929
   28MOL   H29520869   1.375   0.614   6.231  2.5053 -0.0157  0.9537
   28MOL   H29620870   1.265   0.518   6.337  0.9992 -2.2145  0.5905
   28MOL   H29720871   1.549   0.424   6.257 -2.1005  0.0375 -0.6549
   28MOL   H29820872   1.451   0.371   6.383 -5.0783  1.5306  0.1882
   28MOL   H29920873   1.571   0.658   6.354  0.4518 -0.4190 -1.2789
   28MOL   H30020874   1.445   0.614   6.470  1.4635 -0.3533  1.6540
   28MOL   H30120875   1.610   0.452   6.580  0.7490  0.5824  1.5304
   28MOL   H30220876   1.731   0.492   6.474 -0.9694 -1.6206  0.7267
   28MOL   H30320877   1.708   0.735   6.548  0.3735  0.6713  0.2106
   28MOL   H30420878   1.765   0.614   6.672  0.1093  1.4956  0.6004
   28MOL   H30520879   1.523   0.617   6.749  0.0347  1.8962  1.3153
   28MOL   C30620880   1.492   0.802   6.688 -0.3526  0.0762  0.1861
   28MOL   O30720881   1.520   0.890   6.604  0.0700  0.4418 -0.1827
   28MOL   C30820882   1.388   0.811   6.795 -0.9468 -0.0553 -0.5209
   28MOL   C30920883   1.236   0.819   6.756  0.2100  0.0388 -0.5454
   28MOL   C31020884   1.182   0.726   6.642  0.6087 -0.3518 -0.3425
   28MOL   C31120885   1.219   0.580   6.663  0.0037  0.0215  1.6000
   28MOL   C31220886   1.111   0.502   6.742 -0.6181  0.1206  0.1773
   28MOL   O31320887   1.013   0.461   6.682 -0.2054 -0.1106  0.4381
   28MOL   N31420888   1.136   0.483   6.875  0.4537 -0.6489 -0.1245
   28MOL   C31520889   1.064   0.400   6.966 -1.1856  1.0390 -0.4973
   28MOL   C31620890   1.123   0.256   6.975  0.0539 -0.2261 -1.3384
   28MOL   C31720891   1.260   0.256   7.058  0.8152 -0.1475 -0.2722
   28MOL   C31820892   1.322   0.121   7.080  0.1766 -0.2894 -0.3686
   28MOL   C31920893   1.465   0.118   7.130 -0.0648 -0.3024  0.3132
   28MOL   C32020894   1.523   7.702   7.193  0.2864  0.6906  0.6534
   28MOL   N32120895   1.660   0.008   7.235 -0.2589 -0.8793  0.0837
   28MOL   H32220896   1.399   0.734   6.871 -0.6173 -0.2205 -0.7322
   28MOL   H32320897   1.417   0.909   6.833 -0.2403 -0.4794  0.0608
   28MOL   H32420898   1.180   0.787   6.844  0.6097  1.4894  0.2555
   28MOL   H32520899   1.210   0.923   6.739  0.8401  0.2385 -0.3090
   28MOL   H32620900   1.236   0.752   6.551 -0.2971 -0.7871 -1.0143
   28MOL   H32720901   1.075   0.741   6.625  0.5622 -0.1921  0.1032
   28MOL   H32820902   1.323   0.567   6.691  0.2669  0.5489  0.9019
   28MOL   H32920903   1.196   0.536   6.566 -1.1032 -1.3791  2.4847
   28MOL   H33020904   1.224   0.514   6.912 -0.2904  0.5489  0.6845
   28MOL   H33120905   1.069   0.457   7.059 -0.4105  0.0463  0.0777
   28MOL   H33220906   0.958   0.399   6.941 -1.6759 -1.7613  1.3764
   28MOL   H33320907   1.052   0.211   7.044 -1.0196  2.6737 -0.4994
   28MOL   H33420908   1.132   0.199   6.882 -0.9775 -2.1545 -0.2881
   28MOL   H33520909   1.230   0.308   7.148  1.2265  1.4279 -1.0232
   28MOL   H33620910   1.321   0.330   7.006 -0.6490  3.5667  3.0709
   28MOL   H33720911   1.253   0.059   7.137  0.9030 -0.1068  0.7371
   28MOL   H33820912   1.327   0.073   6.983 -0.9072  0.1342 -0.6385
   28MOL   H33920913   1.525   0.136   7.040 -1.2307 -0.8438 -0.5993
   28MOL   H34020914   1.481   0.202   7.196  1.4074  0.0372 -0.4523
   28MOL   H34120915   1.510   7.617   7.126  0.3123  1.2791 -0.0965
   28MOL   H34220916   1.462   7.675   7.279  0.2784  1.1549  0.7947
   28MOL   H34320917   1.671   0.085   7.299  0.9197 -0.5063 -0.5562
   28MOL   C34420918   1.755   7.624   7.216 -0.2728  0.1749 -0.6063
   28MOL   O34520919   1.734   7.516   7.158  0.1002 -0.0036 -0.2362
   28MOL   C34620920   1.893   7.659   7.270  0.0155 -0.4074  0.1002
   28MOL   C34720921   1.928   7.601   7.414  0.2467  0.1953 -0.2801
   28MOL   C34820922   1.909   7.702   7.530 -0.2784  0.2385 -0.1275
   28MOL   C34920923   1.927   7.627   7.659  0.2436  0.0623 -0.7488
   28MOL   C35020924   1.807   7.542   7.697 -0.1914  0.4175  0.0672
   28MOL   O35120925   1.693   7.579   7.676  0.2911  0.1714 -0.5929
   28MOL   N35220926   1.843   7.423   0.042  0.4073  0.8169 -0.4516
   28MOL   C35320927   1.748   7.334   0.106  0.3874 -0.7219 -0.0937
   28MOL   C35420928   1.743   7.192   0.050 -0.3574  0.0378 -0.0405
   28MOL   C35520929   1.730   7.192   7.601 -0.0524  0.0242 -0.2262
   28MOL   C35620930   1.608   7.272   7.545 -0.2800  0.5451  0.5238
   28MOL   C35720931   1.614   7.266   7.392 -0.3315  0.5741  0.1367
   28MOL   C35820932   1.504   7.343   7.325  0.0839  0.1435 -0.5822
   28MOL   N35920933   1.498   7.325   7.184  0.3159  0.2360 -0.5142
   28MOL   H36020934   1.957   7.600   7.205 -1.0725 -0.6078 -0.8116
   28MOL   H36120935   1.911   0.058   7.270 -0.1663 -0.3606  1.5840
   28MOL   H36220936   1.866   7.511   7.416  2.8039 -1.6213 -1.1392
   28MOL   H36320937   2.027   7.557   7.411  0.2895  0.3703 -1.6972
   28MOL   H36420938   1.813   0.045   7.527 -1.5321 -2.1008 -0.6552
   28MOL   H36520939   1.990   0.063   7.508 -0.7443  0.7315 -0.2817
   28MOL   H36620940   1.970   7.696   0.024  2.7885 -1.9583 -0.2709
   28MOL   H36720941   2.010   7.557   7.648 -1.2584 -1.6334 -1.4387
   28MOL   H36820942   1.939   7.399   0.059 -0.3072 -2.6769 -1.0353
   28MOL   H36920943   1.777   7.337   0.211  2.3228 -0.7348 -0.5935
   28MOL   H37020944   1.654   7.389   0.102  1.2975  0.7327 -2.2681
   28MOL   H37120945   1.836   7.144   0.081  0.3344  1.1050 -0.4470
   28MOL   H37220946   1.657   7.141   0.093  1.4970 -1.2569  2.2380
   28MOL   H37320947   1.741   7.089   7.569 -0.2837 -0.3812  0.9830
   28MOL   H37420948   1.821   7.239   7.561  1.8871 -2.0471  1.6048
   28MOL   H37520949   1.519   7.215   7.571 -0.7390  0.1870 -1.7175
   28MOL   H37620950   1.599   7.377   7.571 -1.3779  0.4168  0.6882
   28MOL   H37720951   1.707   7.298   7.346 -0.4843  0.5868 -0.1582
   28MOL   H37820952   1.599   7.163   7.360 -2.3778  1.0975 -0.6886
   28MOL   H37920953   1.519   7.449   7.345 -1.2158  0.1257  0.5422
   28MOL   H38020954   1.404   7.324   7.362  0.0183 -0.3063 -0.9853
   28MOL   H38120955   1.575   7.366   7.133 -0.2636  2.2147  0.1616
   28MOL   C38220956   1.401   7.260   7.122  0.0712 -0.1563 -0.1886
   28MOL   O38320957   1.311   7.190   7.178  0.3157 -0.1404 -0.3298
   28MOL   C38420958   1.408   7.253   6.973 -0.7620  0.4153  0.2232
   28MOL   C38520959   1.539   7.276   6.899  0.2012  0.6723  1.0546
   28MOL   C38620960   1.552   7.430   6.860  0.6191 -0.0150  0.1992
   28MOL   C38720961   1.678   7.469   6.777 -0.0623  1.1286  0.4826
   28MOL   C38820962   1.693   7.613   6.733 -0.5487  0.4618 -0.3678
   28MOL   O38920963   1.640   7.701   6.801 -0.2649  0.6987  0.5502
   28MOL   N39020964   1.752   7.643   6.618  0.0523  0.1217 -1.0996
   28MOL   C39120965   1.756   0.073   6.566 -0.1473  0.3746 -0.4086
   28MOL   C39220966   1.746   0.064   6.414 -0.3566  0.3164  0.0367
   28MOL   C39320967   1.774   0.198   6.342  0.2501  0.1499  0.8895
   28MOL   C39420968   1.732   0.190   6.188 -0.0781 -0.0752 -0.5330
   28MOL   C39520969   1.753   0.320   6.099 -0.9607 -0.1949 -0.9381
   28MOL   C39620970   1.692   0.335   5.965  0.3752 -0.0735 -1.1265
   28MOL   N39720971   1.703   0.463   5.910  0.1621  0.8075  0.0813
   28MOL   H39820972   1.379   7.152   6.945 -0.7772  1.1302 -2.4966
   28MOL   H39920973   1.328   7.317   6.935  0.0894  0.9654 -0.6786
   28MOL   H40020974   1.625   7.246   6.959  0.6471 -0.7178 -0.2639
   28MOL   H40120975   1.541   7.222   6.804  0.4333 -0.1512  1.5265
   28MOL   H40220976   1.552   7.493   6.949 -1.7379  1.5845 -0.8965
   28MOL   H40320977   1.460   7.448   6.805  0.4710  0.3479  0.5730
   28MOL   H40420978   1.676   7.413   6.684 -2.6363  0.5890  0.8387
   28MOL   H40520979   1.765   7.431   6.831  0.1401 -1.1485 -1.3854
   28MOL   H40620980   1.798   7.562   6.578 -0.2656 -1.2467  1.1787
   28MOL   H40720981   1.669   0.129   6.601 -0.0455 -0.5184  1.3163
   28MOL   H40820982   1.843   0.125   6.605 -0.9197  1.9175 -0.7305
   28MOL   H40920983   1.815   7.695   6.380  0.1536  1.5435 -1.7937
   28MOL   H41020984   1.649   0.019   6.392 -0.7467  1.1275  0.0893
   28MOL   H41120985   1.879   0.219   6.362  0.0644 -0.6916  2.9142
   28MOL   H41220986   1.721   0.282   6.386 -1.4293 -0.0413 -0.6890
   28MOL   H41320987   1.783   0.110   6.135  0.0232 -0.9373  0.8475
   28MOL   H41420988   1.629   0.156   6.179  0.2548 -1.5633  1.0001
   28MOL   H41520989   1.742   0.413   6.154  2.4842 -0.5367  0.4260
   28MOL   H41620990   1.859   0.333   6.081 -0.6060 -1.9013 -0.1984
   28MOL   H41720991   1.584   0.323   5.975  0.1213  1.1803 -2.1717
   28MOL   H41820992   1.727   0.268   5.886 -1.7178  0.3333 -2.4467
   28MOL   H41920993   1.784   0.516   5.939  0.6274  0.3255 -0.3098
   28MOL   C42020994   1.630   0.515   5.812  0.1869 -0.3666 -0.6690
   28MOL   O42120995   1.542   0.444   5.759 -0.0211  0.5578  1.0001
   28MOL   C42220996   1.665   0.658   5.766 -0.0143 -0.1726  0.1917
   28MOL   C42320997   1.743   0.659   5.637  0.6438 -0.5993 -0.3912
   28MOL   C42420998   1.892   0.624   5.646 -0.2707 -0.6165 -0.8153
   28MOL   C42520999   1.923   0.471   5.641  0.3949  0.1144  0.2086
   28MOL   C42621000   1.999   0.413   5.762  0.0743  0.2578  0.3154
   28MOL   O42721001   1.989   0.465   5.872  0.2873 -0.5319  0.6028
   28MOL   N42821002   2.078   0.304   5.738 -0.1275 -0.1507  0.0910
   28MOL   C42921003   2.150   0.225   5.839 -0.1873 -0.1122  0.1059
   28MOL   C43021004   2.079   0.174   5.965  0.8544 -0.5732 -0.5565
   28MOL   C43121005   2.170   0.081   6.048  0.2081  0.4456 -0.1153
   28MOL   C43221006   2.098   0.014   6.167  0.5699  0.3834 -0.5916
   28MOL   C43321007   2.194   7.631   6.254  0.0239  0.1304 -0.2407
   28MOL   C43421008   2.280   0.005   6.348  0.6542  0.3091  0.3235
   28MOL   N43521009   2.352   7.638   6.449  0.6667 -0.1033  0.0429
   28MOL   H43621010   1.572   0.710   5.745  0.6848 -0.2132 -3.2066
   28MOL   H43721011   1.702   0.717   5.850  0.1663  1.2055 -0.8438
   28MOL   H43821012   1.689   0.600   5.563  2.8414 -2.1374 -0.8574
   28MOL   H43921013   1.736   0.760   5.597 -1.3906  0.1421  1.7698
   28MOL   H44021014   1.930   0.667   5.739  0.4817 -0.8808 -0.9959
   28MOL   H44121015   1.932   0.678   5.560  2.0475  2.8140  2.2558
   28MOL   H44221016   1.984   0.458   5.552  1.3021  2.0869  0.5361
   28MOL   H44321017   1.833   0.413   5.621  0.1377  0.4172  0.4851
   28MOL   H44421018   2.066   0.267   5.644  0.7625  3.6359 -1.6000
   28MOL   H44521019   2.205   0.156   5.775 -1.0828 -1.1640  0.4593
   28MOL   H44621020   2.227   0.296   5.869 -0.3311  1.1479 -2.3945
   28MOL   H44721021   2.050   0.256   6.031 -1.4121 -0.9879 -0.9939
   28MOL   H44821022   1.982   0.127   5.949 -0.9874  2.4594  1.2191
   28MOL   H44921023   2.258   0.129   6.090  1.3920 -0.5105 -1.4764
   28MOL   H45021024   2.210   0.002   5.985 -2.6279 -0.6195 -0.6765
   28MOL   H45121025   2.050   0.084   6.236  2.6319  2.5603 -1.3168
   28MOL   H45221026   2.021   7.660   6.122 -0.1108  1.0436 -0.3565
   28MOL   H45321027   2.119   7.560   6.291 -0.4805  0.1430 -1.2201
   28MOL   H45421028   2.255   7.571   6.186 -0.4795 -0.2484 -0.3662
   28MOL   H45521029   2.212   0.055   6.416 -0.2509  0.1255 -0.4336
   28MOL   H45621030   2.344   0.080   6.300  1.5256 -0.4512  0.2882
   28MOL   H45721031   2.301   7.607   6.531 -1.6247 -0.9354 -1.6515
   28MOL   C45821032   2.487   7.616   6.446 -0.7210  0.1896 -0.6997
   28MOL   O45921033   2.566   7.652   6.359 -0.0867  0.2108  0.4750
   28MOL   C46021034   2.547   7.526   6.565  0.1519 -0.0241 -0.0395
   28MOL   C46121035   2.690   7.465   6.535 -0.1955  0.1984  0.1792
   28MOL   C46221036   2.745   7.383   6.655  0.7482 -0.3984  0.1663
   28MOL   C46321037   2.782   7.467   6.781 -0.2720 -0.2993  0.7807
   28MOL   C46421038   2.881   7.398   6.875 -0.2186  0.1390  0.3823
   28MOL   O46521039   2.955   7.310   6.829  0.3072 -0.5890 -0.2222
   28MOL   N46621040   2.885   7.446   7.002  0.3114  0.1106 -0.1311
   28MOL   C46721041   2.978   7.408   7.105 -0.9924 -0.7841 -0.0120
   28MOL   C46821042   2.903   7.409   7.241  0.1905 -0.2574  0.0291
   28MOL   C46921043   2.990   7.408   7.370 -0.7772  0.7382  0.7857
   28MOL   C47021044   3.048   7.548   7.406 -0.8489  0.3727  0.1666
   28MOL   C47121045   3.145   7.559   7.528  0.3247  0.5681 -0.4364
   28MOL   C47221046   3.182   0.002   7.552 -0.4684 -0.4126 -0.2755
   28MOL   N47321047   3.293   0.009   7.640  0.2539  0.4668 -0.4998
   28MOL   H47421048   2.540   7.584   6.657  1.9832  1.3142 -0.7161
   28MOL   H47521049   2.486   7.437   6.571  1.2666 -0.9336 -1.7224
   28MOL   H47621050   2.689   7.410   6.441  0.9874  0.5092 -0.0251
   28MOL   H47721051   2.752   7.552   6.517  1.0443 -0.3601  1.6563
   28MOL   H47821052   2.830   7.327   6.616  1.5896  1.0065 -0.0269
   28MOL   H47921053   2.683   7.297   6.681 -1.4562  0.4441 -2.1634
   28MOL   H48021054   2.689   7.502   6.825 -0.3767 -0.7877  0.9560
   28MOL   H48121055   2.826   7.561   6.748 -5.4846  2.2968  0.8113
   28MOL   H48221056   2.822   7.521   7.024 -1.2345 -0.9186 -0.9842
   28MOL   H48321057   3.022   7.310   7.087  2.1280  0.8908 -2.0672
   28MOL   H48421058   3.064   7.475   7.109 -0.9625 -0.8482  0.4036
   28MOL   H48521059   2.841   7.499   7.234  1.1888  0.5611  1.5446
   28MOL   H48621060   2.842   7.319   7.241  1.2816 -1.0527  2.8150
   28MOL   H48721061   3.072   7.337   7.362 -0.6028  0.8640  1.3863
   28MOL   H48821062   2.936   7.355   7.449 -1.5346  2.0254  1.1449
   28MOL   H48921063   3.094   7.597   7.321  0.7801 -1.0903  0.1682
   28MOL   H49021064   2.961   7.609   7.432 -0.1194  2.0531 -1.3227
   28MOL   H49121065   3.105   7.511   7.617  1.5729 -1.2968 -0.8539
   28MOL   H49221066   3.237   7.509   7.498 -0.2803 -2.7840  2.8502
   28MOL   H49321067   3.092   0.051   7.588 -0.7398  0.9351 -2.6582
   28MOL   H49421068   3.212   0.056   7.462  2.0566  1.0349  1.3569
   28MOL   H49521069   3.274   7.697   0.029  0.7886 -0.2960 -0.5520
   28MOL   C49621070   3.415   0.023   7.594 -0.4123 -0.5448  0.0980
   28MOL   O49721071   3.451   0.013   7.478 -0.8655  0.4740 -0.0741
   28MOL   C49821072   3.518   0.034   0.008  0.2507 -0.9014 -0.1158
   28MOL   C49921073   3.648   0.109   7.676  0.3580  0.1921 -0.5917
   28MOL   C50021074   3.767   0.010   7.662  0.1314 -0.3270  0.1293
   28MOL   C50121075   3.746   7.616   7.547  0.3172  0.0611  0.2324
   28MOL   C50221076   3.752   7.677   7.406  0.4154 -0.8108 -0.3795
   28MOL   O50321077   3.787   0.082   7.389  0.4116 -0.2917 -0.3541
   28MOL   N50421078   3.718   7.598   7.304 -1.0786 -0.6352  0.2644
   28MOL   C50521079   3.690   7.640   7.168  0.1945 -0.3938  0.2080
   28MOL   C50621080   3.556   0.012   7.157 -0.2029 -0.1745  0.1320
   28MOL   C50721081   3.519   0.021   7.011  0.4700  0.3432  0.2027
   28MOL   C50821082   3.396   0.110   7.001 -0.0692  0.3042  0.6165
   28MOL   C50921083   3.258   0.045   7.031 -0.5014 -0.4651 -0.3725
   28MOL   C51021084   3.140   0.136   7.046  0.1305 -0.2448 -0.2862
   28MOL   N51121085   3.130   0.233   6.934 -0.0935  0.3596  0.3081
   28MOL   H51221086   3.469   0.105   0.075 -0.4353 -0.8057 -0.7211
   28MOL   H51321087   3.526   7.651   0.068  0.9242 -0.6494  0.1845
   28MOL   H51421088   3.637   0.156   7.578 -0.2617 -0.0642 -0.6477
   28MOL   H51521089   3.673   0.186   0.041  2.6394 -1.4395  0.3881
   28MOL   H51621090   3.789   7.664   0.046  0.2890  0.2621  0.4415
   28MOL   H51721091   3.855   0.070   7.635  0.6292 -0.4203  1.4966
   28MOL   H51821092   3.650   7.567   7.552 -0.6478  2.0843  2.5499
   28MOL   H51921093   3.826   7.542   7.545  2.9265  2.7821  0.0135
   28MOL   H52021094   3.722   7.497   7.315 -2.5089 -0.6383  0.8209
   28MOL   H52121095   3.762   0.001   7.124 -0.5920  0.0587 -0.3700
   28MOL   H52221096   3.683   7.555   7.100 -0.5134  1.1400 -1.6641
   28MOL   H52321097   3.478   7.674   7.218 -1.7623  2.0150 -0.1500
   28MOL   H52421098   3.570   0.111   7.199 -0.3292  0.1387 -0.5636
   28MOL   H52521099   3.500   7.632   6.964 -2.6047  0.7235  0.5033
   28MOL   H52621100   3.597   0.065   6.949  0.9394 -2.0713 -0.9935
   28MOL   H52721101   3.416   0.193   7.069  1.1621 -0.0025  0.6454
   28MOL   H52821102   3.394   0.147   6.898 -0.0288 -3.6621 -0.8703
   28MOL   H52921103   3.243   7.677   6.955  1.4410  0.9035 -2.1935
   28MOL   H53021104   3.246   7.701   7.126 -0.8199 -0.3376 -0.3418
   28MOL   H53121105   3.152   0.198   7.135  0.0161 -0.5458 -0.0609
   28MOL   H53221106   3.047   0.079   7.044  0.2793 -0.4574 -1.5019
   28MOL   H53321107   3.198   0.221   6.861  1.4196 -1.3234  1.9381
   28MOL   C53421108   3.047   0.341   6.926 -0.2990  0.4072 -0.3753
   28MOL   O53521109   2.959   0.358   7.010 -0.0461  0.1441  0.2493
   28MOL   C53621110   3.055   0.431   6.802 -0.2959  0.3475  0.1137
   28MOL   C53721111   2.918   0.489   6.763  0.0141 -0.0641  0.4562
   28MOL   C53821112   2.914   0.564   6.628 -0.3914  0.1608 -0.4364
   28MOL   C53921113   2.977   0.704   6.636  0.1517  0.3180  0.0519
   28MOL   C54021114   3.123   0.707   6.599  0.1238  0.2110  0.4162
   28MOL   O54121115   3.171   0.637   6.505  0.3060  0.1496  0.2889
   28MOL   N54221116   3.205   0.787   6.665  0.0588 -1.0470 -0.3503
   28MOL   C54321117   3.350   0.791   6.636 -0.2271 -0.2207 -0.1579
   28MOL   C54421118   3.380   0.913   6.552 -0.3171 -0.3872 -0.6282
   28MOL   C54521119   3.524   0.897   6.495 -0.0077  0.3117 -0.4046
   28MOL   C54621120   3.548   1.007   6.391  0.3717  0.4938  0.1348
   28MOL   C54721121   3.604   1.137   6.460  0.2865  0.3498 -0.9810
   28MOL   C54821122   3.629   1.261   6.368 -0.6103  0.0494 -0.1828
   28MOL   N54921123   3.682   1.374   6.443  0.6230 -0.4363 -0.1925
   28MOL   H55021124   3.124   0.510   6.833  0.6298  0.0996 -1.2508
   28MOL   H55121125   3.115   0.394   6.719  1.8768  3.5530  0.1333
   28MOL   H55221126   2.850   0.404   6.770 -0.2765  0.3658  3.4556
   28MOL   H55321127   2.892   0.555   6.845 -1.6210 -1.0047  0.7133
   28MOL   H55421128   2.811   0.569   6.593 -0.1951  1.0306 -0.9184
   28MOL   H55521129   2.964   0.499   6.557 -0.1964 -1.8307  1.4808
   28MOL   H55621130   2.975   0.746   6.737  1.9222  1.4211 -0.3364
   28MOL   H55721131   2.932   0.771   6.563  0.7233  0.3107 -0.3081
   28MOL   H55821132   3.168   0.844   6.740  1.7075 -2.9115  1.9222
   28MOL   H55921133   3.403   0.797   6.731  0.0639 -0.8951 -0.2752
   28MOL   H56021134   3.388   0.698   6.594  0.4805 -1.6492  3.4516
   28MOL   H56121135   3.304   0.903   6.475 -0.1429 -2.2868 -0.5954
   28MOL   H56221136   3.375   0.997   6.621 -0.1407 -2.3360  1.8442
   28MOL   H56321137   3.544   0.798   6.453 -2.2232 -0.6514  0.7381
   28MOL   H56421138   3.597   0.909   6.576  2.1914 -1.6698 -2.0006
   28MOL   H56521139   3.611   0.976   6.307  0.3697 -0.4766  0.4864
   28MOL   H56621140   3.451   1.041   6.353 -0.0172  0.7370  1.3282
   28MOL   H56721141   3.533   1.159   6.540  0.0503  0.5742 -1.2530
   28MOL   H56821142   3.696   1.119   6.515 -1.1369 -2.4356  0.6148
   28MOL   H56921143   3.541   1.289   6.310 -1.7638 -1.8615  0.5982
   28MOL   H57021144   3.704   1.230   6.295 -0.0880  0.2886  0.2523
   28MOL   H57121145   3.710   1.362   6.539 -0.2565 -3.7043 -0.2852
   28MOL   C57221146   3.723   1.490   6.382 -0.6059 -0.6202  0.2794
   28MOL   O57321147   3.698   1.512   6.265 -0.1882 -0.5675 -0.1493
   28MOL   C57421148   3.804   1.588   6.471 -0.1651 -0.3006  0.2090
   28MOL   C57521149   3.871   1.704   6.404  0.0996  0.1244  0.3852
   28MOL   C57621150   3.980   1.666   6.300  0.0383  0.3875 -0.0612
   28MOL   C57721151   4.030   1.796   6.236 -0.2591  0.1360 -0.2443
   28MOL   C57821152   4.133   1.768   6.133  0.2945  0.4110  0.1287
   28MOL   O57921153   4.249   1.750   6.172  0.3230 -0.4336 -0.4038
   28MOL   N58021154   4.099   1.758   6.006 -0.0786  0.0704  0.5365
   28MOL   C58121155   4.199   1.758   5.901  0.4213  0.1193 -0.2483
   28MOL   C58221156   4.263   1.619   5.876 -0.1181  0.1144 -0.8909
   28MOL   C58321157   4.172   1.503   5.842  1.1949 -0.0027 -0.6050
   28MOL   C58421158   4.234   1.372   5.790 -0.4326  0.3236 -0.0507
   28MOL   C58521159   4.139   1.264   5.732 -0.7495 -0.0992  0.1929
   28MOL   C58621160   4.219   1.142   5.680  0.6833 -1.0025 -0.6875
   28MOL   N58721161   4.140   1.072   5.583 -0.2995  0.0409  0.0650
   28MOL   H58821162   3.743   1.614   6.558 -1.3691 -0.9204 -0.4324
   28MOL   H58921163   3.875   1.523   6.521  0.1167  1.7560  2.5676
   28MOL   H59021164   3.792   1.761   6.355  0.8386 -0.2667 -1.3336
   28MOL   H59121165   3.901   1.765   6.489  1.5247  1.9808 -1.3744
   28MOL   H59221166   3.952   1.595   6.222  3.7402 -0.5022 -0.6862
   28MOL   H59321167   4.063   1.611   6.346  0.6611  0.6966 -0.8080
   28MOL   H59421168   4.084   1.859   6.307 -0.1714  0.1006 -0.2796
   28MOL   H59521169   3.953   1.859   6.190 -1.0259 -1.0100 -0.5548
   28MOL   H59621170   4.004   1.759   5.972  0.2243  1.0549 -0.2878
   28MOL   H59721171   4.156   1.797   5.809  2.1631  1.3176 -0.5896
   28MOL   H59821172   4.280   1.827   5.927  0.6944  0.3419 -1.6192
   28MOL   H59921173   4.335   1.623   5.794 -1.6421 -0.8641 -2.3413
   28MOL   H60021174   4.317   1.596   5.967 -0.0365 -1.0953 -1.2365
   28MOL   H60121175   4.098   1.533   5.768 -0.6755  1.4032  1.7829
   28MOL   H60221176   4.116   1.475   5.931 -0.5381 -0.3725 -1.7779
   28MOL   H60321177   4.302   1.411   5.714 -0.5708 -0.9836 -0.8639
   28MOL   H60421178   4.298   1.337   5.870  2.2473  2.0375 -1.3711
   28MOL   H60521179   4.071   1.232   5.811 -0.2687 -0.7591  0.3420
   28MOL   H60621180   4.068   1.311   5.665 -0.4636  1.3529  0.8782
   28MOL   H60721181   4.263   1.080   5.759  1.8504 -0.2456 -0.7270
   28MOL   H60821182   4.305   1.187   5.630  1.2982 -0.2680  0.9931
   28MOL   H60921183   4.040   1.089   5.584 -0.1636  0.8072  0.4086
   28MOL   C61021184   4.181   0.977   5.495  0.0436  0.2356 -0.1322
   28MOL   O61121185   4.300   0.947   5.476  0.1105  0.1956  0.1319
   28MOL   C61221186   4.072   0.918   5.409 -0.5359  0.6050 -0.0262
   28MOL   C61321187   4.124   0.854   5.280  0.2692  0.3250 -0.0787
   28MOL   C61421188   4.015   0.787   5.195  0.1247  0.3211 -0.1312
   28MOL   C61521189   4.063   0.700   5.076 -0.0935  0.0697  0.2532
   28MOL   C61621190   3.959   0.590   5.047  0.1972 -0.3683  0.3462
   28MOL   O61721191   3.837   0.620   5.029  0.3833  0.1200 -1.0387
   28MOL   N61821192   4.012   0.463   5.052  0.3833 -0.0407  0.2648
   28MOL   C61921193   3.942   0.340   5.010 -0.0060 -0.4179  0.2121
   28MOL   C62021194   3.980   0.237   5.117  0.3505  0.1599  0.1254
   28MOL   C62121195   3.895   0.237   5.246 -0.0398  0.6232  0.2048
   28MOL   C62221196   3.927   0.125   5.343  0.4146  0.1058  0.4202
   28MOL   C62321197   3.931   7.689   5.292  0.5839  0.0220 -0.2462
   28MOL   C62421198   3.794   7.624   5.309  0.1956 -0.1169 -0.2604
   28MOL   N62521199   3.690   7.691   5.225  0.2119 -0.3987  0.1614
   28MOL   H62621200   4.012   0.853   5.473 -1.9987  0.0334 -1.9067
   28MOL   H62721201   3.999   0.994   5.379 -2.5270 -0.5232  1.7836
   28MOL   H62821202   4.169   0.936   5.222  2.2394 -0.0712  0.8306
   28MOL   H62921203   4.204   0.781   5.294  0.6639  0.3655 -1.9393
   28MOL   H63021204   3.953   0.861   5.146 -0.7223 -0.3540 -0.0848
   28MOL   H63121205   3.950   0.731   5.262 -0.0081  0.1355 -0.4131
   28MOL   H63221206   4.146   0.652   5.127  1.6028  2.9560  0.2990
   28MOL   H63321207   4.079   0.754   4.982  0.9959  0.9810  0.9399
   28MOL   H63421208   4.109   0.445   5.074  0.8075 -0.1225 -1.5875
   28MOL   H63521209   3.836   0.362   4.998  0.0678  0.5144  1.1073
   28MOL   H63621210   3.986   0.304   4.917 -1.3967 -0.6332 -0.3667
   28MOL   H63721211   3.958   0.142   5.068 -0.5525  1.2040 -1.5504
   28MOL   H63821212   4.088   0.247   5.131  0.1198  1.3405  1.1468
   28MOL   H63921213   3.788   0.235   5.225 -0.3572  1.2699  1.6870
   28MOL   H64021214   3.907   0.332   5.297 -0.1354  0.3071  0.8196
   28MOL   H64121215   4.031   0.143   5.373  0.3502 -1.8604  1.9326
   28MOL   H64221216   3.876   0.135   5.438 -0.3800 -0.0949  0.0188
   28MOL   H64321217   3.955   7.675   5.187 -0.8399 -0.6266 -0.5105
   28MOL   H64421218   3.999   7.635   5.358  0.4350  1.7243  1.3493
   28MOL   H64521219   3.762   7.611   5.413 -0.5982 -0.7749 -0.5816
   28MOL   H64621220   3.807   7.526   5.263  1.6610 -0.9708  1.9052
   28MOL   H64721221   3.688   7.687   5.124 -1.5221  2.4408  0.0337
   28MOL   C64821222   3.573   0.033   5.271 -0.4715  0.5083  0.6884
   28MOL   O64921223   3.551   0.038   5.388  0.2250 -0.0656 -0.3708
   28MOL   C65021224   3.465   0.083   5.175  0.4482  0.1840  0.1950
   28MOL   C65121225   3.341   7.698   5.177 -0.1342 -0.5072  0.4880
   28MOL   C65221226   3.220   0.055   5.123 -0.2049  0.0798 -0.4235
   28MOL   C65321227   3.101   7.663   5.108  0.2527 -0.1542 -0.3200
   28MOL   C65421228   2.962   0.029   5.093 -0.3710  0.1452 -0.5321
   28MOL   O65521229   2.959   0.128   5.022  0.5913  0.2789  0.1091
   28MOL   N65621230   2.866   7.674   5.167  0.6179  0.0443  0.1069
   28MOL   C65721231   2.737   0.025   5.197 -0.3867 -0.3285  0.3064
   28MOL   C65821232   2.626   7.677   5.100  0.7279  0.5112 -0.3056
   28MOL   C65921233   2.654   0.002   4.950 -0.2956 -0.1350  0.5722
   28MOL   C66021234   2.544   7.684   4.854 -0.7761 -0.0529 -0.1142
   28MOL   C66121235   2.585   0.020   4.705  0.2628  0.3806 -0.6542
   28MOL   C66221236   2.707   7.662   4.654 -0.0650  0.6532  0.6818
   28MOL   N66321237   2.690   7.517   4.616 -0.2156 -0.5457 -0.7086
   28MOL   H66421238   3.434   0.182   5.210 -0.8369 -0.0483 -0.2739
   28MOL   H66521239   3.494   0.094   5.070 -0.4040  1.3270  0.0664
   28MOL   H66621240   3.361   7.605   5.123  0.2126 -0.4807  0.5676
   28MOL   H66721241   3.311   7.677   5.280 -2.0077 -0.6659 -0.0783
   28MOL   H66821242   3.234   0.096   5.023  1.4076  3.8379  1.2474
   28MOL   H66921243   3.200   0.146   5.180  1.5500 -0.0151  0.3777
   28MOL   H67021244   3.106   7.609   5.202  2.0448 -0.0113 -0.3231
   28MOL   H67121245   3.109   7.594   5.025 -1.0242  0.3864 -0.9061
   28MOL   H67221246   2.885   7.596   5.228 -0.2824 -0.3895 -0.1571
   28MOL   H67321247   2.702   0.019   5.300  1.4794  1.2438  1.0690
   28MOL   H67421248   2.747   0.129   5.166 -0.7180  0.2854  2.2168
   28MOL   H67521249   2.598   7.574   5.121  0.9916  0.7858  1.4615
   28MOL   H67621250   2.540   0.027   5.134  1.4761  1.7806 -0.5698
   28MOL   H67721251   2.738   7.647   4.920  0.0414  1.6076 -2.2833
   28MOL   H67821252   2.690   0.104   4.940 -2.5917  0.6327 -0.0332
   28MOL   H67921253   2.501   7.585   4.871 -0.5269 -0.4170 -1.5153
   28MOL   H68021254   2.460   0.039   4.885 -0.2377  0.6760 -0.1415
   28MOL   H68121255   2.501   7.708   4.639  0.2344  1.2442 -0.8897
   28MOL   H68221256   2.594   0.128   4.694 -0.5922  0.3518 -1.7504
   28MOL   H68321257   2.789   7.681   4.723  0.6440 -0.2430  0.0966
   28MOL   H68421258   2.747   7.708   4.564 -0.3011 -0.1476  0.1592
   28MOL   H68521259   2.605   7.468   4.639  0.8470 -1.8454  0.5279
   28MOL   C68621260   2.775   7.454   4.533 -0.5808  0.2178 -0.0908
   28MOL   O68721261   2.862   7.513   4.472 -0.1367  0.5650  0.2668
   28MOL   C68821262   2.751   7.304   4.514 -0.4337  0.2248 -1.0465
   28MOL   C68921263   2.883   7.224   4.523  0.3765 -0.3233  0.7603
   28MOL   C69021264   2.961   7.243   4.651 -0.2201  0.2315 -0.8712
   28MOL   C69121265   3.037   7.112   4.689  0.5428  0.7443 -0.3558
   28MOL   C69221266   2.951   7.004   4.749  0.3575 -0.4706 -0.3979
   28MOL   O69321267   2.830   7.004   4.752 -0.5724  0.0325 -0.1102
   28MOL   N69421268   3.017   6.909   4.814 -0.3486 -0.4115  0.1796
   28MOL   C69521269   2.964   6.794   4.880  0.1806  0.4243  0.0132
   28MOL   C69621270   3.077   6.696   4.916  0.0546 -0.9677  0.3143
   28MOL   C69721271   3.036   6.544   4.907  0.3458  0.0530  0.3201
   28MOL   C69821272   3.146   6.458   4.965 -0.1435  0.6294  0.1531
   28MOL   C69921273   3.121   6.311   4.956 -0.5407 -0.2884 -0.4378
   28MOL   C70021274   3.185   6.231   5.067 -0.3378 -0.5650  0.7118
   28MOL   N70121275   3.160   6.090   5.046 -0.0827  0.2362  0.0358
   28MOL   H70221276   2.681   7.262   4.587 -0.0521 -0.9803 -1.3615
   28MOL   H70321277   2.706   7.307   4.415 -0.3477 -1.3503 -1.1463
   28MOL   H70421278   2.843   7.122   4.532 -1.7840  0.3308 -1.0722
   28MOL   H70521279   2.937   7.228   4.429  0.8610  0.8322  1.0817
   28MOL   H70621280   2.887   7.253   4.732 -1.4074 -1.3511 -1.7254
   28MOL   H70721281   3.020   7.333   4.644  0.3493 -0.1134 -0.5320
   28MOL   H70821282   3.116   7.133   4.761 -2.2309  0.1323  2.9969
   28MOL   H70921283   3.081   7.055   4.606 -1.4786 -1.6308  0.1575
   28MOL   H71021284   3.118   6.910   4.810 -0.3377  0.0240  0.5436
   28MOL   H71121285   2.889   6.807   4.958 -0.1563 -0.1876 -0.2080
   28MOL   H71221286   2.903   6.751   4.800  1.0199  0.3444 -0.5869
   28MOL   H71321287   3.169   6.719   4.861 -0.4603  2.4591  0.7841
   28MOL   H71421288   3.100   6.709   5.021  0.8190 -0.8582  0.1362
   28MOL   H71521289   3.012   6.522   4.803  0.5649  0.8653  0.0902
   28MOL   H71621290   2.946   6.541   4.968 -0.5174 -0.3278 -0.9333
   28MOL   H71721291   3.245   6.476   4.923 -1.1054  0.2748 -2.3199
   28MOL   H71821292   3.156   6.479   5.072 -2.5187 -2.0083  0.9590
   28MOL   H71921293   3.013   6.298   4.944 -1.0494  1.4848  1.9586
   28MOL   H72021294   3.158   6.271   4.862 -1.0378  0.4332 -0.9508
   28MOL   H72121295   3.140   6.262   5.162 -2.1751  0.1243 -0.3437
   28MOL   H72221296   3.290   6.259   5.076 -0.7486  0.5837  2.2944
   28MOL   H72321297   3.083   6.043   5.093  1.3269 -0.5943  1.5704
   28MOL   C72421298   3.241   6.007   4.978 -0.3515  0.0240  0.6104
   28MOL   O72521299   3.332   6.057   4.916  0.1370 -0.3159 -0.2611
   28MOL   C72621300   3.213   5.860   4.967  0.1517 -0.1065 -0.9208
   28MOL   C72721301   3.266   5.792   4.834 -0.8992 -0.2548  0.6131
   28MOL   C72821302   3.203   5.657   4.787 -0.5167  0.4115 -0.1888
   28MOL   C72921303   3.265   5.597   4.659  0.5039  0.2835 -0.1405
   28MOL   C73021304   3.411   5.555   4.654 -0.3991  0.7120  0.2291
   28MOL   O73121305   3.458   5.518   4.762 -0.0828  0.3163  0.3583
   28MOL   N73221306   3.476   5.560   4.540  0.0153  0.4331 -0.0328
   28MOL   C73321307   3.607   5.519   4.514  0.2305 -0.4286 -0.1837
   28MOL   C73421308   3.710   5.631   4.535 -0.0941 -0.5476  0.5974
   28MOL   C73521309   3.845   5.598   4.466 -0.0044  0.3687 -0.3325
   28MOL   C73621310   3.962   5.679   4.520 -0.8913  0.0654 -0.5961
   28MOL   C73721311   4.094   5.628   4.470  0.4759  0.2985 -0.5329
   28MOL   C73821312   4.215   5.705   4.515 -1.0535 -0.4764  0.4207
   28MOL   N73921313   4.334   5.668   4.443  0.1062  0.6959 -0.3168
   28MOL   H74021314   3.251   5.816   5.059  2.3608  2.4938 -0.5502
   28MOL   H74121315   3.105   5.844   4.973  0.4397 -1.6593  0.8882
   28MOL   H74221316   3.259   5.860   4.749  1.8358 -0.9196 -0.2014
   28MOL   H74321317   3.374   5.784   4.845 -0.4325  1.2419 -2.2645
   28MOL   H74421318   3.096   5.674   4.770 -0.4352  0.6398 -0.4681
   28MOL   H74521319   3.207   5.580   4.865 -1.0464 -0.8195 -1.3521
   28MOL   H74621320   3.236   5.650   4.568 -0.2140  0.7079  0.3270
   28MOL   H74721321   3.207   5.506   4.640  0.2835  0.4831 -0.4272
   28MOL   H74821322   3.421   5.580   4.458 -0.5189  0.5486  0.3493
   28MOL   H74921323   3.625   5.438   4.585  1.5363 -0.9749 -1.1119
   28MOL   H75021324   3.614   5.484   4.411  1.0901  1.3634 -0.7495
   28MOL   H75121325   3.674   5.725   4.492  2.8543  0.8687  1.1470
   28MOL   H75221326   3.713   5.650   4.642 -0.1756 -2.5844  0.9792
   28MOL   H75321327   3.841   5.609   4.357  0.7206 -0.0939 -0.4142
   28MOL   H75421328   3.866   5.491   4.469  0.2048  0.4417  0.9447
   28MOL   H75521329   3.952   5.782   4.489 -1.2910  1.2735  3.2464
   28MOL   H75621330   3.967   5.673   4.629  0.8539 -2.0498 -0.7597
   28MOL   H75721331   4.097   5.528   4.512 -0.4081  0.7346  0.6101
   28MOL   H75821332   4.085   5.633   4.362  1.1894 -1.8324 -0.7036
   28MOL   H75921333   4.234   5.673   4.618 -1.4939 -2.6152 -0.1378
   28MOL   H76021334   4.197   5.812   4.503  0.5448 -0.3848 -1.3662
   28MOL   H76121335   4.348   5.569   4.448 -0.3368  0.5415 -1.9024
   28MOL   H76221336   4.311   5.689   4.346 -1.0040  0.2766 -0.1538
   29MOL     C121337   2.225   5.963   2.901  0.1942 -0.1527 -0.0277
   29MOL     O221338   2.192   5.847   2.918  0.1627  0.0222 -0.3709
   29MOL     C321339   2.352   6.004   2.823 -0.8052  0.4598  0.5167
   29MOL     C421340   2.442   5.895   2.769  0.3772 -1.0361 -0.5259
   29MOL     C521341   2.381   5.786   2.685 -0.1657 -0.7040  0.2550
   29MOL     C621342   2.459   5.734   2.558 -0.2350 -0.0979  0.1303
   29MOL     C721343   2.450   5.816   2.424 -0.0931 -0.0032 -0.8747
   29MOL     O821344   2.463   5.940   2.423  0.4138 -0.1682  0.0540
   29MOL     N921345   2.428   5.753   2.307  0.2731  0.5024 -0.2990
   29MOL    C1021346   2.386   5.811   2.182 -0.6544  0.2287  0.6295
   29MOL    C1121347   2.477   5.783   2.062  0.0755 -0.2114 -0.1992
   29MOL    C1221348   2.634   5.801   2.096 -0.4780  0.2621  0.5412
   29MOL    C1321349   2.663   5.953   2.120  0.3324 -0.7203 -0.7794
   29MOL    C1421350   2.808   5.966   2.164 -0.7736  0.3293  0.1674
   29MOL    C1521351   2.852   6.112   2.176 -0.1848 -1.2644 -0.3322
   29MOL    N1621352   2.986   6.131   2.229 -0.4661  0.0263  0.1008
   29MOL    H1721353   2.318   6.068   2.742  0.1856 -1.9111 -1.8267
   29MOL    H1821354   2.405   6.068   2.893 -1.7689  0.1348  1.5634
   29MOL    H1921355   2.516   5.949   2.709 -0.6216 -0.6534 -1.4404
   29MOL    H2021356   2.486   5.861   2.862  2.6278 -0.9541 -1.5220
   29MOL    H2121357   2.293   5.838   2.645 -0.8922 -1.8551  0.3381
   29MOL    H2221358   2.365   5.700   2.749  2.0322 -1.4215 -0.1277
   29MOL    H2321359   2.424   5.631   2.544 -1.6098  0.4430 -0.4448
   29MOL    H2421360   2.563   5.716   2.587 -0.2765 -1.5338 -0.5326
   29MOL    H2521361   2.440   5.653   2.312  1.7923  0.5874 -1.7399
   29MOL    H2621362   2.281   5.792   2.158 -0.0409 -1.4867 -0.8287
   29MOL    H2721363   2.395   5.920   2.186  1.6666  0.1352 -0.9606
   29MOL    H2821364   2.468   5.677   2.040 -0.8752 -0.1326 -0.2267
   29MOL    H2921365   2.443   5.834   1.972  2.0467  1.0552 -0.2553
   29MOL    H3021366   2.670   5.757   2.004 -0.8747  1.8423 -0.3903
   29MOL    H3121367   2.665   5.738   2.179  0.2255  0.7218  0.6343
   29MOL    H3221368   2.637   6.014   2.034  0.4258  2.5222  1.4336
   29MOL    H3321369   2.610   5.994   2.206  1.5978 -3.0688  1.1984
   29MOL    H3421370   2.820   5.916   2.260  0.1572 -2.1656 -1.1970
   29MOL    H3521371   2.884   5.928   2.096 -0.0792  0.0496  1.0999
   29MOL    H3621372   2.794   6.176   2.242  1.0872 -1.3935  0.9483
   29MOL    H3721373   2.852   6.151   2.075  1.8752 -1.7055 -0.5165
   29MOL    H3821374   3.053   6.164   2.160 -0.3637 -0.0547  0.1615
   29MOL    H3921375   2.172   6.048   2.945 -1.3759 -0.2949 -1.5759
   29MOL    C4021376   3.022   6.096   2.354  0.1216  0.5279 -0.4271
   29MOL    O4121377   2.948   6.031   2.424  0.7931  0.5461  0.5310
   29MOL    C4221378   3.167   6.128   2.396  1.0150 -0.4000 -0.1516
   29MOL    C4321379   3.167   6.154   2.547 -0.3508 -0.9145 -0.5787
   29MOL    C4421380   3.120   6.296   2.592 -0.1200 -0.4115 -0.4439
   29MOL    C4521381   3.149   6.311   2.747  0.3233  0.0478 -0.5810
   29MOL    C4621382   3.309   6.329   2.770 -0.1311  0.0029  0.3004
   29MOL    O4721383   3.351   6.435   2.729 -0.4387 -0.4847  0.1540
   29MOL    N4821384   3.383   6.243   2.842  0.1487 -0.1539 -0.2598
   29MOL    C4921385   3.522   6.255   2.879 -0.3520 -0.4782  0.2934
   29MOL    C5021386   3.541   6.383   2.960 -0.0770 -0.1353 -0.2093
   29MOL    C5121387   3.677   6.379   3.036 -0.4209  0.4568  0.0618
   29MOL    C5221388   3.707   6.502   3.127 -1.3567  0.3475 -0.5972
   29MOL    C5321389   3.848   6.525   3.172  0.3618 -0.1247 -0.6017
   29MOL    C5421390   3.872   6.667   3.236  0.1281  0.2800  0.2503
   29MOL    N5521391   4.013   6.691   3.260  0.6306 -0.2126 -0.3277
   29MOL    H5621392   3.236   6.046   2.376 -0.2545 -1.4696 -0.2100
   29MOL    H5721393   3.206   6.213   2.340  2.2362  0.4775  1.9981
   29MOL    H5821394   3.121   6.077   2.609  1.8704  0.1460  2.5122
   29MOL    H5921395   3.273   6.161   2.573 -0.2252 -0.6798 -1.1360
   29MOL    H6021396   3.012   6.305   2.580 -0.1323 -1.7697 -1.5176
   29MOL    H6121397   3.159   6.379   2.532  1.7970  0.1907  1.5709
   29MOL    H6221398   3.123   6.215   2.793  2.8014 -0.2907  0.2079
   29MOL    H6321399   3.093   6.394   2.790 -0.4114 -1.8183  2.2555
   29MOL    H6421400   3.336   6.170   2.894  0.1358  0.3398  0.4212
   29MOL    H6521401   3.540   6.171   2.945 -1.2116 -0.5766  0.4061
   29MOL    H6621402   3.592   6.246   2.796 -0.5809 -0.8638  0.1410
   29MOL    H6721403   3.542   6.465   2.889 -2.0251  0.0031 -0.0984
   29MOL    H6821404   3.462   6.376   3.035 -0.6429 -2.9645 -0.9851
   29MOL    H6921405   3.755   6.353   2.964 -0.4767 -2.0118  0.8542
   29MOL    H7021406   3.681   6.290   3.098 -0.5543  0.1845 -0.3250
   29MOL    H7121407   3.691   6.601   3.084  0.0250  1.3520  1.1118
   29MOL    H7221408   3.643   6.498   3.215 -0.8279 -0.4468 -0.2413
   29MOL    H7321409   3.878   6.450   3.244  1.4314  0.3864 -0.5146
   29MOL    H7421410   3.914   6.498   3.090  1.2090 -0.3659  0.1513
   29MOL    H7521411   3.823   6.688   3.331  0.1055 -0.2989  0.3697
   29MOL    H7621412   3.834   6.739   3.164  1.3346 -0.1280 -0.8086
   29MOL    H7721413   4.040   6.672   3.355 -0.1612  0.0106 -0.0575
   29MOL    C7821414   4.097   6.717   3.163  0.2892  0.5813 -0.3979
   29MOL    O7921415   4.060   6.733   3.050 -0.3022  0.0560  0.3429
   29MOL    C8021416   4.237   6.738   3.200  0.6825  0.0956  0.1942
   29MOL    C8121417   4.334   6.639   3.130 -0.1120 -0.0690 -0.0686
   29MOL    C8221418   4.320   6.507   3.210 -0.4700 -0.2599  1.3163
   29MOL    C8321419   4.407   6.393   3.150  0.6544 -0.2039 -0.6696
   29MOL    C8421420   4.336   6.314   3.043  0.2141  0.2335  0.9937
   29MOL    O8521421   4.224   6.341   3.000 -0.1271  1.0370 -0.5963
   29MOL    N8621422   4.395   6.202   2.997 -0.0713  0.0758  0.5591
   29MOL    C8721423   4.343   6.123   2.886 -0.0825 -0.5004  0.4740
   29MOL    C8821424   4.426   5.997   2.858  0.1288  0.6573  0.3963
   29MOL    C8921425   4.447   5.927   2.994 -0.8601  0.8124 -0.0263
   29MOL    C9021426   4.496   5.780   2.989  0.3659 -0.0115 -0.4071
   29MOL    C9121427   4.505   5.730   3.126 -0.6518 -0.1242 -0.4382
   29MOL    C9221428   4.513   5.581   3.136 -0.1102 -0.2531 -0.0559
   29MOL    N9321429   4.553   5.552   3.277 -0.0814 -0.5659  0.1584
   29MOL    H9421430   4.266   6.833   3.158  1.0037 -1.2572 -2.7312
   29MOL    H9521431   4.245   6.747   3.309  1.9014  1.2478  0.0200
   29MOL    H9621432   4.316   6.627   3.023  2.2359 -0.0836 -0.4935
   29MOL    H9721433   4.436   6.678   3.132 -1.1213  2.9993 -3.2381
   29MOL    H9821434   4.217   6.474   3.214 -0.4687 -0.5744 -0.8034
   29MOL    H9921435   4.360   6.527   3.310 -0.5864  1.4758  1.0285
   29MOL   H10021436   4.429   6.335   3.240 -0.4866 -1.1125 -0.9571
   29MOL   H10121437   4.500   6.434   3.111  0.8926  0.3071  0.4070
   29MOL   H10221438   4.484   6.173   3.033 -0.0128 -0.2605  0.1367
   29MOL   H10321439   4.238   6.096   2.903 -0.1639 -0.2541  0.3593
   29MOL   H10421440   4.332   6.189   2.800  1.7942 -1.9021 -0.8788
   29MOL   H10521441   4.382   5.951   2.770  2.5294  0.1684 -0.5895
   29MOL   H10621442   4.527   6.007   2.816  0.3122 -1.7157  0.2245
   29MOL   H10721443   4.349   5.932   3.040 -0.3511 -1.1282  1.3026
   29MOL   H10821444   4.509   5.990   3.058  0.0941 -0.6545  0.5105
   29MOL   H10921445   4.413   5.728   2.941 -1.9760  0.8368  2.5813
   29MOL   H11021446   4.592   5.755   2.942 -0.0805 -0.4317 -1.0994
   29MOL   H11121447   4.586   5.774   3.184 -0.3588  0.9132 -1.6229
   29MOL   H11221448   4.419   5.748   3.190  1.5736 -0.9140  2.9189
   29MOL   H11321449   4.581   5.539   3.062 -1.8186  1.0094 -2.4189
   29MOL   H11421450   4.411   5.550   3.116 -0.2252  1.1822 -1.8682
   29MOL   H11521451   4.480   5.573   3.343  0.3300 -0.3377  0.5420
   29MOL   C11621452   4.673   5.513   3.320  0.1885  0.2984 -0.8875
   29MOL   O11721453   4.769   5.519   3.245 -0.0635 -0.3222  0.0250
   29MOL   C11821454   4.687   5.477   3.463 -0.2176  0.0398 -0.0738
   29MOL   C11921455   4.735   5.335   3.485 -0.5313 -0.2860  0.1161
   29MOL   C12021456   4.647   5.218   3.446 -0.3467  0.3597  0.4999
   29MOL   C12121457   4.526   5.193   3.536 -0.6249  0.4364  0.4499
   29MOL   C12221458   4.459   5.057   3.501  0.4094  0.2236 -0.1048
   29MOL   O12321459   4.516   4.956   3.459  0.0307  0.1775  0.3044
   29MOL   N12421460   4.332   5.057   3.528 -0.2009 -0.3826  0.0375
   29MOL   C12521461   4.234   4.947   3.525  0.0996  0.0723  0.3412
   29MOL   C12621462   4.147   4.979   3.400  0.7573  0.1443 -0.7476
   29MOL   C12721463   4.048   4.860   3.370  0.5249 -0.0974  0.4345
   29MOL   C12821464   3.963   4.872   3.246  0.5392  0.4630 -0.1603
   29MOL   C12921465   3.840   4.779   3.246 -0.0196 -0.0369  0.1553
   29MOL   C13021466   3.744   4.793   3.119  0.4637  0.3478  0.0984
   29MOL   N13121467   3.631   4.699   3.118 -0.7826  0.5280  0.1438
   29MOL   H13221468   4.741   5.552   3.521 -1.0389  0.0658  0.6523
   29MOL   H13321469   4.592   5.489   3.514  0.5181  2.5343  0.7914
   29MOL   H13421470   4.829   5.329   3.431 -0.9305  0.0794 -0.6244
   29MOL   H13521471   4.763   5.323   3.590  2.2436 -2.1505 -0.7843
   29MOL   H13621472   4.707   5.127   3.455 -0.2420  0.5700  2.2866
   29MOL   H13721473   4.622   5.217   3.340 -2.0483 -1.5495  0.8926
   29MOL   H13821474   4.451   5.272   3.536 -1.2847 -0.1846  0.6269
   29MOL   H13921475   4.553   5.191   3.641 -0.4483 -2.7436  0.3941
   29MOL   H14021476   4.296   5.143   3.566  0.0650 -0.7850  1.2481
   29MOL   H14121477   4.287   4.854   3.507  0.4516  0.0558  1.4234
   29MOL   H14221478   4.180   4.931   3.618  2.1406 -2.3328  1.1537
   29MOL   H14321479   4.088   5.070   3.407 -0.8534 -0.8616 -1.0287
   29MOL   H14421480   4.213   4.980   3.312  0.1565 -2.8930 -1.2897
   29MOL   H14521481   3.983   4.838   3.454  1.6729 -0.7275  1.1892
   29MOL   H14621482   4.100   4.765   3.355 -1.1825 -0.8502 -0.7648
   29MOL   H14721483   3.934   4.977   3.242  2.5146  1.0196 -0.4250
   29MOL   H14821484   4.023   4.854   3.157  0.9631 -0.0091  0.2198
   29MOL   H14921485   3.894   4.684   3.245  0.8636  0.4711 -0.8134
   29MOL   H15021486   3.789   4.798   3.341 -0.8420  0.9379 -0.4685
   29MOL   H15121487   3.803   4.780   3.029  0.6192 -0.2666  0.2840
   29MOL   H15221488   3.703   4.893   3.110 -0.3095  0.2305  2.0065
   29MOL   H15321489   3.622   4.630   3.191 -2.8305  0.6335  0.0231
   29MOL   C15421490   3.534   4.697   3.028 -0.3346  0.0356 -0.4900
   29MOL   O15521491   3.525   4.758   2.921 -0.3271 -0.6183 -0.5757
   29MOL   C15621492   3.410   4.603   3.059  0.9242 -0.8884  0.3319
   29MOL   C15721493   3.345   4.537   2.939 -0.5701 -0.3447  0.2729
   29MOL   C15821494   3.258   4.412   2.969 -0.0961 -0.5173 -0.2264
   29MOL   C15921495   3.115   4.455   3.002 -0.4047  0.3869  0.6885
   29MOL   C16021496   3.029   4.486   2.876 -0.1723 -0.4689 -0.1059
   29MOL   O16121497   3.079   4.539   2.775 -0.3035  0.0959  0.9778
   29MOL   N16221498   2.901   4.452   2.874  0.1551 -0.4679 -0.1719
   29MOL   C16321499   2.819   4.462   2.758 -0.0025 -0.0557  0.3179
   29MOL   C16421500   2.672   4.434   2.802  0.0880 -0.3737  0.0943
   29MOL   C16521501   2.576   4.420   2.675 -0.4254  0.0342  0.3809
   29MOL   C16621502   2.555   4.553   2.606 -0.1821 -0.4833  0.1193
   29MOL   C16721503   2.472   4.541   2.474  0.4810  0.0522 -0.3462
   29MOL   C16821504   2.527   4.450   2.362  0.0247  0.3972  0.3820
   29MOL   N16921505   2.674   4.446   2.355 -0.5142 -0.2766  0.0602
   29MOL   H17021506   3.434   4.517   3.122  1.7212 -0.8005  0.1630
   29MOL   H17121507   3.336   4.658   3.116  0.5056 -0.2597 -0.8228
   29MOL   H17221508   3.289   4.608   2.878 -0.3905 -1.1111 -0.8065
   29MOL   H17321509   3.423   4.512   2.867 -0.5580  0.0460  0.1505
   29MOL   H17421510   3.310   4.342   3.036  0.4128 -0.1615 -0.2433
   29MOL   H17521511   3.256   4.357   2.875 -0.4028  0.2207 -0.6462
   29MOL   H17621512   3.117   4.539   3.071 -2.8717  2.3425 -1.5237
   29MOL   H17721513   3.068   4.377   3.062  2.8589  0.4508  3.4815
   29MOL   H17821514   2.870   4.398   2.953  1.0721 -1.6167 -0.5915
   29MOL   H17921515   2.822   4.563   2.717 -1.3389  0.4520  1.4262
   29MOL   H18021516   2.844   4.389   2.681 -0.1105 -0.1388  0.3607
   29MOL   H18121517   2.669   4.338   2.854  1.2125 -0.2880  0.3437
   29MOL   H18221518   2.628   4.517   2.858  0.8741 -0.4102  0.7771
   29MOL   H18321519   2.472   4.395   2.695 -0.1649 -2.5267 -1.1888
   29MOL   H18421520   2.619   4.346   2.607  0.5089 -0.7669  1.8346
   29MOL   H18521521   2.513   4.629   2.671  2.5615  1.2542 -0.0512
   29MOL   H18621522   2.652   4.588   2.571 -0.6135  0.9654  0.3608
   29MOL   H18721523   2.370   4.512   2.502  0.6596 -1.0691 -0.8457
   29MOL   H18821524   2.456   4.644   2.441 -0.2805  0.6906  1.8604
   29MOL   H18921525   2.489   4.476   2.263  1.7043  2.9242  0.3394
   29MOL   H19021526   2.505   4.348   2.392 -1.2503  1.1419  2.1082
   29MOL   H19121527   2.726   4.388   2.419  0.7915  0.0111 -0.7127
   29MOL   C19221528   2.751   4.510   2.270  0.4628  0.3050  0.1664
   29MOL   O19321529   2.705   4.601   2.204 -0.0994 -0.8374 -0.2500
   29MOL   C19421530   2.892   4.462   2.248 -0.2437 -0.1261 -0.2929
   29MOL   C19521531   2.935   4.417   2.102 -0.6351 -0.2271  0.0230
   29MOL   C19621532   2.975   4.537   2.019 -0.1249  0.2001 -0.3025
   29MOL   C19721533   2.992   4.518   1.869 -0.4051 -0.4894 -0.4317
   29MOL   C19821534   3.025   4.645   1.783  0.4939 -0.4042 -0.3827
   29MOL   O19921535   3.114   4.723   1.816  0.4662  0.4653 -0.3971
   29MOL   N20021536   2.941   4.671   1.679 -0.1789  0.0375 -0.4240
   29MOL   C20121537   2.928   4.802   1.609 -0.3209 -0.7049  0.0545
   29MOL   C20221538   2.846   4.789   1.479  0.0298 -0.0286  0.6344
   29MOL   C20321539   2.874   4.910   1.382 -0.1049 -0.0148 -0.2879
   29MOL   C20421540   2.774   4.904   1.267  0.6518 -0.5454 -0.0620
   29MOL   C20521541   2.763   5.031   1.190 -0.6037 -0.3900 -0.5640
   29MOL   C20621542   2.668   5.021   1.066 -0.3633 -0.7941 -0.4679
   29MOL   N20721543   2.652   5.146   1.002  0.0576 -0.0290 -0.1608
   29MOL   H20821544   2.960   4.541   2.279  0.9189 -1.2094 -0.0614
   29MOL   H20921545   2.906   4.382   2.321  0.0114  0.6976  0.5626
   29MOL   H21021546   3.019   4.351   2.124  0.7278  1.7918  1.0900
   29MOL   H21121547   2.851   4.365   2.056 -0.8012 -0.3241  0.4324
   29MOL   H21221548   3.071   4.570   2.058 -0.0760 -0.5842  0.2457
   29MOL   H21321549   2.907   4.622   2.027 -0.1438  0.1737 -0.1797
   29MOL   H21421550   2.910   4.460   1.826 -0.4641  0.7680 -2.0893
   29MOL   H21521551   3.076   4.450   1.860 -0.2967 -0.6949  1.9499
   29MOL   H21621552   2.862   4.609   1.665  0.2822 -0.1381 -2.2730
   29MOL   H21721553   2.887   4.885   1.666 -0.9822 -0.1759 -1.1598
   29MOL   H21821554   3.028   4.832   1.579 -0.9136  0.5470 -0.7221
   29MOL   H21921555   2.862   4.697   1.423  0.9999  0.8725 -0.5965
   29MOL   H22021556   2.740   4.791   1.502 -0.8724  0.9156 -3.2128
   29MOL   H22121557   2.971   4.909   1.333  0.4902 -0.9782  0.8532
   29MOL   H22221558   2.861   5.001   1.440 -2.5761 -0.4238 -0.1616
   29MOL   H22321559   2.807   4.826   1.199 -2.0308 -1.0482 -0.8258
   29MOL   H22421560   2.677   4.874   1.307  0.2757  1.3182  0.4854
   29MOL   H22521561   2.728   5.113   1.254  1.6417 -0.9773  1.5017
   29MOL   H22621562   2.865   5.051   1.158 -0.5753 -0.3023 -0.4198
   29MOL   H22721563   2.574   4.985   1.109 -0.7172  1.2922  0.5616
   29MOL   H22821564   2.695   4.950   0.987 -1.8081  0.1998 -1.8919
   29MOL   H22921565   2.627   5.225   1.059  0.6978 -0.6738  1.0140
   29MOL   C23021566   2.654   5.172   0.871 -0.0203 -0.7985 -0.2882
   29MOL   O23121567   2.650   5.093   0.779 -0.0422 -0.3124 -0.3332
   29MOL   C23221568   2.655   5.321   0.825 -0.6070 -0.8439  0.0412
   29MOL   C23321569   2.782   5.342   0.740 -0.0078 -0.2486  0.3431
   29MOL   C23421570   2.800   5.496   0.723 -0.0835  0.4725  0.1357
   29MOL   C23521571   2.920   5.527   0.626 -0.3303 -0.8164 -0.2469
   29MOL   C23621572   2.961   5.676   0.624  0.4265  0.0538  0.8630
   29MOL   O23721573   2.887   5.753   0.687 -0.0969 -0.7940  0.5804
   29MOL   N23821574   3.068   5.729   0.556  0.9578  0.3309 -0.5037
   29MOL   C23921575   3.100   5.874   0.550  0.2567  0.3259 -0.6626
   29MOL   C24021576   3.032   5.938   0.426  0.1831  0.2404  0.3028
   29MOL   C24121577   3.093   6.069   0.386 -0.0315  0.6296 -0.0389
   29MOL   C24221578   3.077   6.095   0.232 -0.4159 -0.5086  0.0146
   29MOL   C24321579   3.186   6.188   0.180  0.7767 -0.4960 -0.0392
   29MOL   C24421580   3.177   6.194   0.026  0.5894  0.1276 -0.1990
   29MOL   N24521581   3.299   6.265   7.691  0.5140  0.2959  0.2083
   29MOL   H24621582   2.561   5.355   0.781 -1.7349 -1.3304  2.0030
   29MOL   H24721583   2.682   5.381   0.911  1.4130  0.8624 -1.7281
   29MOL   H24821584   2.868   5.287   0.779 -0.0137 -1.5418 -1.3994
   29MOL   H24921585   2.771   5.307   0.638 -0.5800 -0.5969  0.5231
   29MOL   H25021586   2.828   5.549   0.814  3.4438  0.5989 -0.9581
   29MOL   H25121587   2.715   5.551   0.683 -1.6482 -2.5779 -0.8943
   29MOL   H25221588   2.907   5.489   0.524 -0.7843 -0.2412 -0.4023
   29MOL   H25321589   3.003   5.470   0.668 -1.5889 -2.1536  0.4709
   29MOL   H25421590   3.117   5.669   0.492  1.3163  0.6378 -0.5147
   29MOL   H25521591   3.059   5.926   0.637  1.9317  2.1590 -0.9517
   29MOL   H25621592   3.208   5.887   0.554  0.8439 -4.0537  0.1987
   29MOL   H25721593   3.051   5.877   0.338  2.3177 -0.0754  0.9528
   29MOL   H25821594   2.924   5.939   0.441  0.0161 -1.1342 -0.6710
   29MOL   H25921595   3.199   6.050   0.402 -0.1709 -1.3073 -1.2077
   29MOL   H26021596   3.063   6.154   0.447  0.8955  0.8735  0.0761
   29MOL   H26121597   3.082   6.006   0.170  2.1310  0.4467 -1.2385
   29MOL   H26221598   2.984   6.145   0.205 -0.2703 -1.6864 -2.8366
   29MOL   H26321599   3.168   6.286   0.226  1.5310 -0.9037  1.1462
   29MOL   H26421600   3.286   6.158   0.213  0.4009  1.7025  3.4752
   29MOL   H26521601   3.096   6.252   7.691  0.8756 -0.4319 -1.5276
   29MOL   H26621602   3.169   6.101   7.677 -1.6500  0.6823 -0.8302
   29MOL   H26721603   3.328   6.352   0.024  1.5386  0.2253 -0.3567
   29MOL   C26821604   3.381   6.214   7.603  0.3498 -0.6094  0.3609
   29MOL   O26921605   3.360   6.102   7.552  0.5181  0.7081 -0.1499
   29MOL   C27021606   3.501   6.303   7.562  0.3381 -0.0855  0.5053
   29MOL   C27121607   3.617   6.215   7.505  0.7206 -0.0991 -0.4194
   29MOL   C27221608   3.691   6.130   7.605  0.2872  0.0621  0.9511
   29MOL   C27321609   3.787   6.030   7.549 -0.0938  0.2362  0.1537
   29MOL   C27421610   3.824   5.915   7.648 -0.4636 -0.5904  0.1716
   29MOL   O27521611   3.832   5.936   0.062 -0.1440  0.1796  0.0924
   29MOL   N27621612   3.851   5.791   7.589  0.1246  0.1316 -0.0949
   29MOL   C27721613   3.902   5.690   7.678 -0.2742  0.3983  0.1448
   29MOL   C27821614   3.974   5.584   7.590 -0.5751  0.1142  0.2358
   29MOL   C27921615   4.071   5.634   7.476 -0.0763 -0.2399  0.9843
   29MOL   C28021616   4.151   5.528   7.410  0.3718  0.0293 -0.0205
   29MOL   C28121617   4.238   5.584   7.302  0.6229 -0.3898 -0.6079
   29MOL   C28221618   4.310   5.472   7.223 -0.7113 -0.1607 -0.2244
   29MOL   N28321619   4.384   5.528   7.109 -0.4268  0.0483  1.0729
   29MOL   H28421620   3.460   6.376   7.492  1.9333 -0.9955 -1.4311
   29MOL   H28521621   3.525   6.360   7.651  3.3603  0.4716 -0.6158
   29MOL   H28621622   3.588   6.159   7.416 -3.6216  0.3254  0.6325
   29MOL   H28721623   3.701   6.272   7.465  1.0889  0.1732  0.7205
   29MOL   H28821624   3.619   6.065   7.655 -2.2574  1.3654 -0.8913
   29MOL   H28921625   3.727   6.199   7.681  1.5378 -2.5392  2.7968
   29MOL   H29021626   3.881   6.070   7.509  2.2030 -3.8842  1.1033
   29MOL   H29121627   3.746   5.977   7.462 -2.2061 -1.0860  1.9165
   29MOL   H29221628   3.850   5.795   7.488 -0.7506 -0.6763 -0.1201
   29MOL   H29321629   3.968   5.728   0.048 -0.5818  0.6016  0.3045
   29MOL   H29421630   3.817   5.638   0.015  0.6136  0.3273  1.7922
   29MOL   H29521631   4.041   5.524   7.652  1.1943  0.4794 -1.2887
   29MOL   H29621632   3.893   5.523   7.550  0.7114 -0.3244 -1.7481
   29MOL   H29721633   4.142   5.696   7.530  0.9674  0.2645 -0.9068
   29MOL   H29821634   4.009   5.683   7.401  0.5435 -1.8245 -0.6048
   29MOL   H29921635   4.214   5.486   7.488  0.4530 -1.6412 -0.9400
   29MOL   H30021636   4.078   5.457   7.370  0.4746 -0.1634  0.1341
   29MOL   H30121637   4.175   5.645   7.238 -0.8058 -1.7362 -0.5228
   29MOL   H30221638   4.305   5.645   7.362  0.0129 -1.5674  1.3486
   29MOL   H30321639   4.231   5.401   7.196  1.0568 -1.4141 -2.2952
   29MOL   H30421640   4.380   5.413   7.283  0.6232  0.6945 -0.9161
   29MOL   H30521641   4.466   5.580   7.135  0.3858 -1.1327  0.9146
   29MOL   C30621642   4.352   5.527   6.981  0.2872 -0.4063 -0.1583
   29MOL   O30721643   4.254   5.458   6.938  0.2592 -0.1184  0.2867
   29MOL   C30821644   4.439   5.608   6.886 -0.7264 -0.2419  0.2819
   29MOL   C30921645   4.496   5.518   6.768 -0.0190  0.2957 -0.2154
   29MOL   C31021646   4.644   5.549   6.719  0.8719  0.3700  0.4845
   29MOL   C31121647   4.660   5.676   6.645  0.6237 -0.3942 -0.1502
   29MOL   C31221648   4.807   5.712   6.628 -0.2443 -0.2771  0.5788
   29MOL   O31321649   4.891   5.624   6.605  0.2063 -0.2353 -0.2368
   29MOL   N31421650   4.839   5.835   6.660  0.0671  0.5338 -0.2521
   29MOL   C31521651   4.973   5.881   6.673 -0.0882 -0.4461  0.3185
   29MOL   C31621652   5.026   5.948   6.543 -0.1818 -0.1630 -0.5334
   29MOL   C31721653   5.172   5.983   6.585 -0.2754  0.2049  0.5523
   29MOL   C31821654   5.252   6.056   6.466  0.2749 -0.2962 -0.7762
   29MOL   C31921655   5.276   5.971   6.336 -0.1727 -0.5201 -0.4271
   29MOL   C32021656   5.365   6.045   6.232  0.6426 -0.4032 -0.2607
   29MOL   N32121657   5.354   5.982   6.091  0.8548  0.0270 -0.1230
   29MOL   H32221658   4.379   5.682   6.833 -1.5745 -1.2846 -0.2316
   29MOL   H32321659   4.518   5.660   6.941 -1.1449  1.3466 -0.6173
   29MOL   H32421660   4.494   5.414   6.799  0.0378  1.0006  2.2998
   29MOL   H32521661   4.433   5.522   6.679  2.1888 -1.6146 -1.9169
   29MOL   H32621662   4.682   5.472   6.652  1.2503  0.1703  0.9291
   29MOL   H32721663   4.704   5.547   6.810 -0.0881 -0.6118  1.1078
   29MOL   H32821664   4.610   5.758   6.698 -1.7622 -1.4551 -0.7160
   29MOL   H32921665   4.608   5.668   6.550  1.1609 -1.4127 -0.3677
   29MOL   H33021666   4.770   5.894   6.705  2.8742  2.1364  2.1254
   29MOL   H33121667   4.974   5.955   6.752  0.9913 -0.5376  0.4037
   29MOL   H33221668   5.046   5.802   6.691  1.3498  0.5353 -1.0592
   29MOL   H33321669   5.029   5.862   6.476 -1.3214 -1.6827  1.3334
   29MOL   H33421670   4.965   6.028   6.501  0.6146 -0.9274 -3.2392
   29MOL   H33521671   5.227   5.894   6.616  0.3739 -0.2465 -1.8504
   29MOL   H33621672   5.170   6.054   6.668  1.9203 -2.8440  3.3499
   29MOL   H33721673   5.200   6.151   6.451  1.0278  0.5146  1.5107
   29MOL   H33821674   5.351   6.093   6.490 -0.1580 -0.2253  0.9880
   29MOL   H33921675   5.313   5.869   6.345 -2.5730 -1.4288 -0.4947
   29MOL   H34021676   5.181   5.959   6.285 -1.0168  0.3310  0.9042
   29MOL   H34121677   5.467   6.034   6.271 -0.2210  1.3479  2.7268
   29MOL   H34221678   5.327   6.147   6.223  0.3201 -0.3889  1.1707
   29MOL   H34321679   5.315   5.892   6.067  0.8771 -0.1268  0.4142
   29MOL   C34421680   5.372   6.060   5.979 -0.4146  0.2457 -0.1366
   29MOL   O34521681   5.412   6.174   5.990  0.3329 -0.0859  0.3588
   29MOL   C34621682   5.347   5.997   5.845  0.1827  0.0880  0.6684
   29MOL   C34721683   5.234   6.058   5.761  0.2958 -0.1174  0.6077
   29MOL   C34821684   5.097   5.991   5.788  0.3895 -0.4713  0.0952
   29MOL   C34921685   4.971   6.033   5.708  0.1945  0.2780  0.1806
   29MOL   C35021686   4.848   5.972   5.773 -0.5031 -0.1031 -0.1108
   29MOL   O35121687   4.852   5.901   5.870 -0.0256 -0.5611  0.2296
   29MOL   N35221688   4.728   6.016   5.728 -0.0884 -0.0712 -0.5324
   29MOL   C35321689   4.599   5.954   5.766 -0.2488 -0.1791 -0.6763
   29MOL   C35421690   4.520   6.043   5.863 -0.0358  0.9675  0.3349
   29MOL   C35521691   4.371   6.004   5.886 -0.6387 -0.0859  0.0561
   29MOL   C35621692   4.283   6.109   5.958  0.1344  0.2582 -0.3590
   29MOL   C35721693   4.137   6.070   5.952 -0.0482 -0.1426  0.1345
   29MOL   C35821694   4.050   6.169   6.020 -0.4625  0.7422 -0.5825
   29MOL   N35921695   3.911   6.135   6.007 -0.1332  0.5879 -0.3973
   29MOL   H36021696   5.437   6.019   5.789  1.3818 -4.1601  0.7429
   29MOL   H36121697   5.349   5.888   5.847 -0.9658  0.0356 -0.3285
   29MOL   H36221698   5.236   6.161   5.795 -0.8629  0.3999 -0.8286
   29MOL   H36321699   5.261   6.059   5.655 -0.5192 -1.5700  0.3584
   29MOL   H36421700   5.084   6.009   5.895 -0.4012 -1.7147  0.2092
   29MOL   H36521701   5.117   5.885   5.775 -0.1784 -0.9022  2.4990
   29MOL   H36621702   4.989   6.000   5.606  0.0990  1.4800 -0.2401
   29MOL   H36721703   4.968   6.142   5.708  3.8399  0.4597  2.0918
   29MOL   H36821704   4.727   6.082   5.652  2.5167  1.7614  0.9396
   29MOL   H36921705   4.546   5.936   5.672 -0.9824 -1.7488  0.0189
   29MOL   H37021706   4.615   5.851   5.798  0.0253 -0.7992 -2.7042
   29MOL   H37121707   4.572   6.058   5.958  0.5321  2.5960 -0.2228
   29MOL   H37221708   4.526   6.142   5.818 -0.4803  1.9653  2.4097
   29MOL   H37321709   4.365   5.913   5.947  1.9674 -1.0301 -1.0249
   29MOL   H37421710   4.323   5.981   5.791 -0.6761  0.6058 -0.0908
   29MOL   H37521711   4.317   6.117   6.061  2.6321  1.0511 -1.2226
   29MOL   H37621712   4.300   6.206   5.911  2.9921  0.3186  0.7231
   29MOL   H37721713   4.101   6.061   5.849  1.7689  0.4423 -0.5675
   29MOL   H37821714   4.117   5.977   6.004  1.0618 -0.4208  0.0704
   29MOL   H37921715   4.073   6.274   5.997 -1.5563  1.5416  1.8199
   29MOL   H38021716   4.080   6.166   6.125 -0.2687 -0.3603 -0.6677
   29MOL   H38121717   3.870   6.054   6.051 -2.5778  1.9954  0.0180
   29MOL   C38221718   3.826   6.209   5.936 -0.4891 -0.0381 -0.2939
   29MOL   O38321719   3.864   6.318   5.886  0.1318 -0.0878 -0.2395
   29MOL   C38421720   3.686   6.163   5.928  0.3078 -0.2904 -0.0650
   29MOL   C38521721   3.668   6.061   5.819 -0.3126 -0.0081  0.1843
   29MOL   C38621722   3.524   6.015   5.798  0.2015  0.5898  0.2645
   29MOL   C38721723   3.500   5.949   5.662  0.1723  0.0392 -0.2592
   29MOL   C38821724   3.499   6.035   5.535  0.4820 -0.1701 -0.5670
   29MOL   O38921725   3.509   6.157   5.534  0.5170  0.2516  0.0894
   29MOL   N39021726   3.492   5.967   5.420  0.7468 -0.0274  0.0577
   29MOL   C39121727   3.537   6.014   5.289 -0.2548  0.1366 -0.3228
   29MOL   C39221728   3.515   5.903   5.181 -0.7511 -0.3196  0.2137
   29MOL   C39321729   3.635   5.811   5.171 -0.4324  0.0596  0.0049
   29MOL   C39421730   3.634   5.709   5.046  0.6177  0.4028  0.1617
   29MOL   C39521731   3.756   5.605   5.049  0.6783  0.6644  0.1357
   29MOL   C39621732   3.726   5.494   4.947 -0.1415 -0.3777 -0.3149
   29MOL   N39721733   3.837   5.400   4.962  0.0218 -0.1230 -0.3875
   29MOL   H39821734   3.654   6.114   6.020  2.2710 -0.1580  0.7064
   29MOL   H39921735   3.620   6.249   5.916 -0.2390 -0.8704 -1.2924
   29MOL   H40021736   3.708   6.104   5.727  1.7490 -1.2297  0.4789
   29MOL   H40121737   3.739   5.979   5.835 -1.7724 -1.4634 -0.7211
   29MOL   H40221738   3.456   6.099   5.809 -1.6147 -0.8183  0.1030
   29MOL   H40321739   3.490   5.944   5.873 -0.5170  0.5070 -0.1324
   29MOL   H40421740   3.410   5.887   5.665 -0.0557  0.3634 -0.4021
   29MOL   H40521741   3.580   5.878   5.641 -0.2880 -0.4703 -0.3007
   29MOL   H40621742   3.492   5.868   5.438  0.4528  0.0880  0.7132
   29MOL   H40721743   3.464   6.089   5.256  0.0068  0.1620 -0.8439
   29MOL   H40821744   3.631   6.069   5.288 -1.2987  2.0076  0.7275
   29MOL   H40921745   3.427   5.840   5.194 -1.0498  0.2028  0.7591
   29MOL   H41021746   3.508   5.956   5.086  0.9003 -0.6984 -0.1417
   29MOL   H41121747   3.637   5.766   5.270  0.8223  0.0102 -0.0356
   29MOL   H41221748   3.718   5.882   5.165 -0.4381  0.2199  1.5743
   29MOL   H41321749   3.548   5.642   5.044  0.9015  0.0693 -1.2288
   29MOL   H41421750   3.646   5.765   4.954  0.6240  0.6906  0.3366
   29MOL   H41521751   3.855   5.648   5.033  1.8204 -1.8284  0.2231
   29MOL   H41621752   3.742   5.561   5.148  0.1240  0.2015 -0.1482
   29MOL   H41721753   3.718   5.535   4.846 -0.2156 -1.3912 -0.7203
   29MOL   H41821754   3.626   5.454   4.959 -1.1603  2.4692  1.1503
   29MOL   H41921755   3.925   5.426   4.921  0.6085  0.4161  1.1729
   29MOL   C42021756   3.851   5.295   5.039  0.3968 -0.8469  0.0697
   29MOL   O42121757   3.753   5.254   5.102  0.5296  0.3366  0.1810
   29MOL   C42221758   3.986   5.221   5.043 -0.6883 -1.4016  0.6222
   29MOL   C42321759   3.976   5.080   5.110  0.3396 -0.4451  0.3625
   29MOL   C42421760   4.111   5.008   5.123 -0.1967  0.2301 -0.1479
   29MOL   C42521761   4.116   4.895   5.229 -0.0526  0.2490  0.3095
   29MOL   C42621762   4.104   4.938   5.378 -0.2125  0.2918 -0.3192
   29MOL   O42721763   4.112   5.061   5.412 -0.5347  0.2788 -0.7726
   29MOL   N42821764   4.092   4.843   5.472  0.0938  0.3536  0.1662
   29MOL   C42921765   4.088   4.873   5.620 -0.1081  0.1255 -0.0321
   29MOL   C43021766   4.187   4.792   5.703 -0.5364  0.4946 -0.4122
   29MOL   C43121767   4.152   4.640   5.708  0.0149 -0.4043 -0.1934
   29MOL   C43221768   4.057   4.602   5.825 -0.4252 -0.1497  0.3435
   29MOL   C43321769   4.050   4.452   5.857  0.6586  0.3356  0.0582
   29MOL   C43421770   3.996   4.410   6.001  0.5970 -0.2538 -0.8760
   29MOL   N43521771   3.999   4.262   6.017 -0.2659 -0.2569  0.2337
   29MOL   H43621772   4.004   5.196   4.938  2.3773 -1.5612  1.1676
   29MOL   H43721773   4.069   5.279   5.081 -1.5562 -0.9159  1.8066
   29MOL   H43821774   3.935   5.089   5.211 -1.9782 -0.3468 -0.5642
   29MOL   H43921775   3.906   5.012   5.061 -1.0913  1.1873  0.1106
   29MOL   H44021776   4.190   5.082   5.136 -0.5913  0.8979 -1.4182
   29MOL   H44121777   4.146   4.963   5.030 -1.2473 -0.9394  0.0001
   29MOL   H44221778   4.218   4.857   5.222  0.2828  0.1237  4.6365
   29MOL   H44321779   4.045   4.822   5.190 -0.5774  0.8418  0.1617
   29MOL   H44421780   4.114   4.749   5.444  0.2413  1.0592 -2.2007
   29MOL   H44521781   4.111   4.979   5.627  1.3100 -0.0075 -2.1222
   29MOL   H44621782   3.990   4.878   5.666  0.3858  1.3886  0.9124
   29MOL   H44721783   4.281   4.783   5.649 -0.1275  1.0770  0.1960
   29MOL   H44821784   4.207   4.841   5.798 -0.3847 -0.4027  0.0217
   29MOL   H44921785   4.242   4.586   5.737  0.3843  0.1200 -0.3391
   29MOL   H45021786   4.108   4.601   5.616 -0.1235 -0.9685  0.1135
   29MOL   H45121787   4.091   4.646   5.919 -0.4886 -0.5129  0.5364
   29MOL   H45221788   3.954   4.635   5.819 -0.2357  0.2176 -1.2052
   29MOL   H45321789   3.977   4.418   5.784  0.4465 -1.3962  1.0501
   29MOL   H45421790   4.143   4.404   5.825  0.9664  2.0226 -1.6697
   29MOL   H45521791   3.893   4.446   6.008  1.0666  0.9561 -0.0745
   29MOL   H45621792   4.059   4.443   6.083 -2.7421  3.4566  0.3363
   29MOL   H45721793   4.083   4.219   6.055  0.8506 -0.2168 -2.1005
   29MOL   C45821794   3.906   4.182   5.968 -0.0299  0.0884  0.8279
   29MOL   O45921795   3.795   4.236   5.931 -0.6126  0.2258  0.9971
   29MOL   C46021796   3.928   4.029   5.963  0.5376  0.4763  0.7645
   29MOL   C46121797   3.804   3.944   5.927 -0.6548 -0.1384 -0.7750
   29MOL   C46221798   3.700   3.920   6.030 -0.4056  0.1601  0.8024
   29MOL   C46321799   3.737   3.830   6.146 -0.0595 -0.2812  0.7164
   29MOL   C46421800   3.823   3.897   6.252 -0.3227 -0.3014  0.3511
   29MOL   O46521801   3.785   4.003   6.293 -0.0930 -0.1412  0.2561
   29MOL   N46621802   3.941   3.833   6.288  0.0174  0.0656  0.7397
   29MOL   C46721803   4.039   3.898   6.372 -0.6445  0.5872 -0.1889
   29MOL   C46821804   4.153   3.804   6.422  0.4624 -0.0660 -0.6019
   29MOL   C46921805   4.255   3.884   6.512  0.3074 -0.2093  0.2872
   29MOL   C47021806   4.202   3.908   6.657  0.0196 -0.6824 -0.4020
   29MOL   C47121807   4.297   3.999   6.750  0.2079 -0.6683  0.2630
   29MOL   C47221808   4.302   4.151   6.699 -0.3327 -0.7225 -0.4062
   29MOL   N47321809   4.415   4.221   6.769  0.1432  0.4805 -0.1714
   29MOL   H47421810   4.000   4.019   5.882  1.2409 -2.5993  1.7081
   29MOL   H47521811   3.977   3.985   6.050  1.2873 -0.9318 -0.3631
   29MOL   H47621812   3.748   3.998   5.851 -1.5945 -1.2954 -0.9103
   29MOL   H47721813   3.820   3.851   5.873 -2.4227 -1.6778  1.2365
   29MOL   H47821814   3.611   3.888   5.975 -1.2766  1.1542  1.6197
   29MOL   H47921815   3.668   4.012   6.079 -1.1468  0.9132 -1.0323
   29MOL   H48021816   3.793   3.747   6.103  0.7497  0.4415  0.3442
   29MOL   H48121817   3.648   3.791   6.196 -0.5374 -0.2388 -0.0847
   29MOL   H48221818   3.968   3.752   6.234 -0.0510 -0.1693  1.0524
   29MOL   H48321819   4.078   3.977   6.308  0.0744 -0.9557 -1.6967
   29MOL   H48421820   3.996   3.963   6.448 -1.1164  0.8711 -0.6975
   29MOL   H48521821   4.125   3.713   6.475  1.1211  0.6931  1.1003
   29MOL   H48621822   4.201   3.779   6.327  0.6483 -2.2628  0.0331
   29MOL   H48721823   4.293   3.970   6.457 -1.6728  1.0739  0.8704
   29MOL   H48821824   4.346   3.823   6.512  0.8519  0.5627 -1.4412
   29MOL   H48921825   4.106   3.959   6.654  0.9390  1.1249 -0.1808
   29MOL   H49021826   4.196   3.808   6.701  1.3918 -1.8199 -2.6796
   29MOL   H49121827   4.265   3.980   6.852  0.0752 -0.3565  0.2814
   29MOL   H49221828   4.396   3.957   6.732 -0.7995 -3.6901  1.4598
   29MOL   H49321829   4.210   4.193   6.738  0.0155 -0.5317  0.2016
   29MOL   H49421830   4.299   4.157   6.590 -1.8371  2.5556 -0.2339
   29MOL   H49521831   4.470   4.163   6.831  0.7503 -0.2164 -1.3363
   29MOL   C49621832   4.451   4.347   6.743 -0.2649  0.8594  0.0232
   29MOL   O49721833   4.413   4.410   6.648  0.1929 -0.0184  0.2513
   29MOL   C49821834   4.548   4.417   6.833  0.3686 -0.0832  0.1136
   29MOL   C49921835   4.664   4.490   6.767 -0.0920 -0.5903  0.0692
   29MOL   C50021836   4.755   4.390   6.683 -0.0301  0.3320 -0.4015
   29MOL   C50121837   4.897   4.426   6.666 -0.3731  0.1604  0.2229
   29MOL   C50221838   4.989   4.365   6.781 -0.6163  0.4976 -0.0980
   29MOL   O50321839   4.989   4.247   6.803  0.2354  0.2032 -0.2141
   29MOL   N50421840   5.070   4.449   6.853  0.4308  0.2260 -0.3704
   29MOL   C50521841   5.155   4.411   6.962 -0.3052 -0.1613  0.5070
   29MOL   C50621842   5.083   4.383   7.091 -0.2229  0.4050 -0.0734
   29MOL   C50721843   5.157   4.294   7.191 -0.3172  0.8633 -0.2345
   29MOL   C50821844   5.281   4.362   7.266 -0.1676 -0.4659 -0.4371
   29MOL   C50921845   5.361   4.267   7.358  0.2494  0.4344  0.3133
   29MOL   C51021846   5.440   4.341   7.468 -0.0541  0.0115  0.9648
   29MOL   N51121847   5.539   4.260   7.533 -0.1118 -0.0840  0.0560
   29MOL   H51221848   4.487   4.492   6.884  0.3197  0.5910 -0.9343
   29MOL   H51321849   4.591   4.349   6.907 -0.9114 -1.0915 -0.0524
   29MOL   H51421850   4.629   4.562   6.693  2.0759 -1.0704 -1.4928
   29MOL   H51521851   4.721   4.550   6.838 -0.0540  1.4820 -1.6608
   29MOL   H51621852   4.717   4.361   6.585  1.8112  0.4016 -1.1464
   29MOL   H51721853   4.749   4.301   6.746 -1.5853  0.5072 -0.2724
   29MOL   H51821854   4.910   4.534   6.670  1.6571 -0.0738  0.4716
   29MOL   H51921855   4.929   4.374   6.576  1.8840  1.5420  0.1976
   29MOL   H52021856   5.069   4.549   6.834 -1.2558  0.0652 -1.2398
   29MOL   H52121857   5.198   4.313   6.941  1.4555  0.8321 -0.6552
   29MOL   H52221858   5.238   4.480   6.972 -2.6907  2.6293  1.7997
   29MOL   H52321859   5.061   4.474   7.146 -0.7665  1.1116 -1.4213
   29MOL   H52421860   4.985   4.345   7.061 -0.7858  1.4686  0.3737
   29MOL   H52521861   5.178   4.196   7.148 -1.5333 -0.6441  2.4911
   29MOL   H52621862   5.073   4.293   7.262  0.0694 -2.5086  0.2660
   29MOL   H52721863   5.357   4.409   7.205  1.9828  0.3766  2.7816
   29MOL   H52821864   5.237   4.447   7.319  0.4461 -1.3078  1.4439
   29MOL   H52921865   5.306   4.186   7.405 -3.0716  1.8491 -0.9488
   29MOL   H53021866   5.434   4.210   7.301 -1.8813 -1.6838 -0.3973
   29MOL   H53121867   5.370   4.378   7.543  0.7433  2.3366  0.5918
   29MOL   H53221868   5.483   4.431   7.424  2.0759  0.0442  3.0232
   29MOL   H53321869   5.528   4.246   7.633  0.3666 -0.5399  0.0480
   29MOL   C53421870   5.658   4.229   7.482  0.1740 -0.9447 -0.1545
   29MOL   O53521871   5.675   4.227   7.359  0.1481  0.1705  0.1890
   29MOL   C53621872   5.775   4.211   7.582  0.8743  0.1104  0.0528
   29MOL   C53721873   5.901   4.158   7.515  0.0766  0.3889  0.3571
   29MOL   C53821874   6.013   4.121   7.613  0.0077 -0.0657  0.4649
   29MOL   C53921875   6.155   4.118   7.550 -0.3076  0.8765  0.5146
   29MOL   C54021876   6.261   4.102   7.657 -0.5607 -0.1941  0.3584
   29MOL   O54121877   6.263   4.007   0.023  0.6700 -0.0262 -0.4751
   29MOL   N54221878   6.353   4.199   7.660 -0.1718  0.3921  0.7031
   29MOL   C54321879   6.439   4.244   0.057  0.0433  0.0517 -0.2602
   29MOL   C54421880   6.349   4.290   0.177 -0.1583  0.1115  0.3071
   29MOL   C54521881   6.429   4.378   0.271 -0.9191 -0.8443  0.6456
   29MOL   C54621882   6.342   4.433   0.388  0.4483 -0.3079  0.4059
   29MOL   C54721883   6.245   4.540   0.328  0.0164 -0.2207 -0.5036
   29MOL   C54821884   6.141   4.591   0.427  0.0648  0.9350  0.2977
   29MOL   N54921885   6.068   4.702   0.381 -0.0249  0.3539 -1.0344
   29MOL   H55021886   5.780   4.304   7.638  2.9691 -0.5101  0.9599
   29MOL   H55121887   5.741   4.136   7.654  0.1082 -1.0794 -1.5167
   29MOL   H55221888   5.876   4.075   7.449 -1.5920 -1.2781  2.9936
   29MOL   H55321889   5.943   4.232   7.447  1.0478  1.5751  2.2197
   29MOL   H55421890   6.001   4.022   7.656 -0.4044 -0.2637 -0.0935
   29MOL   H55521891   6.023   4.182   7.703 -0.4215 -2.4446  2.1632
   29MOL   H55621892   6.174   4.218   7.510 -1.4114  0.5129 -0.9859
   29MOL   H55721893   6.175   4.041   7.476  5.3278  1.7833  0.8698
   29MOL   H55821894   6.345   4.259   7.579  1.8332 -2.2116 -1.5563
   29MOL   H55921895   6.517   4.171   0.081 -0.6313 -0.3959  0.5837
   29MOL   H56021896   6.499   4.329   0.024 -1.0484  1.3957  1.1568
   29MOL   H56121897   6.267   4.350   0.138 -0.3650  0.1709  0.8256
   29MOL   H56221898   6.303   4.206   0.229 -0.9428  0.4221  0.1260
   29MOL   H56321899   6.477   4.458   0.215  1.4366 -1.9277  1.0435
   29MOL   H56421900   6.509   4.311   0.303  0.2553  0.7999  1.2167
   29MOL   H56521901   6.272   4.350   0.398 -0.2025 -0.3525 -3.5274
   29MOL   H56621902   6.391   4.453   0.483  0.5236  0.6533  0.1680
   29MOL   H56721903   6.317   4.611   0.287  0.6272 -0.2027  0.5707
   29MOL   H56821904   6.185   4.497   0.248  0.3685 -1.0385 -0.3280
   29MOL   H56921905   6.188   4.611   0.523 -0.1655 -0.1331  0.6387
   29MOL   H57021906   6.064   4.514   0.439  0.0363  0.4645 -2.3757
   29MOL   H57121907   6.032   4.687   0.287  1.9678 -0.8633 -1.6318
   29MOL   C57221908   6.002   4.786   0.462  0.5677  0.3429 -0.1820
   29MOL   O57321909   6.025   4.793   0.583  0.1594  0.1545  0.3426
   29MOL   C57421910   5.893   4.872   0.391 -0.3228  0.2999 -0.2065
   29MOL   C57521911   5.777   4.788   0.340 -0.2291 -0.9664 -0.1329
   29MOL   C57621912   5.683   4.893   0.268 -0.0332  0.4298  0.7162
   29MOL   C57721913   5.541   4.834   0.227  0.5631  0.1451 -0.2071
   29MOL   C57821914   5.552   4.709   0.136 -0.2754  0.0925 -0.2093
   29MOL   O57921915   5.608   4.722   0.027 -0.1271 -0.1105 -0.5679
   29MOL   N58021916   5.517   4.588   0.181  0.1428  0.1763 -0.0666
   29MOL   C58121917   5.535   4.456   0.104  0.3944 -0.3148  0.1994
   29MOL   C58221918   5.635   4.372   0.178  0.3101 -0.6514 -0.0320
   29MOL   C58321919   5.782   4.425   0.189 -0.0727 -0.1239 -0.1666
   29MOL   C58421920   5.879   4.311   0.218 -1.1189  0.6586  0.0975
   29MOL   C58521921   5.883   4.270   0.364 -0.5924  0.0421  0.7307
   29MOL   C58621922   5.992   4.165   0.398 -0.7820 -0.2882  0.0171
   29MOL   N58721923   5.987   4.125   0.536 -0.1019  0.0926 -0.4680
   29MOL   H58821924   5.858   4.950   0.459  1.7729  0.0528  1.2329
   29MOL   H58921925   5.948   4.934   0.320  2.4379 -0.2564  1.3487
   29MOL   H59021926   5.814   4.714   0.269  2.7287 -1.4234  1.7797
   29MOL   H59121927   5.715   4.743   0.417 -0.7397 -1.5274 -0.8784
   29MOL   H59221928   5.742   4.935   0.187 -0.6560  0.4728  0.2821
   29MOL   H59321929   5.658   4.975   0.335  0.0208  1.2074 -0.2054
   29MOL   H59421930   5.487   4.908   0.168 -1.8447 -0.5463  1.0588
   29MOL   H59521931   5.478   4.815   0.314  3.4315 -1.3236  1.6107
   29MOL   H59621932   5.513   4.592   0.282  3.0189 -1.0855  0.1312
   29MOL   H59721933   5.435   4.413   0.103 -0.7905  2.0500  3.9218
   29MOL   H59821934   5.575   4.474   0.004 -0.5628 -0.0130 -0.1303
   29MOL   H59921935   5.593   4.346   0.275  0.9136  0.9732  0.6677
   29MOL   H60021936   5.641   4.273   0.131 -1.3619  0.0389 -1.7677
   29MOL   H60121937   5.786   4.509   0.257  0.5455 -0.9393  0.8188
   29MOL   H60221938   5.798   4.474   0.093 -1.4665 -1.1231 -0.9375
   29MOL   H60321939   5.857   4.231   0.147  0.2772  0.3617 -0.0119
   29MOL   H60421940   5.982   4.339   0.195 -1.0382  0.0035 -0.3582
   29MOL   H60521941   5.900   4.349   0.438 -0.3344  0.4307  0.2630
   29MOL   H60621942   5.783   4.233   0.384 -0.5369 -1.2892 -1.3818
   29MOL   H60721943   6.090   4.212   0.398 -0.3929 -1.0916 -0.9118
   29MOL   H60821944   5.997   4.079   0.331  1.7301  0.7990 -1.2238
   29MOL   H60921945   5.923   4.050   0.555  0.1228  0.0221  0.0145
   29MOL   C61021946   6.068   4.152   0.638  0.2584 -0.9456  0.1618
   29MOL   O61121947   6.154   4.238   0.634 -0.4835  0.1279  0.1497
   29MOL   C61221948   6.041   4.078   0.763 -0.0415  0.0344 -0.3468
   29MOL   C61321949   6.172   4.032   0.840  0.1027  0.0245  0.1495
   29MOL   C61421950   6.204   4.120   0.959  0.4599 -1.0472 -0.3134
   29MOL   C61521951   6.346   4.090   1.012  0.5972  0.5498 -0.0237
   29MOL   C61621952   6.370   3.959   1.080 -0.1223  0.4292 -0.1537
   29MOL   O61721953   6.283   3.918   1.151  0.6218  0.6285 -0.6040
   29MOL   N61821954   6.492   3.899   1.066 -0.4618 -0.1187  0.0786
   29MOL   C61921955   6.527   3.769   1.108 -0.0231 -0.5754 -0.1089
   29MOL   C62021956   6.453   3.663   1.021  0.4633  0.2817 -0.0346
   29MOL   C62121957   6.503   3.655   0.871 -0.1780 -0.4439  0.2953
   29MOL   C62221958   6.416   3.577   0.772  0.4166  0.4244 -0.1673
   29MOL   C62321959   6.490   3.533   0.647 -0.4361 -0.3918 -0.7333
   29MOL   C62421960   6.397   3.479   0.530  0.3569  0.0538 -0.4636
   29MOL   N62521961   6.334   3.358   0.576 -0.6967  0.2535 -0.3252
   29MOL   H62621962   5.982   4.152   0.816  2.3697  1.8493 -0.1219
   29MOL   H62721963   5.981   3.989   0.741 -2.4950  1.0811  1.7879
   29MOL   H62821964   6.158   3.924   0.850  1.6767 -0.3500 -1.3646
   29MOL   H62921965   6.257   4.041   0.773 -0.2716  2.4777 -0.0306
   29MOL   H63021966   6.131   4.104   1.039 -0.9275 -0.6925 -1.5034
   29MOL   H63121967   6.194   4.225   0.933 -0.0408 -1.0030  0.0412
   29MOL   H63221968   6.387   4.167   1.077  2.1578  0.4507 -0.8742
   29MOL   H63321969   6.415   4.089   0.927 -0.5544 -1.8269 -0.9790
   29MOL   H63421970   6.559   3.952   1.012  1.1010 -2.3278 -0.1686
   29MOL   H63521971   6.634   3.749   1.106  0.6824  2.9392 -2.2980
   29MOL   H63621972   6.491   3.760   1.211 -1.8184  0.5903 -0.6075
   29MOL   H63721973   6.473   3.568   1.070 -0.7172  0.6185  1.1114
   29MOL   H63821974   6.345   3.670   1.035  0.0545 -2.9525 -1.1649
   29MOL   H63921975   6.598   3.602   0.870 -1.5793 -3.1208  2.6769
   29MOL   H64021976   6.534   3.753   0.833  0.7844 -1.1996 -0.8837
   29MOL   H64121977   6.379   3.487   0.819  0.1288  0.8673  0.4619
   29MOL   H64221978   6.337   3.641   0.731  0.3112 -0.0293 -0.6836
   29MOL   H64321979   6.543   3.617   0.602  0.5336 -1.1186 -0.9664
   29MOL   H64421980   6.569   3.459   0.663 -1.6456 -0.9898  2.9728
   29MOL   H64521981   6.464   3.456   0.447  0.2042  4.5047 -1.9571
   29MOL   H64621982   6.327   3.560   0.508  1.6947  2.0191  2.2878
   29MOL   H64721983   6.395   3.290   0.621  0.0936 -0.6938 -2.7272
   29MOL   C64821984   6.211   3.323   0.534 -0.7568 -0.7613 -0.1053
   29MOL   O64921985   6.137   3.407   0.488  0.3760 -0.0445  0.4499
   29MOL   C65021986   6.156   3.184   0.571 -0.8823 -0.1354  0.0147
   29MOL   C65121987   6.009   3.197   0.627  0.5812  0.0525 -0.3867
   29MOL   C65221988   5.954   3.053   0.652  0.4875  0.5376 -0.4089
   29MOL   C65321989   5.869   3.001   0.534 -0.2303 -0.8351  0.2368
   29MOL   C65421990   5.961   2.973   0.405 -0.0021 -0.1563 -0.0752
   29MOL   O65521991   6.070   2.918   0.429 -0.2647 -0.0247  0.0158
   29MOL   N65621992   5.908   3.016   0.290 -0.5068  0.1970 -0.0191
   29MOL   C65721993   5.989   2.990   0.175 -0.6127  0.5623 -0.0051
   29MOL   C65821994   5.957   3.079   0.052  0.4166 -0.3330 -0.2216
   29MOL   C65921995   6.059   3.053   7.656 -0.4963 -0.0418 -0.1081
   29MOL   C66021996   6.037   3.141   7.536 -0.5644 -0.4597 -0.4541
   29MOL   C66121997   6.163   3.187   7.466  0.4232  0.2245 -0.8283
   29MOL   C66221998   6.124   3.257   7.330 -0.0999  0.4889 -0.0457
   29MOL   N66321999   6.248   3.286   7.254  0.6741 -0.4401 -0.3308
   29MOL   H66422000   6.171   3.117   0.486 -1.6312 -1.8592  1.2270
   29MOL   H66522001   6.203   3.133   0.655 -1.4741  0.2859  0.6019
   29MOL   H66622002   6.009   3.268   0.710 -1.4166 -0.0764 -0.2623
   29MOL   H66722003   5.942   3.240   0.553  1.3287 -0.7073 -1.5232
   29MOL   H66822004   5.892   3.049   0.742 -1.5849  0.4004 -1.8144
   29MOL   H66922005   6.038   2.993   0.688 -0.3255  0.0702  0.7248
   29MOL   H67022006   5.786   3.066   0.507 -0.2769 -1.7911 -2.0340
   29MOL   H67122007   5.827   2.902   0.551 -2.7256 -0.0156 -0.9215
   29MOL   H67222008   5.811   3.044   0.290 -0.8705 -1.0315 -0.2103
   29MOL   H67322009   6.097   2.990   0.193 -0.3939 -3.5127 -0.8838
   29MOL   H67422010   5.974   2.884   0.158  1.1315  0.4494 -0.8869
   29MOL   H67522011   5.864   3.052   0.001 -0.1752  0.9923  0.1313
   29MOL   H67622012   5.952   3.186   0.073  0.4141 -0.2697 -0.5368
   29MOL   H67722013   6.055   2.948   7.625 -1.0324 -0.2442  0.6271
   29MOL   H67822014   6.156   3.063   7.704 -0.1734 -1.7575 -0.3429
   29MOL   H67922015   5.961   3.102   7.469  0.3113 -0.8091 -1.2494
   29MOL   H68022016   6.008   3.243   7.560  1.9082 -0.5515  3.4351
   29MOL   H68122017   6.220   3.253   7.532  1.0300 -1.9628  0.9168
   29MOL   H68222018   6.229   3.105   7.437  1.9530  1.0307  0.3079
   29MOL   H68322019   6.062   3.346   7.344 -2.6629 -0.7604 -2.8045
   29MOL   H68422020   6.084   3.182   7.262 -1.6209 -1.7606  3.2279
   29MOL   H68522021   6.325   3.227   7.282 -0.9585 -1.1920  2.7676
   29MOL   C68622022   6.275   3.404   7.202 -0.5191 -0.5564  0.5602
   29MOL   O68722023   6.191   3.488   7.187 -0.4352 -0.0360  0.1992
   29MOL   C68822024   6.419   3.435   7.167 -0.1855 -0.0262  0.7447
   29MOL   C68922025   6.455   3.523   7.048  0.1725 -0.1749  0.3344
   29MOL   C69022026   6.449   3.676   7.063 -0.1630 -0.2184 -0.4601
   29MOL   C69122027   6.521   3.752   6.951 -0.5561  0.0632 -0.1506
   29MOL   C69222028   6.446   3.751   6.820  0.2130 -0.2905 -0.3831
   29MOL   O69322029   6.500   3.700   6.722  0.3011 -0.2138 -0.0565
   29MOL   N69422030   6.323   3.803   6.825 -0.1445  0.6175 -0.0729
   29MOL   C69522031   6.218   3.797   6.726  0.2103 -0.1443 -0.2175
   29MOL   C69622032   6.101   3.876   6.776 -0.0726  1.2682 -0.2783
   29MOL   C69722033   5.998   3.893   6.667  0.1411 -0.0289 -0.1759
   29MOL   C69822034   5.876   3.961   6.702 -0.2023 -0.5351  1.0726
   29MOL   C69922035   5.780   3.966   6.584  0.1477  0.1565  0.4781
   29MOL   C70022036   5.690   4.083   6.588 -0.9444 -0.0340 -0.8341
   29MOL   N70122037   5.617   4.092   6.715  0.3679 -0.0966  0.1022
   29MOL   H70222038   6.467   3.471   7.258  0.5821 -2.1581  1.2129
   29MOL   H70322039   6.465   3.337   7.154 -1.3125 -0.4078 -0.4178
   29MOL   H70422040   6.557   3.502   7.013 -0.2057 -0.5304 -0.5797
   29MOL   H70522041   6.395   3.498   6.960  0.7380 -0.0259 -0.1043
   29MOL   H70622042   6.497   3.690   7.160 -0.2806  1.1627 -0.5951
   29MOL   H70722043   6.346   3.710   7.073 -0.5376 -1.7964  1.5054
   29MOL   H70822044   6.621   3.710   6.943 -0.4158  0.6665 -1.7118
   29MOL   H70922045   6.525   3.859   6.973 -1.3507  0.1747 -0.5463
   29MOL   H71022046   6.299   3.852   6.910  0.4248 -1.2931  1.2317
   29MOL   H71122047   6.253   3.838   6.631  0.8269 -0.1364  0.0105
   29MOL   H71222048   6.189   3.693   6.715  1.8278 -0.7181  0.8408
   29MOL   H71322049   6.053   3.827   6.861  0.2399  2.2813  0.4909
   29MOL   H71422050   6.129   3.975   6.811 -0.6229  1.7189 -1.0780
   29MOL   H71522051   5.977   3.791   6.635  0.8323 -0.1346 -0.3119
   29MOL   H71622052   6.048   3.941   6.582 -0.5492 -1.6025 -1.5014
   29MOL   H71722053   5.827   3.921   6.791 -0.1887  1.0901  1.8247
   29MOL   H71822054   5.884   4.065   6.735 -0.8534  0.0032 -0.4300
   29MOL   H71922055   5.826   3.965   6.485 -1.4070 -0.4853 -0.2477
   29MOL   H72022056   5.727   3.871   6.595  1.7643 -0.7010  1.1390
   29MOL   H72122057   5.616   4.078   6.509 -0.4556  0.7405 -1.3551
   29MOL   H72222058   5.749   4.172   6.562  0.9579 -0.5251  1.6017
   29MOL   H72322059   5.675   4.109   6.796 -0.9184 -0.9141  1.2219
   29MOL   C72422060   5.486   4.058   6.724  0.1961 -0.2768 -0.5156
   29MOL   O72522061   5.418   4.032   6.624 -0.2074  0.1459  0.3216
   29MOL   C72622062   5.422   4.048   6.862  0.4405  0.0564  0.5133
   29MOL   C72722063   5.429   3.899   6.916  0.0755  0.6140 -0.9489
   29MOL   C72822064   5.389   3.875   7.064  0.0956  0.4239  0.6277
   29MOL   C72922065   5.486   3.937   7.175  0.5166 -0.6879  0.6451
   29MOL   C73022066   5.438   3.894   7.313 -1.0041  1.0160 -0.3314
   29MOL   O73122067   5.327   3.923   7.346  0.1642  0.0409  0.1345
   29MOL   N73222068   5.528   3.834   7.390  0.6754 -0.4428  0.0890
   29MOL   C73322069   5.507   3.793   7.531 -0.4884 -0.9974  0.3525
   29MOL   C73422070   5.570   3.897   7.632 -0.3059  0.2417  0.3825
   29MOL   C73522071   5.518   3.858   0.067  1.0979 -0.6877 -0.3318
   29MOL   C73622072   5.594   3.937   0.170 -0.3174  0.3339 -0.1738
   29MOL   C73722073   5.549   3.907   0.312 -0.1332  0.2104 -0.2238
   29MOL   C73822074   5.641   3.954   0.425  0.7139  0.0727 -0.3088
   29MOL   N73922075   5.573   3.926   0.549  0.4931  0.0165 -0.3034
   29MOL   H74022076   5.472   4.111   6.936 -0.1235  0.2389  0.7484
   29MOL   H74122077   5.324   4.097   6.856  1.1255  1.4477  0.3447
   29MOL   H74222078   5.374   3.826   6.856 -0.4511  0.1501  0.0852
   29MOL   H74322079   5.530   3.862   6.899  1.4163  4.4901 -2.0400
   29MOL   H74422080   5.368   3.770   7.083 -2.4950  1.1442  2.0416
   29MOL   H74522081   5.293   3.925   7.081  0.4304  0.5216  2.3213
   29MOL   H74622082   5.480   4.046   7.171  1.2970 -0.6312  1.0328
   29MOL   H74722083   5.587   3.904   7.151  0.1212 -3.0833  2.1467
   29MOL   H74822084   5.615   3.803   7.347 -0.1775  0.2107 -2.1915
   29MOL   H74922085   5.399   3.784   7.538 -0.5841 -0.1342  0.1293
   29MOL   H75022086   5.558   3.697   7.537  0.2427 -0.5408  1.6221
   29MOL   H75122087   5.677   3.910   7.624 -0.3302 -0.9973 -2.7696
   29MOL   H75222088   5.527   3.992   7.601 -1.7514 -1.8026 -4.2821
   29MOL   H75322089   5.531   3.754   0.098  2.0636 -0.6608 -0.6526
   29MOL   H75422090   5.410   3.876   0.075  1.3647  0.7615  0.2206
   29MOL   H75522091   5.699   3.909   0.166  0.6065  3.7378 -2.1002
   29MOL   H75622092   5.581   4.044   0.152 -1.9218  0.3401  0.8966
   29MOL   H75722093   5.449   3.949   0.321  0.0296  1.0510 -2.0658
   29MOL   H75822094   5.536   3.799   0.316 -3.5326  0.4639 -2.3933
   29MOL   H75922095   5.676   4.058   0.426 -2.1583  1.0906 -1.1278
   29MOL   H76022096   5.736   3.900   0.422  0.0742 -0.9679 -2.2688
   29MOL   H76122097   5.628   3.962   0.626  1.3777  1.9417 -1.7889
   29MOL   H76222098   5.567   3.825   0.557 -1.3055  0.0876 -0.5008
   30MOL     C122099   4.968   3.895   3.754 -0.1412  0.6814 -0.5833
   30MOL     O222100   5.024   3.790   3.728 -0.0756  0.8151  0.3538
   30MOL     C322101   4.825   3.911   3.805 -0.3970  0.5131  0.8756
   30MOL     C422102   4.726   3.915   3.689  0.5526 -0.3084  0.0600
   30MOL     C522103   4.579   3.908   3.745  0.0453 -0.0834 -0.0082
   30MOL     C622104   4.477   3.874   3.634 -0.4556  0.1073  0.5145
   30MOL     C722105   4.487   3.977   3.512  0.4324  0.1710  0.3672
   30MOL     O822106   4.477   4.096   3.529 -1.0232 -0.7319 -0.4297
   30MOL     N922107   4.507   3.925   3.391 -0.5321  0.4621 -0.0295
   30MOL    C1022108   4.548   4.000   3.280  0.1540  0.0270 -0.5249
   30MOL    C1122109   4.425   4.053   3.198 -0.0045  0.2682  0.1248
   30MOL    C1222110   4.456   4.145   3.086 -0.6100  0.3259  0.4844
   30MOL    C1322111   4.337   4.166   2.993 -0.3969  0.2979 -0.8416
   30MOL    C1422112   4.232   4.261   3.046  0.6183  0.4885  0.6012
   30MOL    C1522113   4.107   4.269   2.957  0.2449 -0.7044  0.8278
   30MOL    N1622114   4.148   4.290   2.821  0.1073  0.5628  0.0567
   30MOL    H1722115   4.818   3.821   3.865  3.5701 -0.5387 -0.1153
   30MOL    H1822116   4.835   4.007   3.857  2.8656  1.1731 -0.8008
   30MOL    H1922117   4.746   4.001   3.625  0.6441  1.0000  1.7965
   30MOL    H2022118   4.742   3.826   3.628 -2.3929  0.2866 -1.6740
   30MOL    H2122119   4.552   4.000   3.797 -1.1223 -0.3931 -0.0468
   30MOL    H2222120   4.577   3.833   3.824 -2.0933 -0.9533 -0.8305
   30MOL    H2322121   4.372   3.875   3.662 -0.2699 -0.1498  1.2292
   30MOL    H2422122   4.499   3.772   3.602  0.4184  0.4478 -0.0113
   30MOL    H2522123   4.507   3.825   3.385  0.2935  0.3321  1.7465
   30MOL    H2622124   4.626   4.076   3.292 -0.4563  0.7249 -0.8962
   30MOL    H2722125   4.601   3.932   3.213  0.5162  1.2741 -1.5522
   30MOL    H2822126   4.374   3.962   3.166 -1.0060  0.3916  1.3496
   30MOL    H2922127   4.366   4.106   3.272  0.8067  1.6767 -0.2109
   30MOL    H3022128   4.539   4.109   3.026 -2.1258  0.1593 -1.5756
   30MOL    H3122129   4.494   4.238   3.129  0.1353  1.0773 -1.7229
   30MOL    H3222130   4.379   4.192   2.896 -3.5574 -2.8943 -3.2270
   30MOL    H3322131   4.291   4.069   2.968 -3.7820  1.4562  0.5424
   30MOL    H3422132   4.196   4.222   3.141  0.5565  2.5138  1.4457
   30MOL    H3522133   4.272   4.361   3.060  0.8192  0.5575 -0.4545
   30MOL    H3622134   4.045   4.351   2.990  1.5064 -0.6324  3.1453
   30MOL    H3722135   4.047   4.180   2.977 -0.6484 -0.3932 -0.4430
   30MOL    H3822136   4.215   4.364   2.808  2.1569 -0.9717  1.5469
   30MOL    H3922137   5.008   3.994   3.731  1.6048  0.1535  0.0526
   30MOL    C4022138   4.107   4.216   2.722 -0.2100  0.5045 -0.4916
   30MOL    O4122139   4.013   4.131   2.734 -0.5820 -0.1644 -0.4049
   30MOL    C4222140   4.183   4.228   2.589 -0.2362 -0.2956  0.5917
   30MOL    C4322141   4.119   4.160   2.465 -0.1917 -0.5071 -0.1550
   30MOL    C4422142   4.162   4.013   2.454  0.1954  0.9087 -0.2600
   30MOL    C4522143   4.089   3.910   2.534  0.8528 -0.6416  0.0842
   30MOL    C4622144   4.105   3.775   2.474 -0.5937  0.6610 -0.1704
   30MOL    O4722145   4.214   3.717   2.483  0.3504  0.4555 -0.1684
   30MOL    N4822146   3.999   3.726   2.412 -0.1349  0.8939  0.4578
   30MOL    C4922147   3.998   3.593   2.348  0.1648 -0.1362 -0.8987
   30MOL    C5022148   3.992   3.609   2.193  0.2965  0.8285  0.3286
   30MOL    C5122149   3.957   3.483   2.110  0.5363 -0.7120 -0.1985
   30MOL    C5222150   3.972   3.504   1.955  0.0700  0.5631 -0.0836
   30MOL    C5322151   4.104   3.458   1.893 -0.3627  0.8577 -0.0125
   30MOL    C5422152   4.134   3.505   1.743 -0.8675 -0.7956 -0.1373
   30MOL    N5522153   4.262   3.452   1.697  0.0288 -0.2072 -0.4916
   30MOL    H5622154   4.204   4.330   2.555  0.1468 -0.5645  0.0041
   30MOL    H5722155   4.286   4.194   2.600  0.6664  1.4367 -1.9798
   30MOL    H5822156   4.011   4.157   2.471 -0.5939  3.9149 -2.4490
   30MOL    H5922157   4.150   4.219   2.378 -0.5492 -1.6022 -1.0365
   30MOL    H6022158   4.270   4.000   2.462  0.4330  1.2764 -2.5219
   30MOL    H6122159   4.148   3.988   2.349 -1.1515 -1.1532  0.3760
   30MOL    H6222160   3.981   3.929   2.535  1.0850  0.8187 -1.5860
   30MOL    H6322161   4.124   3.909   2.637  0.8443 -0.1370  0.0953
   30MOL    H6422162   3.916   3.783   2.418 -0.4183  0.6650 -1.1206
   30MOL    H6522163   4.075   3.522   2.376 -0.8269 -1.2001 -0.8564
   30MOL    H6622164   3.918   3.534   2.392  0.7802 -1.9710 -2.1689
   30MOL    H6722165   3.911   3.677   2.167 -0.1010 -0.6055 -2.3725
   30MOL    H6822166   4.088   3.644   2.154  0.3804 -0.4318 -0.6308
   30MOL    H6922167   3.850   3.467   2.118  0.4615  0.1553  0.6555
   30MOL    H7022168   4.015   3.394   2.135 -1.3536 -1.6162  1.0310
   30MOL    H7122169   3.891   3.447   1.910  0.4224 -0.2133  0.2484
   30MOL    H7222170   3.947   3.605   1.921 -0.8457 -0.2555 -1.8936
   30MOL    H7322171   4.175   3.490   1.969 -1.0545  0.7008  0.7095
   30MOL    H7422172   4.103   3.350   1.902 -1.1977  1.0231  2.1643
   30MOL    H7522173   4.124   3.614   1.739  0.4779 -0.6019  1.4747
   30MOL    H7622174   4.062   3.453   1.680 -1.3687 -1.1539  0.7319
   30MOL    H7722175   4.264   3.360   1.654  0.3603 -0.1637 -0.5714
   30MOL    C7822176   4.383   3.503   1.718 -0.5024  0.2585 -0.1215
   30MOL    O7922177   4.401   3.614   1.773  0.5942  0.1519  0.1520
   30MOL    C8022178   4.488   3.421   1.644 -0.1376 -0.2302  0.0914
   30MOL    C8122179   4.599   3.507   1.578  0.1233  0.0360  0.8202
   30MOL    C8222180   4.713   3.423   1.515  0.8321 -0.3894  0.1036
   30MOL    C8322181   4.814   3.513   1.438  0.1374 -0.2145 -0.2653
   30MOL    C8422182   4.789   3.548   1.294  0.9703 -0.0569 -0.4660
   30MOL    O8522183   4.683   3.601   1.261  0.0954  0.2258  0.1259
   30MOL    N8622184   4.887   3.534   1.208 -0.1331  0.3444 -0.2193
   30MOL    C8722185   4.877   3.562   1.067 -0.7345 -0.6927 -0.2638
   30MOL    C8822186   4.795   3.454   0.990 -0.4508 -0.0543 -0.7762
   30MOL    C8922187   4.777   3.472   0.842  0.1562  0.2565 -0.6988
   30MOL    C9022188   4.685   3.367   0.785  0.4882  0.0433  0.2229
   30MOL    C9122189   4.648   3.409   0.640  0.8888  0.5777  0.1035
   30MOL    C9222190   4.562   3.302   0.569 -0.1731 -0.0638  0.1803
   30MOL    N9322191   4.513   3.352   0.444  0.3777  0.2149 -0.1263
   30MOL    H9422192   4.544   3.359   1.713 -0.5579  0.4167  1.0338
   30MOL    H9522193   4.441   3.357   1.569 -0.2576 -0.0264 -0.0086
   30MOL    H9622194   4.557   3.569   1.499 -0.1288  1.5518  2.1289
   30MOL    H9722195   4.632   3.575   1.657 -0.1668 -1.4419  2.2584
   30MOL    H9822196   4.684   3.336   1.456 -0.7193 -1.0509  1.8112
   30MOL    H9922197   4.756   3.381   1.605  0.7026 -0.6475  0.0446
   30MOL   H10022198   4.912   3.465   1.450  1.1670  1.8093 -0.4217
   30MOL   H10122199   4.818   3.611   1.484 -0.8136  1.1397 -2.9366
   30MOL   H10222200   4.971   3.482   1.230 -0.0506  1.6729  2.8535
   30MOL   H10322201   4.850   3.664   1.040 -0.1610 -1.1047 -2.4574
   30MOL   H10422202   4.977   3.550   1.027 -0.3752  1.4614 -0.0549
   30MOL   H10522203   4.831   3.353   1.004 -1.7223 -0.0819  2.5495
   30MOL   H10622204   4.694   3.452   1.030  0.3050 -2.7002  1.1049
   30MOL   H10722205   4.870   3.477   0.784  1.2907 -2.4570  0.8310
   30MOL   H10822206   4.735   3.572   0.831 -0.8605 -0.0348  0.4951
   30MOL   H10922207   4.734   3.269   0.791 -0.1183 -0.3110 -0.5993
   30MOL   H11022208   4.597   3.351   0.847  0.1533  0.5644 -0.1234
   30MOL   H11122209   4.595   3.505   0.640 -1.4920 -0.6927  1.4166
   30MOL   H11222210   4.745   3.429   0.595  0.2223  1.0994 -1.1079
   30MOL   H11322211   4.486   3.265   0.638  2.1669  1.3364  3.6736
   30MOL   H11422212   4.628   3.218   0.545  0.7544 -0.0320  2.4504
   30MOL   H11522213   4.419   3.388   0.435  0.6986  1.3808  1.0946
   30MOL   C11622214   4.581   3.350   0.328  0.4488  0.3139 -0.3270
   30MOL   O11722215   4.697   3.309   0.324 -0.4027  0.3367  0.3848
   30MOL   C11822216   4.495   3.401   0.214  0.8005  0.3413 -0.5628
   30MOL   C11922217   4.567   3.477   0.102  0.3136 -0.6464  0.5600
   30MOL   C12022218   4.671   3.409   0.015 -0.1174 -0.2166 -0.1099
   30MOL   C12122219   4.635   3.267   7.666 -0.3572  0.2327  0.1307
   30MOL   C12222220   4.499   3.259   7.594  0.2124  0.5926 -0.6081
   30MOL   O12322221   4.455   3.361   7.535 -0.0575  0.0367 -0.1386
   30MOL   N12422222   4.439   3.141   7.596 -0.4799  0.0980  0.1687
   30MOL   C12522223   4.295   3.117   7.563  0.2075  0.7829 -0.1857
   30MOL   C12622224   4.244   3.022   7.671  0.0127  0.0997 -0.1441
   30MOL   C12722225   4.104   2.979   7.642  0.4932  0.3589 -0.3668
   30MOL   C12822226   4.043   2.893   0.046  0.0809 -0.4456 -0.2300
   30MOL   C12922227   4.119   2.763   0.063  0.1743 -0.1651  0.1186
   30MOL   C13022228   4.036   2.647   0.117 -0.8304  1.0162 -0.1129
   30MOL   N13122229   3.946   2.681   0.226 -0.3186 -0.6479 -0.0078
   30MOL   H13222230   4.442   3.312   0.180  2.9178 -1.4198  0.6001
   30MOL   H13322231   4.420   3.468   0.255 -1.6321 -0.6416 -3.1992
   30MOL   H13422232   4.488   3.507   0.033  1.7800 -0.5631 -1.1342
   30MOL   H13522233   4.620   3.566   0.135 -0.0836 -0.2035  0.0129
   30MOL   H13622234   4.766   3.407   0.068 -0.1396  0.4468 -0.0437
   30MOL   H13722235   4.699   3.478   7.643  1.7084  0.0108  0.6951
   30MOL   H13822236   4.649   3.193   0.037  1.1201 -1.7088 -1.8893
   30MOL   H13922237   4.704   3.232   7.590  0.0573 -1.6764  1.3602
   30MOL   H14022238   4.486   3.071   7.652  1.3141  0.0408 -1.3370
   30MOL   H14122239   4.248   3.215   7.568  0.9601  1.0391  2.0720
   30MOL   H14222240   4.282   3.080   7.461 -0.4911  1.0636 -0.2002
   30MOL   H14322241   4.311   2.938   7.684  0.5929  0.7852  1.3784
   30MOL   H14422242   4.235   3.076   0.057 -1.5506 -1.5415  0.6855
   30MOL   H14522243   4.087   2.928   7.548  2.4326  1.1768 -1.1878
   30MOL   H14622244   4.041   3.068   7.635 -0.2799 -0.1371  0.2296
   30MOL   H14722245   4.044   2.962   0.131 -2.7050  1.0872 -1.3710
   30MOL   H14822246   3.941   2.876   0.012  0.3251  0.4635 -1.4467
   30MOL   H14922247   4.166   2.714   7.686 -0.3722 -2.4912  1.1103
   30MOL   H15022248   4.199   2.780   0.135  1.2403 -0.7975 -0.9060
   30MOL   H15122249   4.108   2.575   0.158 -0.4864  1.8104  0.7028
   30MOL   H15222250   3.995   2.582   0.040  0.3221  2.3659 -1.9022
   30MOL   H15322251   3.981   2.678   0.321  1.8873  0.2701 -0.7546
   30MOL   C15422252   3.815   2.687   0.212  0.1250 -0.1214  0.1598
   30MOL   O15522253   3.754   2.695   0.102  0.3102 -0.0808 -0.0748
   30MOL   C15622254   3.738   2.696   0.345 -0.0379  0.7003  0.4758
   30MOL   C15722255   3.601   2.634   0.340  0.3950  0.2470  0.0741
   30MOL   C15822256   3.589   2.492   0.287 -0.3401  0.0023 -0.3604
   30MOL   C15922257   3.560   2.475   0.142  0.0143  0.2279  0.6329
   30MOL   C16022258   3.506   2.339   0.084  0.8365  0.5930  1.1699
   30MOL   O16122259   3.513   2.236   0.149 -0.0197 -0.0708 -0.3748
   30MOL   N16222260   3.462   2.343   7.664  0.4796  0.0243  0.2871
   30MOL   C16322261   3.424   2.230   7.575 -0.8148  0.0301  0.3997
   30MOL   C16422262   3.497   2.232   7.437  0.7963 -0.4607 -0.3942
   30MOL   C16522263   3.647   2.207   7.436  0.7875 -0.1723 -0.5221
   30MOL   C16622264   3.701   2.204   7.286 -0.2695  0.2962  0.7822
   30MOL   C16722265   3.853   2.195   7.276 -0.7085  0.2083  0.0553
   30MOL   C16822266   3.892   2.160   7.127  0.4354 -0.1758 -0.5777
   30MOL   N16922267   4.029   2.186   7.109 -0.2984 -0.0626 -0.0116
   30MOL   H17022268   3.806   2.650   0.416 -1.0648  0.2497  1.1813
   30MOL   H17122269   3.734   2.803   0.368 -1.7263  0.4673  1.4040
   30MOL   H17222270   3.563   2.651   0.440  0.2148 -0.5433  0.1469
   30MOL   H17322271   3.538   2.697   0.278  2.0423  2.5878  0.7223
   30MOL   H17422272   3.500   2.449   0.331  0.7864 -0.9132  1.0698
   30MOL   H17522273   3.670   2.428   0.322 -1.1935 -0.3566  0.9835
   30MOL   H17622274   3.651   2.488   0.084  0.3412  0.0477  1.0967
   30MOL   H17722275   3.487   2.546   0.102  3.1657  1.4532 -3.1804
   30MOL   H17822276   3.432   2.431   7.625 -0.4085 -0.9180 -1.2245
   30MOL   H17922277   3.443   2.131   7.616  0.6520 -0.5693 -1.6088
   30MOL   H18022278   3.317   2.217   7.563 -0.9005  0.6896  0.4509
   30MOL   H18122279   3.456   2.150   7.379  1.2319 -0.4504 -0.7197
   30MOL   H18222280   3.471   2.322   7.381 -1.0972 -1.4374 -1.1421
   30MOL   H18322281   3.662   2.115   7.493 -1.2759  0.0938  0.5043
   30MOL   H18422282   3.706   2.281   7.490 -0.6449  0.0542  0.7671
   30MOL   H18522283   3.659   2.122   7.228  1.4948 -0.7016  0.8920
   30MOL   H18622284   3.670   2.279   7.213 -0.2530 -2.0134 -1.7017
   30MOL   H18722285   3.899   2.291   7.299 -0.4068 -0.5167  2.5378
   30MOL   H18822286   3.894   2.114   7.336 -0.4791 -0.3656 -0.8567
   30MOL   H18922287   3.835   2.220   7.056  1.0053  0.6868 -0.3202
   30MOL   H19022288   3.871   2.059   7.092  2.5855 -0.3335 -1.4574
   30MOL   H19122289   4.091   2.106   7.114 -0.4825 -0.1371  1.4929
   30MOL   C19222290   4.072   2.310   7.066 -0.2961 -0.2390 -0.1292
   30MOL   O19322291   3.998   2.407   7.065  0.3483  0.4736 -0.2611
   30MOL   C19422292   4.216   2.319   7.017 -0.7382  0.2460  0.1030
   30MOL   C19522293   4.292   2.452   7.048 -0.2957 -0.2853 -0.3618
   30MOL   C19622294   4.442   2.445   7.012  0.6874 -0.6870 -0.3289
   30MOL   C19722295   4.516   2.583   6.985 -0.6956  0.2658 -0.2613
   30MOL   C19822296   4.653   2.612   7.049  0.4381 -0.2234  0.0822
   30MOL   O19922297   4.689   2.546   7.142  0.0861 -0.2405  0.2093
   30MOL   N20022298   4.731   2.702   6.983  0.0202  0.0871 -0.6264
   30MOL   C20122299   4.864   2.743   7.020  0.3957  0.1676  0.5662
   30MOL   C20222300   4.869   2.833   7.138  0.9678 -0.2125  0.3636
   30MOL   C20322301   4.786   2.964   7.132 -0.0666  0.2854 -0.2643
   30MOL   C20422302   4.836   3.053   7.240  0.1605 -0.6775 -0.2799
   30MOL   C20522303   4.749   3.170   7.266  0.4263 -0.2709  0.0959
   30MOL   C20622304   4.828   3.302   7.304  0.8225  0.3859 -0.4097
   30MOL   N20722305   4.732   3.412   7.329 -0.1709  0.9205  0.5089
   30MOL   H20822306   4.267   2.234   7.064  0.0331  1.2419  1.1099
   30MOL   H20922307   4.213   2.297   6.911  0.7952 -2.8388  0.6470
   30MOL   H21022308   4.246   2.539   7.000 -1.9786 -0.3275  1.1060
   30MOL   H21122309   4.271   2.477   7.152  1.3182  0.8418 -0.3055
   30MOL   H21222310   4.447   2.378   6.927  0.0050 -0.7425 -0.3299
   30MOL   H21322311   4.495   2.403   7.097 -0.2917 -1.2502  0.0100
   30MOL   H21422312   4.452   2.666   7.015 -0.7078  0.3093 -0.4110
   30MOL   H21522313   4.528   2.597   6.878 -1.0581 -0.7604 -0.4352
   30MOL   H21622314   4.695   2.732   6.894 -0.4690 -1.2235 -0.8799
   30MOL   H21722315   4.926   2.656   7.041 -1.3019 -1.1380  0.2788
   30MOL   H21822316   4.908   2.800   6.938 -1.6200 -0.3904 -0.9486
   30MOL   H21922317   4.829   2.779   7.223  0.7147 -0.2270  0.2343
   30MOL   H22022318   4.975   2.853   7.156  1.3915 -1.2235 -0.8712
   30MOL   H22122319   4.684   2.944   7.165 -0.1868 -0.6422 -1.1734
   30MOL   H22222320   4.772   3.018   7.038 -2.6900  1.0272  0.5119
   30MOL   H22322321   4.845   2.992   7.329 -0.9047  0.6324  0.7373
   30MOL   H22422322   4.936   3.089   7.214  0.5724 -0.6842  1.2611
   30MOL   H22522323   4.692   3.195   7.177  1.0095  3.0603  0.5780
   30MOL   H22622324   4.673   3.140   7.338  1.0435 -3.4178 -0.4881
   30MOL   H22722325   4.894   3.333   7.223  1.1516 -0.8909 -0.6414
   30MOL   H22822326   4.886   3.289   7.395 -1.0417  1.0347  0.9157
   30MOL   H22922327   4.633   3.396   7.324  0.2005 -1.7731  1.0112
   30MOL   C23022328   4.763   3.535   7.380  0.2122  0.1542  0.5283
   30MOL   O23122329   4.881   3.575   7.385 -0.3018 -0.4245 -0.3411
   30MOL   C23222330   4.636   3.616   7.427 -0.4795 -0.0459  0.4231
   30MOL   C23322331   4.668   3.745   7.504 -0.1329  0.5507  0.1116
   30MOL   C23422332   4.545   3.814   7.569  0.0454  0.1234  0.0845
   30MOL   C23522333   4.572   3.968   7.588 -0.3386  0.1786  0.6328
   30MOL   C23622334   4.454   4.057   7.645 -0.8514  0.3386  0.6325
   30MOL   O23722335   4.441   4.167   7.595 -0.4871  0.3182  0.7011
   30MOL   N23822336   4.378   4.004   0.031  1.0241  0.5889  0.7216
   30MOL   C23922337   4.253   4.065   0.083  0.1514  0.2902  0.9656
   30MOL   C24022338   4.135   4.045   7.696  0.6923 -0.2325 -0.7371
   30MOL   C24122339   3.995   4.091   0.052 -0.8695  0.3791  0.5470
   30MOL   C24222340   3.874   4.058   7.672  0.7599 -0.7498 -0.6271
   30MOL   C24322341   3.739   4.104   0.011  0.2642  0.2563 -0.5599
   30MOL   C24422342   3.630   4.041   7.621 -0.1073 -0.3840  0.0327
   30MOL   N24522343   3.655   4.081   7.486  0.0600  0.3695 -0.2916
   30MOL   H24622344   4.582   3.646   7.337 -2.1253 -1.3198  0.9623
   30MOL   H24722345   4.573   3.554   7.490  1.3883 -2.1588  0.2782
   30MOL   H24822346   4.735   3.717   7.585 -1.6649 -1.0167  0.8737
   30MOL   H24922347   4.728   3.801   7.432  1.2034 -3.4965 -2.1173
   30MOL   H25022348   4.524   3.758   7.660 -0.9960 -0.2053 -0.3587
   30MOL   H25122349   4.458   3.807   7.504  0.2659  1.5211 -0.3862
   30MOL   H25222350   4.600   4.024   7.499  0.1119 -0.9184  0.0804
   30MOL   H25322351   4.653   3.974   7.661  1.1360 -2.2015 -0.7488
   30MOL   H25422352   4.392   3.908   0.057  0.0563 -0.6562 -2.9395
   30MOL   H25522353   4.243   4.021   0.182 -0.9490  2.8036  2.0147
   30MOL   H25622354   4.276   4.170   0.102  0.9050  0.0921  1.1594
   30MOL   H25722355   4.154   4.102   7.605 -0.3832 -1.2071 -1.5793
   30MOL   H25822356   4.129   3.938   7.676  0.7744 -0.1667 -1.1073
   30MOL   H25922357   4.014   4.195   0.081  0.1506  0.3809 -0.0777
   30MOL   H26022358   3.994   4.034   0.144  3.2423 -0.4722  0.1831
   30MOL   H26122359   3.895   4.114   7.581  2.9514  0.5439  0.6273
   30MOL   H26222360   3.875   3.951   7.650  1.5879 -0.8314 -0.1997
   30MOL   H26322361   3.708   4.050   0.101  2.1504  1.3195  0.7789
   30MOL   H26422362   3.719   4.208   0.034  2.2526  0.6658 -0.5983
   30MOL   H26522363   3.531   4.073   7.653 -0.1029 -2.0251  1.8057
   30MOL   H26622364   3.642   3.933   7.628  0.5087 -0.3763 -0.8321
   30MOL   H26722365   3.751   4.112   7.475 -0.2151  1.4420  0.3074
   30MOL   C26822366   3.568   4.133   7.390 -0.6445  0.6415  0.3466
   30MOL   O26922367   3.451   4.159   7.414 -0.1775  0.5915  0.0365
   30MOL   C27022368   3.636   4.176   7.259 -0.1390  0.3355  0.2688
   30MOL   C27122369   3.657   4.058   7.161  0.2255 -0.2878  0.0363
   30MOL   C27222370   3.740   3.939   7.213  0.0273  1.0612 -0.5058
   30MOL   C27322371   3.887   3.983   7.200 -0.8081  0.0268 -0.3309
   30MOL   C27422372   3.984   3.867   7.230 -0.4113  0.2394 -0.3296
   30MOL   O27522373   3.976   3.752   7.180  0.0572  0.0160  0.1340
   30MOL   N27622374   4.077   3.894   7.324  0.0611 -0.2659  0.0526
   30MOL   C27722375   4.176   3.804   7.368  0.2144 -0.3532  0.1269
   30MOL   C27822376   4.112   3.703   7.460  0.3896  0.7144 -0.1335
   30MOL   C27922377   4.215   3.615   7.529  0.0093  0.1218 -0.3902
   30MOL   C28022378   4.152   3.484   7.589  1.1626  0.7611 -0.3828
   30MOL   C28122379   4.085   3.497   0.017  0.8045  0.6480  0.2127
   30MOL   C28222380   4.051   3.353   0.069  0.1450 -0.5235  0.0555
   30MOL   N28322381   4.007   3.355   0.212 -0.1307  0.3435 -0.4621
   30MOL   H28422382   3.578   4.255   7.212  1.4300  1.2695 -0.1208
   30MOL   H28522383   3.730   4.221   7.292  0.2594  0.8537 -1.5072
   30MOL   H28622384   3.556   4.030   7.134  0.6816  0.1813 -2.3151
   30MOL   H28722385   3.702   4.100   7.070 -0.2900 -0.9553 -0.5354
   30MOL   H28822386   3.726   3.857   7.143  2.7150 -1.3298  1.5950
   30MOL   H28922387   3.702   3.901   7.308  2.0612 -0.1264 -0.1328
   30MOL   H29022388   3.915   4.060   7.272  0.2160 -0.5061 -0.1642
   30MOL   H29122389   3.906   4.036   7.107  2.1381  2.1213  1.3815
   30MOL   H29222390   4.100   3.985   7.362 -0.9838 -0.7866  2.0035
   30MOL   H29322391   4.213   3.755   7.278  0.1433  1.8473 -1.1303
   30MOL   H29422392   4.264   3.849   7.413  0.0462  1.1403 -1.0082
   30MOL   H29522393   4.045   3.754   7.528  0.2242  2.3752 -1.5142
   30MOL   H29622394   4.047   3.637   7.402 -0.5239  2.8437 -1.5622
   30MOL   H29722395   4.264   3.666   7.611  0.8829 -0.3117 -0.6381
   30MOL   H29822396   4.291   3.585   7.457 -0.5805 -0.0578 -0.9462
   30MOL   H29922397   4.082   3.430   7.525  0.0921  1.6683  0.0246
   30MOL   H30022398   4.237   3.420   7.612  0.6205  0.0516 -0.3485
   30MOL   H30122399   4.167   3.542   0.074  0.1347  2.2342 -0.0493
   30MOL   H30222400   3.997   3.560   0.008 -1.6549 -2.5278  0.9980
   30MOL   H30322401   4.142   3.294   0.067  1.6996  1.8468 -2.7641
   30MOL   H30422402   3.976   3.304   0.006  0.5398 -0.0486 -0.7967
   30MOL   H30522403   3.911   3.381   0.231 -0.3316 -0.4791 -0.3293
   30MOL   C30622404   4.090   3.350   0.313  0.5961 -0.3752  0.1461
   30MOL   O30722405   4.206   3.314   0.310 -0.3929 -0.0651  0.2202
   30MOL   C30822406   4.035   3.391   0.456  0.1840  0.2531 -0.0427
   30MOL   C30922407   4.038   3.280   0.562 -0.4695 -0.0101  0.2331
   30MOL   C31022408   4.181   3.252   0.627  0.3489 -0.7649  0.4840
   30MOL   C31122409   4.206   3.345   0.746  0.4205  0.0150  0.1424
   30MOL   C31222410   4.245   3.497   0.713 -0.6317  0.7166 -0.2489
   30MOL   O31322411   4.320   3.514   0.618 -0.2148 -0.1066 -0.0837
   30MOL   N31422412   4.196   3.593   0.796 -0.5821  0.4093  0.1640
   30MOL   C31522413   4.224   3.734   0.791 -1.2102 -1.3463  0.5443
   30MOL   C31622414   4.367   3.759   0.845  0.2349  1.0740 -0.3104
   30MOL   C31722415   4.398   3.898   0.879 -0.1116 -0.1587  0.1803
   30MOL   C31822416   4.547   3.928   0.898 -0.0301  0.1158  0.1278
   30MOL   C31922417   4.586   4.068   0.937  0.3684 -0.2404  0.2989
   30MOL   C32022418   4.580   4.090   1.091 -0.5330  0.4533 -0.3787
   30MOL   N32122419   4.567   4.229   1.108  0.7319 -0.0134 -0.5810
   30MOL   H32222420   4.092   3.477   0.489  0.5621 -0.3852  0.9756
   30MOL   H32322421   3.936   3.429   0.430 -0.5533 -1.0633  0.7995
   30MOL   H32422422   3.967   3.303   0.641  0.0481 -0.3234  0.7935
   30MOL   H32522423   4.002   3.190   0.513  0.1426 -0.6369  0.9127
   30MOL   H32622424   4.255   3.275   0.550  0.5201 -2.6462  0.0577
   30MOL   H32722425   4.172   3.149   0.661 -0.6301 -0.7970  0.1525
   30MOL   H32822426   4.299   3.301   0.782  0.1814 -0.1874  0.5087
   30MOL   H32922427   4.129   3.342   0.823  0.5250 -1.4564  0.2061
   30MOL   H33022428   4.132   3.559   0.866 -1.6794 -0.6331 -1.3171
   30MOL   H33122429   4.201   3.775   0.693 -0.5433 -1.9481  0.1282
   30MOL   H33222430   4.156   3.777   0.865  0.7148  1.6059  0.6807
   30MOL   H33322431   4.384   3.710   0.941 -0.0733  2.0724  0.2564
   30MOL   H33422432   4.446   3.720   0.779  0.8617  1.5005  0.1814
   30MOL   H33522433   4.349   3.910   0.975  1.1731  0.7196  0.7515
   30MOL   H33622434   4.358   3.966   0.804 -0.8809 -0.6940  0.1070
   30MOL   H33722435   4.593   3.860   0.970  1.8993 -0.1351 -1.3077
   30MOL   H33822436   4.591   3.910   0.800 -0.9257  0.7481 -0.3987
   30MOL   H33922437   4.684   4.104   0.903  0.9436 -2.0006  0.0177
   30MOL   H34022438   4.506   4.117   0.881 -0.1927 -1.6573 -0.1428
   30MOL   H34122439   4.662   4.044   1.147 -0.3064 -0.1725 -1.2237
   30MOL   H34222440   4.487   4.051   1.132 -1.1076  3.5301  1.4273
   30MOL   H34322441   4.501   4.280   1.051  0.9129 -1.7352 -2.3965
   30MOL   C34422442   4.642   4.308   1.178  0.1363  0.0948 -0.5796
   30MOL   O34522443   4.730   4.266   1.247 -1.0667  0.0656  0.6046
   30MOL   C34622444   4.587   4.451   1.194 -0.4737  0.2095  0.0613
   30MOL   C34722445   4.694   4.550   1.244 -0.0155  0.8717  0.0699
   30MOL   C34822446   4.625   4.680   1.288 -0.4307 -0.3591  0.0541
   30MOL   C34922447   4.549   4.758   1.184 -0.7833 -0.1880 -0.2421
   30MOL   C35022448   4.633   4.831   1.084 -0.1567 -0.2164 -0.0593
   30MOL   O35122449   4.756   4.851   1.107 -0.2044 -0.5783  0.1655
   30MOL   N35222450   4.572   4.875   0.973 -0.2292 -0.3591 -0.1120
   30MOL   C35322451   4.640   4.930   0.856 -0.5371  0.5774 -0.2193
   30MOL   C35422452   4.540   5.025   0.783  0.0903  0.4879  0.0405
   30MOL   C35522453   4.507   5.150   0.870  0.1990 -0.0889  0.5970
   30MOL   C35622454   4.476   5.279   0.789  0.0985  0.3025  0.1464
   30MOL   C35722455   4.497   5.406   0.871  0.3658 -1.3342 -0.2789
   30MOL   C35822456   4.530   5.535   0.783 -0.3988  0.7609  0.1937
   30MOL   N35922457   4.676   5.544   0.760  0.5791  0.2983  0.3701
   30MOL   H36022458   4.557   4.489   1.096 -0.3366 -2.9576 -1.2686
   30MOL   H36122459   4.501   4.446   1.259 -0.3433 -4.1364  0.0792
   30MOL   H36222460   4.739   4.509   1.334  0.5910  1.0663 -0.1431
   30MOL   H36322461   4.772   4.561   1.169 -0.5138  2.6135 -0.2088
   30MOL   H36422462   4.703   4.741   1.335 -0.2951 -1.5341  1.3770
   30MOL   H36522463   4.548   4.654   1.361 -0.7012 -0.1755 -0.1672
   30MOL   H36622464   4.474   4.823   1.228 -0.9478 -0.1694 -0.5551
   30MOL   H36722465   4.490   4.683   1.131  1.5690 -2.4692  0.2662
   30MOL   H36822466   4.471   4.881   0.964 -0.1053  0.0031 -1.3401
   30MOL   H36922467   4.730   4.986   0.881  2.1086 -2.1868 -3.0849
   30MOL   H37022468   4.671   4.841   0.801  0.0244 -0.9418  2.4218
   30MOL   H37122469   4.589   5.055   0.691 -0.0816 -0.3950 -0.3427
   30MOL   H37222470   4.451   4.971   0.752 -0.3354  1.1692  0.0812
   30MOL   H37322471   4.583   5.167   0.947 -2.0666  2.7969  2.2650
   30MOL   H37422472   4.420   5.133   0.933 -1.6607 -0.8067 -2.0695
   30MOL   H37522473   4.538   5.294   0.700 -1.2570  1.2087 -0.6693
   30MOL   H37622474   4.373   5.271   0.754  0.3545 -0.8991 -0.3835
   30MOL   H37722475   4.415   5.428   0.940  0.7573 -1.6078  0.2723
   30MOL   H37822476   4.576   5.418   0.944  1.0061  0.7326 -1.2585
   30MOL   H37922477   4.505   5.621   0.846  0.3928  1.4768 -0.4505
   30MOL   H38022478   4.471   5.533   0.691 -0.4554 -2.7909  0.2287
   30MOL   H38122479   4.730   5.499   0.832  0.0171 -0.8057  0.1083
   30MOL   C38222480   4.738   5.618   0.665  0.6985  0.0249 -0.0033
   30MOL   O38322481   4.680   5.683   0.580 -0.0441  0.1554  0.4934
   30MOL   C38422482   4.892   5.625   0.671  0.3825  0.0763  0.4770
   30MOL   C38522483   4.944   5.723   0.778  0.8108 -0.6462  0.5546
   30MOL   C38622484   4.924   5.681   0.928  0.3753  0.0424 -0.1807
   30MOL   C38722485   5.026   5.582   0.982  0.5124  0.1389  0.0779
   30MOL   C38822486   4.957   5.445   1.014 -0.2230 -0.2743 -0.9527
   30MOL   O38922487   4.853   5.405   0.958 -0.5875 -0.1855  0.4406
   30MOL   N39022488   5.026   5.366   1.099  0.4157 -0.2998  0.0716
   30MOL   C39122489   4.998   5.221   1.140  0.3023 -0.5702  0.7592
   30MOL   C39222490   4.901   5.205   1.258 -0.2693 -0.2699  0.2681
   30MOL   C39322491   4.755   5.234   1.231  0.2415  0.0648 -0.6750
   30MOL   C39422492   4.653   5.162   1.324  0.4840 -0.4259  0.3631
   30MOL   C39522493   4.516   5.151   1.254 -0.0538  0.2252 -0.3812
   30MOL   C39622494   4.408   5.078   1.337  0.6540 -0.0386  0.4538
   30MOL   N39722495   4.267   5.097   1.283 -0.0394  0.1520  0.9077
   30MOL   H39822496   4.940   5.532   0.700  0.0437 -0.5203 -0.8534
   30MOL   H39922497   4.925   5.664   0.575  3.8071  1.5245  2.1593
   30MOL   H40022498   5.044   5.763   0.757  0.4004  0.6336  0.9541
   30MOL   H40122499   4.890   5.818   0.777  0.4358 -0.8653 -2.4694
   30MOL   H40222500   4.818   5.668   0.948  0.7306 -0.9315  1.0991
   30MOL   H40322501   4.953   5.775   0.975  2.7028 -0.3516 -0.7224
   30MOL   H40422502   5.076   5.633   1.065  0.6390 -0.6194  0.4744
   30MOL   H40522503   5.108   5.562   0.913  0.4840  0.1861  0.0312
   30MOL   H40622504   5.105   5.413   1.142  0.0766  0.2096  0.1339
   30MOL   H40722505   4.968   5.169   1.049  1.9700 -1.4013  0.6721
   30MOL   H40822506   5.088   5.170   1.174 -0.0270 -2.5259 -1.2188
   30MOL   H40922507   4.906   5.104   1.299 -0.7941 -0.0468  0.9054
   30MOL   H41022508   4.941   5.269   1.338 -0.5214  1.1560 -0.7264
   30MOL   H41122509   4.733   5.230   1.124 -2.4401  2.0473 -0.2485
   30MOL   H41222510   4.745   5.342   1.233  3.1394  0.3628  0.2848
   30MOL   H41322511   4.682   5.057   1.337 -0.8319 -1.1531 -2.1823
   30MOL   H41422512   4.665   5.216   1.417  1.3323  0.1418 -0.0728
   30MOL   H41522513   4.476   5.246   1.218  2.4420  1.5381  0.1992
   30MOL   H41622514   4.519   5.104   1.156 -0.1588  0.8793 -0.7057
   30MOL   H41722515   4.403   5.122   1.437  1.2781 -0.2828  0.5959
   30MOL   H41822516   4.430   4.973   1.357  1.5812 -0.2244 -1.4036
   30MOL   H41922517   4.207   5.167   1.325 -2.1133  1.4561 -3.9086
   30MOL   C42022518   4.211   5.030   1.183 -0.7051 -0.2987 -0.2288
   30MOL   O42122519   4.275   4.955   1.112  0.3484  0.1438 -0.7012
   30MOL   C42222520   4.065   5.067   1.151  0.4437 -0.1088 -0.6418
   30MOL   C42322521   4.048   5.195   1.059 -0.4015  0.4034 -0.3887
   30MOL   C42422522   4.146   5.215   0.941 -0.3992  0.3250 -0.6857
   30MOL   C42522523   4.099   5.314   0.841 -0.0291 -0.4868  0.7399
   30MOL   C42622524   4.012   5.263   0.723 -0.7906  0.6120 -0.4764
   30MOL   O42722525   4.017   5.143   0.691 -0.4635  0.1404  0.4461
   30MOL   N42822526   3.921   5.345   0.673  0.3858 -0.4047  0.0988
   30MOL   C42922527   3.818   5.294   0.582 -0.1807 -0.0431  0.0992
   30MOL   C43022528   3.743   5.397   0.506 -0.0137  0.1772  0.2353
   30MOL   C43122529   3.602   5.344   0.462 -0.1120  0.4714  0.4118
   30MOL   C43222530   3.507   5.456   0.444 -0.1353  0.0001  0.1005
   30MOL   C43322531   3.383   5.430   0.363  0.1774  0.5526  0.6779
   30MOL   C43422532   3.277   5.339   0.433 -0.1655 -0.4442  0.2933
   30MOL   N43522533   3.166   5.307   0.348  0.3202 -0.0729 -0.0932
   30MOL   H43622534   4.022   4.984   1.095 -0.4000 -0.7256  0.8864
   30MOL   H43722535   4.008   5.064   1.244  0.5533 -1.4171 -0.6132
   30MOL   H43822536   3.942   5.188   1.032  0.4530 -1.8181 -3.4451
   30MOL   H43922537   4.057   5.282   1.123  0.0485  0.6621 -0.8043
   30MOL   H44022538   4.178   5.122   0.894  0.1502 -0.9758  2.1619
   30MOL   H44122539   4.232   5.259   0.990 -1.0751 -0.2721  1.0672
   30MOL   H44222540   4.187   5.358   0.794  0.1174 -1.3529  0.2011
   30MOL   H44322541   4.049   5.396   0.893  0.0279 -0.5634  0.9156
   30MOL   H44422542   3.928   5.435   0.718  0.8112 -0.5955  0.4160
   30MOL   H44522543   3.854   5.218   0.513  1.7249  1.1619 -0.2849
   30MOL   H44622544   3.738   5.239   0.632  0.9243 -2.1848 -0.4415
   30MOL   H44722545   3.719   5.479   0.574 -0.3065  3.1178 -3.2280
   30MOL   H44822546   3.802   5.433   0.421 -1.7529 -1.8680 -1.9136
   30MOL   H44922547   3.553   5.285   0.539 -0.8672 -0.5379 -0.8336
   30MOL   H45022548   3.608   5.279   0.375 -4.0459 -0.4265  0.7326
   30MOL   H45122549   3.472   5.490   0.541  0.1890  0.0172  0.2115
   30MOL   H45222550   3.562   5.535   0.393 -2.1868  1.0073 -0.5900
   30MOL   H45322551   3.341   5.521   0.319  0.9274  0.4256 -0.3288
   30MOL   H45422552   3.421   5.386   0.271  0.2005  0.1652  0.8732
   30MOL   H45522553   3.242   5.387   0.524 -1.0095  1.0988 -0.8030
   30MOL   H45622554   3.333   5.252   0.464  0.0737 -0.2061  0.5266
   30MOL   H45722555   3.151   5.360   0.264 -1.8915 -1.1400 -0.3799
   30MOL   C45822556   3.084   5.205   0.374  0.5482  0.0177 -0.2974
   30MOL   O45922557   3.090   5.146   0.480  0.3830 -0.2694 -0.4751
   30MOL   C46022558   2.970   5.178   0.275 -0.0594  0.8326 -0.4617
   30MOL   C46122559   2.836   5.135   0.334 -0.1498 -0.0283 -0.0856
   30MOL   C46222560   2.725   5.156   0.233 -0.6411  0.3080  0.1072
   30MOL   C46322561   2.731   5.077   0.103 -0.1673  0.3976 -0.0403
   30MOL   C46422562   2.796   5.154   7.695  0.3496 -0.0308 -0.7154
   30MOL   O46522563   2.840   5.262   0.009 -0.4969 -0.0928  0.2117
   30MOL   N46622564   2.797   5.091   7.576  0.3986 -0.4976  0.8137
   30MOL   C46722565   2.835   5.170   7.456 -0.1473 -0.6167  0.0178
   30MOL   C46822566   2.785   5.104   7.327 -0.0990  0.2175 -0.6612
   30MOL   C46922567   2.840   5.165   7.198  0.3545  0.3817  0.1244
   30MOL   C47022568   2.826   5.085   7.066 -0.4053 -0.3361 -0.5280
   30MOL   C47122569   2.879   5.148   6.933  0.6012 -0.0600 -0.0497
   30MOL   C47222570   2.855   5.074   6.801  0.5828 -0.3527 -0.2191
   30MOL   N47322571   2.895   5.144   6.674 -0.2927  0.3202 -0.0793
   30MOL   H47422572   2.965   5.270   0.218 -0.9270  0.3285 -1.2128
   30MOL   H47522573   3.004   5.102   0.204 -2.7876 -1.8105  0.9635
   30MOL   H47622574   2.845   5.033   0.372  0.4588  0.3398  0.7907
   30MOL   H47722575   2.817   5.191   0.426  4.5770  0.8879  0.4764
   30MOL   H47822576   2.699   5.260   0.214  0.4306  0.4880 -0.4139
   30MOL   H47922577   2.639   5.115   0.286 -0.3733 -1.0557 -0.4824
   30MOL   H48022578   2.635   5.040   0.067 -0.6832  1.5563  0.1082
   30MOL   H48122579   2.790   4.986   0.117 -2.0325 -1.2128 -2.2862
   30MOL   H48222580   2.754   5.000   7.570  1.4720 -1.0451  1.3914
   30MOL   H48322581   2.809   5.275   7.445 -0.3454 -0.9330 -2.6632
   30MOL   H48422582   2.943   5.160   7.465 -0.3997 -2.7880  1.3426
   30MOL   H48522583   2.813   4.998   7.334  1.0775  0.4815 -1.3243
   30MOL   H48622584   2.676   5.098   7.318 -0.1601  0.5618 -0.1475
   30MOL   H48722585   2.948   5.172   7.210  0.7476 -1.0641 -2.1741
   30MOL   H48822586   2.805   5.267   7.183  0.0100  0.1459 -0.7002
   30MOL   H48922587   2.901   5.007   7.083 -0.8221 -0.8640 -1.1395
   30MOL   H49022588   2.727   5.041   7.062 -1.0148  1.0601 -0.9816
   30MOL   H49122589   2.832   5.246   6.919  0.8109 -0.1804 -1.6705
   30MOL   H49222590   2.984   5.175   6.947  0.3839  0.5081  0.5245
   30MOL   H49322591   2.747   5.061   6.797  0.0521  3.0963  1.5280
   30MOL   H49422592   2.900   4.975   6.808 -0.5205 -1.0297 -2.4625
   30MOL   H49522593   2.852   5.233   6.651  0.5344  1.0366  1.0983
   30MOL   C49622594   3.019   5.123   6.619 -0.0399 -0.2006 -0.1067
   30MOL   O49722595   3.089   5.028   6.660 -0.1451 -0.4840 -0.0251
   30MOL   C49822596   3.074   5.218   6.508  0.0605  0.3516  0.4372
   30MOL   C49922597   3.095   5.146   6.368  0.1185  0.0760  0.2500
   30MOL   C50022598   2.975   5.176   6.272 -0.0262  0.3685 -0.3643
   30MOL   C50122599   2.959   5.322   6.214  0.0358  0.8924  0.1732
   30MOL   C50222600   3.070   5.357   6.124 -0.8059  0.3357  0.4316
   30MOL   O50322601   3.152   5.269   6.091 -0.7582  0.5536 -0.0614
   30MOL   N50422602   3.073   5.486   6.082 -0.3663  0.3753 -0.1413
   30MOL   C50522603   3.166   5.548   5.983  0.4836 -0.7538 -0.8450
   30MOL   C50622604   3.316   5.540   6.031  0.7066  0.3703  0.5302
   30MOL   C50722605   3.406   5.634   5.948 -0.5216  0.6754 -0.1679
   30MOL   C50822606   3.555   5.633   5.976  0.0832  0.3073 -0.5416
   30MOL   C50922607   3.603   5.704   6.101 -0.6580 -0.2199  0.0287
   30MOL   C51022608   3.752   5.696   6.114  0.2349 -0.2775 -0.0343
   30MOL   N51122609   3.795   5.747   6.244 -1.0808  0.2468 -0.1800
   30MOL   H51222610   3.022   5.313   6.497  0.4358  0.5800  0.6269
   30MOL   H51322611   3.175   5.235   6.545  0.6891 -2.2815  0.0046
   30MOL   H51422612   3.185   5.185   6.322 -0.1156  0.7378  0.3356
   30MOL   H51522613   3.109   5.038   6.373 -1.0713 -0.2061 -1.7050
   30MOL   H51622614   2.885   5.153   6.328  0.4436 -0.2598  0.1383
   30MOL   H51722615   2.971   5.106   6.188  3.2313 -0.9840  0.5338
   30MOL   H51822616   2.959   5.383   6.304  1.7180  1.6448 -0.3293
   30MOL   H51922617   2.859   5.338   6.173  0.0198  3.0013  0.9764
   30MOL   H52022618   3.005   5.543   6.130 -0.7196  0.2366 -0.4789
   30MOL   H52122619   3.148   5.505   5.885 -1.3856  0.3378 -1.0080
   30MOL   H52222620   3.124   5.649   5.970 -0.6346 -0.8543  1.7758
   30MOL   H52322621   3.326   5.559   6.138 -1.1276  2.4532  0.3813
   30MOL   H52422622   3.350   5.438   6.018 -1.2084 -0.3523  0.9961
   30MOL   H52522623   3.364   5.734   5.951  0.3030  1.0141  0.1493
   30MOL   H52622624   3.404   5.604   5.843 -1.1876  1.3150 -0.3391
   30MOL   H52722625   3.574   5.527   5.991 -2.8997 -0.4345 -1.7164
   30MOL   H52822626   3.610   5.669   5.888  2.7672  2.5586  1.9524
   30MOL   H52922627   3.579   5.809   6.084 -0.4992 -0.2396 -0.3169
   30MOL   H53022628   3.559   5.668   6.194 -0.2318  0.0040  0.3167
   30MOL   H53122629   3.787   5.753   6.028  0.6239 -1.9242 -0.9819
   30MOL   H53222630   3.787   5.593   6.109  1.2758  0.1330 -1.4268
   30MOL   H53322631   3.829   5.677   6.309 -1.7368  0.6555  0.6054
   30MOL   C53422632   3.777   5.869   6.286  0.2034 -0.1311 -0.3196
   30MOL   O53522633   3.749   5.960   6.206  0.6801  0.4091  0.2123
   30MOL   C53622634   3.787   5.893   6.438  0.7712  0.3569  0.1531
   30MOL   C53722635   3.792   6.048   6.466  0.1027 -0.7926  0.1128
   30MOL   C53822636   3.919   6.114   6.428 -0.2956 -0.3839 -0.4417
   30MOL   C53922637   3.979   6.239   6.499 -0.3596 -0.0985  0.2972
   30MOL   C54022638   4.109   6.296   6.452 -0.1064 -0.6814  0.2341
   30MOL   O54122639   4.149   6.264   6.341 -0.1036  0.0232 -0.6157
   30MOL   N54222640   4.175   6.375   6.536  0.0707  0.2471 -0.3307
   30MOL   C54322641   4.304   6.431   6.500 -0.2690  0.4365  0.0853
   30MOL   C54422642   4.378   6.506   6.609 -0.4039 -0.4776  0.2212
   30MOL   C54522643   4.515   6.544   6.548 -0.2299 -0.4048  0.3161
   30MOL   C54622644   4.603   6.637   6.633  0.0784  0.1769 -0.2455
   30MOL   C54722645   4.568   6.785   6.613 -0.5635  0.1445  1.1700
   30MOL   C54822646   4.660   6.880   6.680 -0.2544  0.1630  0.7303
   30MOL   N54922647   4.592   7.003   6.685 -0.0659  0.4819 -0.6577
   30MOL   H55022648   3.709   5.846   6.497  0.6657  0.0233 -0.2514
   30MOL   H55122649   3.884   5.849   6.463  0.4978  0.9180  2.3094
   30MOL   H55222650   3.699   6.082   6.420 -1.0026 -1.8357  1.5186
   30MOL   H55322651   3.785   6.065   6.574 -1.4791  1.6131 -0.3391
   30MOL   H55422652   3.922   6.150   6.325  1.0326  1.0863  0.0746
   30MOL   H55522653   3.994   6.035   6.433 -0.4210 -0.4730  0.0168
   30MOL   H55622654   3.979   6.224   6.607 -3.9763  1.2275  0.5505
   30MOL   H55722655   3.906   6.319   6.489  0.4545  0.7345  0.9543
   30MOL   H55822656   4.126   6.404   6.620  0.8649 -3.2866  1.4184
   30MOL   H55922657   4.364   6.351   6.457 -0.7056 -0.4282  1.0671
   30MOL   H56022658   4.284   6.501   6.419 -1.5171 -0.0034 -0.0133
   30MOL   H56122659   4.324   6.599   6.630 -0.1098  0.0128 -1.1599
   30MOL   H56222660   4.386   6.451   6.702 -1.6257  2.0302  1.8822
   30MOL   H56322661   4.501   6.601   6.456  2.8449 -0.6299 -0.3579
   30MOL   H56422662   4.564   6.452   6.514 -0.4148 -0.0287 -1.0088
   30MOL   H56522663   4.598   6.609   6.738 -3.8479 -2.3445 -1.0214
   30MOL   H56622664   4.709   6.634   6.609  0.0050  1.0440 -0.7381
   30MOL   H56722665   4.568   6.805   6.506  3.8408 -0.7277  0.8994
   30MOL   H56822666   4.463   6.794   6.639 -1.1212 -2.0799 -0.1092
   30MOL   H56922667   4.755   6.876   6.627 -0.6317 -0.6354  0.0966
   30MOL   H57022668   4.682   6.839   6.779  0.3906  0.5340  0.7464
   30MOL   H57122669   4.541   7.034   6.604 -0.5230 -2.1477 -1.4070
   30MOL   C57222670   4.579   7.076   6.795 -0.1717  0.4705  0.4731
   30MOL   O57322671   4.626   7.052   6.907 -0.0325  0.3513 -0.1715
   30MOL   C57422672   4.473   7.186   6.789  0.2228 -0.5605  0.2142
   30MOL   C57522673   4.382   7.191   6.910  0.3974  0.1343  0.5464
   30MOL   C57622674   4.309   7.058   6.927  0.1299 -0.1279  0.2395
   30MOL   C57722675   4.181   7.059   7.007 -0.2751 -0.5284  0.4886
   30MOL   C57822676   4.122   6.919   7.013  0.9754  0.3674 -0.5247
   30MOL   O57922677   4.117   6.849   6.916 -0.3548 -0.0411  0.2749
   30MOL   N58022678   4.056   6.870   7.121 -0.0046 -0.2262 -0.3944
   30MOL   C58122679   4.004   6.940   7.233  0.7214 -0.5067 -0.8000
   30MOL   C58222680   4.104   6.908   7.340  0.6134  0.2873 -0.0660
   30MOL   C58322681   4.095   7.007   7.457  1.0129  0.1001  0.4189
   30MOL   C58422682   4.194   6.976   7.567  0.6305  0.4725 -0.9199
   30MOL   C58522683   4.162   7.055   7.694  0.2471 -0.3044  0.1357
   30MOL   C58622684   4.263   7.027   0.099 -0.5743 -1.2937 -0.1861
   30MOL   N58722685   4.227   7.077   0.228 -0.1748 -0.5839 -1.0122
   30MOL   H58822686   4.524   7.281   6.770  1.1761 -1.2797 -0.8834
   30MOL   H58922687   4.400   7.172   6.710 -0.4255 -2.9392  1.2011
   30MOL   H59022688   4.444   7.214   6.997 -1.1221  0.6182  1.5283
   30MOL   H59122689   4.322   7.282   6.923  1.2719  0.7023  0.6424
   30MOL   H59222690   4.372   6.980   6.968 -0.4643 -0.8044 -0.1304
   30MOL   H59322691   4.284   7.029   6.825 -0.5175 -1.1197  0.6724
   30MOL   H59422692   4.107   7.121   6.955  0.6326  0.7288  0.6699
   30MOL   H59522693   4.188   7.103   7.106 -2.8966 -3.2450  1.9582
   30MOL   H59622694   4.008   6.782   7.111  0.0971 -0.2501 -0.6769
   30MOL   H59722695   3.996   7.049   7.224 -3.1262 -0.4781  1.9265
   30MOL   H59822696   3.909   6.897   7.264  1.9730 -1.0042  2.5983
   30MOL   H59922697   4.077   6.805   7.362  1.1778  0.2675  0.5702
   30MOL   H60022698   4.205   6.890   7.304 -0.2560 -0.1519 -2.3388
   30MOL   H60122699   3.999   7.001   7.509 -0.6235  1.7338 -2.2878
   30MOL   H60222700   4.103   7.111   7.424 -3.1587 -0.1253 -1.7500
   30MOL   H60322701   4.198   6.870   7.593 -4.4471  0.1667 -0.8409
   30MOL   H60422702   4.292   7.011   7.535  0.3499  1.6977 -0.4707
   30MOL   H60522703   4.166   7.163   7.678 -1.1983  0.0795  2.1273
   30MOL   H60622704   4.060   7.037   0.022  0.4966 -2.3101 -0.1441
   30MOL   H60722705   4.364   7.061   0.072 -1.4311  1.0790 -0.5149
   30MOL   H60822706   4.290   6.923   0.114 -0.1246 -0.9947  1.1205
   30MOL   H60922707   4.142   7.129   0.239  0.5939  0.8236 -1.5889
   30MOL   C61022708   4.308   7.072   0.335  0.0338  0.3680 -0.0424
   30MOL   O61122709   4.426   7.028   0.335 -0.2333 -0.7449 -0.7670
   30MOL   C61222710   4.258   7.140   0.459 -0.9175 -0.4904 -0.3880
   30MOL   C61322711   4.372   7.192   0.556  0.0620  0.5336  0.3486
   30MOL   C61422712   4.316   7.286   0.664 -0.2790  0.0557 -0.1479
   30MOL   C61522713   4.434   7.363   0.726 -0.3388  0.3683 -0.2827
   30MOL   C61622714   4.540   7.428   0.637  1.0322  0.1456 -0.0140
   30MOL   O61722715   4.497   7.518   0.563  0.1480 -0.6295 -0.2311
   30MOL   N61822716   4.666   7.385   0.649 -0.1362  0.1165  0.1382
   30MOL   C61922717   4.787   7.426   0.586 -0.6744 -0.0754  0.4891
   30MOL   C62022718   4.787   7.410   0.438 -0.0425 -0.1739 -0.6975
   30MOL   C62122719   4.773   7.267   0.396  0.4140 -0.8812  0.0420
   30MOL   C62222720   4.746   7.236   0.250 -0.2538  0.1603 -0.6424
   30MOL   C62322721   4.642   7.328   0.181  0.9914  1.3218 -0.2296
   30MOL   C62422722   4.608   7.273   0.044 -0.3082  0.0371  0.2718
   30MOL   N62522723   4.500   7.349   7.694 -0.2026 -0.0559  0.1308
   30MOL   H62622724   4.190   7.220   0.431 -0.1446  0.5011  0.5226
   30MOL   H62722725   4.206   7.070   0.525 -0.9048  0.6118  0.8289
   30MOL   H62822726   4.421   7.111   0.610  2.2660  2.4372  1.2714
   30MOL   H62922727   4.442   7.234   0.484 -0.0416  0.5153  0.2362
   30MOL   H63022728   4.262   7.238   0.746  1.6019  0.0478  1.1191
   30MOL   H63122729   4.254   7.361   0.614 -0.7986  1.5180  2.5794
   30MOL   H63222730   4.488   7.311   0.806  1.7183  1.2341 -1.0526
   30MOL   H63322731   4.381   7.446   0.772  0.4604  1.0659 -0.5917
   30MOL   H63422732   4.679   7.301   0.702  0.7178  1.0999  1.5111
   30MOL   H63522733   4.792   7.531   0.614 -0.5587  0.0218  0.0981
   30MOL   H63622734   4.874   7.377   0.628 -2.6316 -2.8262  1.5079
   30MOL   H63722735   4.703   7.466   0.398  0.5016  0.2794 -1.2289
   30MOL   H63822736   4.877   7.454   0.395 -0.2623 -0.8842 -1.8978
   30MOL   H63922737   4.691   7.224   0.453  1.1001 -0.1333  1.6101
   30MOL   H64022738   4.867   7.222   0.428  2.1101  2.1172 -0.5668
   30MOL   H64122739   4.845   7.237   0.204  0.6397 -1.9401  1.1170
   30MOL   H64222740   4.708   7.134   0.246  1.1194 -0.4523  1.1237
   30MOL   H64322741   4.557   7.328   0.250  1.8033 -1.2018  0.8671
   30MOL   H64422742   4.667   7.432   0.162 -0.6247  1.4544 -1.6724
   30MOL   H64522743   4.586   7.167   0.054 -2.0427  0.1758 -1.6616
   30MOL   H64622744   4.697   7.279   7.690 -0.2338 -1.8769  0.1610
   30MOL   H64722745   4.463   7.429   0.037 -1.7260  1.0257 -2.5785
   30MOL   C64822746   4.461   7.349   7.565 -0.2387 -0.5232  0.4916
   30MOL   O64922747   4.360   7.402   7.528 -0.1989 -0.4668 -0.2044
   30MOL   C65022748   4.547   7.280   7.461  0.0107 -0.5937  0.7226
   30MOL   C65122749   4.526   7.331   7.315  0.2592  0.1301 -0.0276
   30MOL   C65222750   4.616   7.266   7.210  0.2450 -0.1091  0.1097
   30MOL   C65322751   4.764   7.280   7.244 -0.5661 -0.2010  0.0193
   30MOL   C65422752   4.827   7.163   7.310  0.3098  0.7946  0.6830
   30MOL   O65522753   4.816   7.046   7.268  0.5922  0.6711 -0.4487
   30MOL   N65622754   4.903   7.181   7.424  0.3877  0.0246 -0.8397
   30MOL   C65722755   4.979   7.079   7.491 -0.7040 -0.2777 -0.1331
   30MOL   C65822756   4.998   7.121   7.635  0.7343  0.2081  0.4653
   30MOL   C65922757   5.091   7.028   0.002 -0.0681 -0.1839 -0.7493
   30MOL   C66022758   5.102   7.064   0.153 -0.9544  0.3161  0.1744
   30MOL   C66122759   5.194   6.969   0.229 -0.1695 -0.9495 -0.1821
   30MOL   C66222760   5.192   6.991   0.380  1.0493  0.1288 -0.2676
   30MOL   N66322761   5.238   7.131   0.416  0.3692 -0.2536  0.2823
   30MOL   H66422762   4.651   7.289   7.494 -0.5605  1.7130  1.9318
   30MOL   H66522763   4.525   7.175   7.482 -0.0303 -0.4996  1.1458
   30MOL   H66622764   4.425   7.310   7.278 -0.7170  2.3206  1.2928
   30MOL   H66722765   4.533   7.440   7.315  0.7962  0.0978 -1.1394
   30MOL   H66822766   4.596   7.306   7.111  0.5727 -0.6099 -0.1614
   30MOL   H66922767   4.598   7.159   7.207  1.7488 -0.3624 -0.4963
   30MOL   H67022768   4.789   7.374   7.294  0.8615 -0.6330  0.1177
   30MOL   H67122769   4.832   7.291   7.160  0.6844  0.5585  1.1148
   30MOL   H67222770   4.912   7.275   7.460  0.7685 -1.3431  2.9489
   30MOL   H67322771   4.929   6.982   7.497 -0.5280 -0.5118 -1.9933
   30MOL   H67422772   5.074   7.078   7.437 -0.4199  2.2346  0.2912
   30MOL   H67522773   5.048   7.217   7.630  1.5411 -0.3220 -2.3136
   30MOL   H67622774   4.905   7.131   7.692  1.4027 -1.6396  1.9153
   30MOL   H67722775   5.193   7.028   7.671 -0.0597  2.7891 -0.8337
   30MOL   H67822776   5.059   6.925   7.695 -0.7710  0.1372 -1.4698
   30MOL   H67922777   5.141   7.166   0.151  0.1306 -0.0936 -0.0945
   30MOL   H68022778   5.001   7.059   0.194 -0.6311 -1.5507  0.8118
   30MOL   H68122779   5.156   6.869   0.210 -3.8626  0.2422  0.5747
   30MOL   H68222780   5.296   6.972   0.190  0.5938 -0.7575  1.7995
   30MOL   H68322781   5.249   6.912   0.429  1.4268  0.5306 -0.0580
   30MOL   H68422782   5.092   6.968   0.417  0.6527 -3.3470 -3.1795
   30MOL   H68522783   5.317   7.172   0.369 -0.9223  2.0540  0.0750
   30MOL   C68622784   5.181   7.202   0.514 -1.2165  0.7374 -0.1418
   30MOL   O68722785   5.092   7.152   0.578 -0.1223 -0.2681 -0.1275
   30MOL   C68822786   5.233   7.343   0.549  0.0974 -0.2836  0.2163
   30MOL   C68922787   5.334   7.358   0.666 -0.3466  0.3823  0.7417
   30MOL   C69022788   5.466   7.303   0.621  0.5373 -0.2111  0.5885
   30MOL   C69122789   5.569   7.345   0.729  0.7453  0.4139 -0.4969
   30MOL   C69222790   5.679   7.249   0.742 -0.6034  0.4939  0.3491
   30MOL   O69322791   5.653   7.128   0.754 -0.4246  0.0390  0.2042
   30MOL   N69422792   5.803   7.293   0.750 -0.0696  0.2331  1.1605
   30MOL   C69522793   5.925   7.210   0.737 -0.1979 -0.0553 -0.0972
   30MOL   C69622794   5.976   7.206   0.595 -0.6668 -0.2713 -0.2976
   30MOL   C69722795   6.005   7.354   0.541  0.4420  0.1940  0.1406
   30MOL   C69822796   6.083   7.350   0.408 -0.0688 -0.3172  0.9144
   30MOL   C69922797   6.115   7.490   0.368 -0.6647 -0.2094 -0.0140
   30MOL   C70022798   6.182   7.583   0.473 -0.3243 -0.2426  1.0530
   30MOL   N70122799   6.252   7.701   0.419 -0.0314 -0.3132 -0.4234
   30MOL   H70222800   5.265   7.399   0.461  1.7283 -0.7375  0.5054
   30MOL   H70322801   5.145   7.400   0.580  0.3812  0.6360 -0.6752
   30MOL   H70422802   5.336   7.465   0.689 -1.4079  0.3116  1.1913
   30MOL   H70522803   5.294   7.300   0.750 -1.4608  0.6778  0.4292
   30MOL   H70622804   5.498   7.362   0.535 -2.9536 -0.8379 -1.2134
   30MOL   H70722805   5.460   7.195   0.605  3.1913 -0.2515 -0.5194
   30MOL   H70822806   5.518   7.348   0.826  2.2607  1.0086  0.2917
   30MOL   H70922807   5.602   7.446   0.704  0.7585  0.8026  1.0592
   30MOL   H71022808   5.822   7.392   0.742  0.6386  0.1200  1.4410
   30MOL   H71122809   6.004   7.260   0.793  0.3213 -0.8575 -0.1069
   30MOL   H71222810   5.912   7.110   0.779 -2.9699  0.4742  0.4399
   30MOL   H71322811   6.061   7.138   0.586 -0.8388 -0.2855 -2.1823
   30MOL   H71422812   5.893   7.169   0.534 -2.5577  1.4388  1.1780
   30MOL   H71522813   6.056   7.405   0.624 -0.0852  1.4824 -0.3170
   30MOL   H71622814   5.908   7.399   0.523  0.2909 -1.0546 -2.3764
   30MOL   H71722815   6.180   7.302   0.401  0.9192  2.0276 -2.9758
   30MOL   H71822816   6.016   7.298   0.339  2.2469 -0.0887 -1.5553
   30MOL   H71922817   6.181   7.488   0.281 -0.1689 -0.5565  0.3666
   30MOL   H72022818   6.027   7.535   0.322 -0.8902 -0.0071  0.6179
   30MOL   H72122819   6.256   7.511   0.509  1.2018  0.8917  0.2539
   30MOL   H72222820   6.110   7.618   0.548 -1.4231  1.0684 -0.5969
   30MOL   H72322821   6.348   7.705   0.451 -0.7492 -1.5355  2.0830
   30MOL   C72422822   6.203   0.103   0.357 -0.3150 -0.0856  0.3328
   30MOL   O72522823   6.286   0.198   0.341 -0.5317  0.0343  0.4767
   30MOL   C72622824   6.056   0.113   0.314 -0.0656 -0.1120  0.4757
   30MOL   C72722825   6.017   0.249   0.265  0.2782  0.1064 -0.1120
   30MOL   C72822826   5.869   0.250   0.226 -0.0850 -0.1740  0.2880
   30MOL   C72922827   5.810   0.394   0.226  0.9283  0.0540  0.5024
   30MOL   C73022828   5.667   0.403   0.177 -0.4559  0.4627 -0.1658
   30MOL   O73122829   5.649   0.401   0.055 -0.1482  0.9587  0.0102
   30MOL   N73222830   5.569   0.419   0.269 -0.4077  0.6495 -0.2750
   30MOL   C73322831   5.431   0.436   0.233 -0.3796  0.2023  0.3926
   30MOL   C73422832   5.396   0.580   0.209  0.5080 -0.1299 -0.0037
   30MOL   C73522833   5.241   0.591   0.229  0.4040  0.1988  0.0810
   30MOL   C73622834   5.195   0.729   0.191 -0.6815  0.8254 -0.3252
   30MOL   C73722835   5.181   0.764   0.041  0.7940  0.0143 -0.2105
   30MOL   C73822836   5.066   0.863   0.017  0.2050 -0.4059 -0.8126
   30MOL   N73922837   5.048   0.892   7.585 -0.1920  0.4482  0.0366
   30MOL   H74022838   6.036   0.056   0.224 -1.1555  0.9398  0.0431
   30MOL   H74122839   5.990   0.072   0.390 -1.2079 -2.8296 -1.9207
   30MOL   H74222840   6.035   0.333   0.333  0.2584  0.2773 -0.3181
   30MOL   H74322841   6.064   0.277   0.171 -3.1878  1.0433 -1.6568
   30MOL   H74422842   5.811   0.182   0.288 -2.2209 -0.3575 -1.8510
   30MOL   H74522843   5.857   0.203   0.128  0.0628 -1.2689  0.7903
   30MOL   H74622844   5.864   0.454   0.152 -1.3005  1.5463  0.0528
   30MOL   H74722845   5.814   0.445   0.323 -0.9220  0.0473  0.5938
   30MOL   H74822846   5.599   0.408   0.365 -2.5411  0.7467  0.4264
   30MOL   H74922847   5.406   0.382   0.141 -0.4523  1.4025 -0.3078
   30MOL   H75022848   5.384   0.398   0.323  1.2092  0.5666  1.3876
   30MOL   H75122849   5.432   0.652   0.283  3.2374 -0.1327 -1.2748
   30MOL   H75222850   5.415   0.607   0.106 -0.2069  0.7254  0.0773
   30MOL   H75322851   5.212   0.566   0.331  1.8773 -4.6201 -0.5598
   30MOL   H75422852   5.192   0.514   0.169 -1.0822 -0.0887  1.6269
   30MOL   H75522853   5.102   0.738   0.246  0.5056 -1.9146  2.2763
   30MOL   H75622854   5.263   0.805   0.228 -0.4884  1.6533 -2.3152
   30MOL   H75722855   5.270   0.821   0.012  0.9761 -0.0211  0.2739
   30MOL   H75822856   5.178   0.670   7.695 -0.0992 -0.6246  0.9377
   30MOL   H75922857   5.079   0.954   0.076 -0.5640 -0.9139  0.1600
   30MOL   H76022858   4.973   0.823   0.058  1.1062 -0.2562  1.4523
   30MOL   H76122859   5.051   0.809   7.527 -0.8824 -0.2058  0.9189
   30MOL   H76222860   4.952   0.916   7.564  0.2444  1.7653 -0.4896
   31MOL     C122861   3.256   5.377   0.841 -0.5570  0.1893 -0.4211
   31MOL     O222862   3.208   5.489   0.859  0.5654  0.0702  0.4590
   31MOL     C322863   3.390   5.341   0.915 -0.4159 -0.4032 -0.6450
   31MOL     C422864   3.514   5.408   0.851  0.2936 -0.1551  0.7691
   31MOL     C522865   3.528   5.561   0.872  0.0674 -0.1415 -0.0012
   31MOL     C622866   3.639   5.634   0.794 -0.0667  0.6523 -0.3319
   31MOL     C722867   3.659   5.772   0.855  0.4879  0.3992  0.4637
   31MOL     O822868   3.709   5.783   0.968  0.0248 -0.1386  0.1139
   31MOL     N922869   3.627   5.879   0.785 -0.7306 -0.0679  0.6401
   31MOL    C1022870   3.666   6.021   0.804  0.2359  0.3301 -0.1657
   31MOL    C1122871   3.681   6.095   0.661  0.1374  0.2967  0.5452
   31MOL    C1222872   3.547   6.147   0.601 -0.4647 -0.4591  0.6887
   31MOL    C1322873   3.574   6.215   0.468  0.2560  0.7324 -0.3641
   31MOL    C1422874   3.456   6.314   0.440  0.8253  0.4947 -0.9249
   31MOL    C1522875   3.470   6.391   0.313  0.3509  0.4519  0.1562
   31MOL    N1622876   3.366   6.498   0.326 -0.5726 -0.0524 -0.3240
   31MOL    H1722877   3.372   5.377   1.016 -2.0449 -1.3509 -0.5767
   31MOL    H1822878   3.398   5.232   0.916 -0.6268 -0.4067  1.4098
   31MOL    H1922879   3.606   5.378   0.902  0.1200 -0.5038  0.8745
   31MOL    H2022880   3.518   5.377   0.747 -0.4981 -1.3341  1.0768
   31MOL    H2122881   3.539   5.575   0.980  0.1184  0.7261 -0.1130
   31MOL    H2222882   3.428   5.601   0.857  0.5285  0.5935 -1.2525
   31MOL    H2322883   3.609   5.645   0.690  1.8170 -0.9345 -1.0792
   31MOL    H2422884   3.730   5.573   0.792  0.0421  0.8339 -0.8549
   31MOL    H2522885   3.587   5.849   0.697 -1.8443  0.0729  1.0937
   31MOL    H2622886   3.596   6.061   0.877  1.6968  0.9434  0.9308
   31MOL    H2722887   3.765   6.033   0.847 -0.0946 -0.4199  0.8331
   31MOL    H2822888   3.747   6.182   0.667  0.4333  0.3098 -2.0821
   31MOL    H2922889   3.728   6.034   0.584  1.1118  0.2727  1.1513
   31MOL    H3022890   3.503   6.220   0.669 -0.4038  1.6747 -1.4696
   31MOL    H3122891   3.481   6.062   0.580  1.6398 -1.5460 -1.8310
   31MOL    H3222892   3.665   6.272   0.484 -0.5460  1.5117  1.6101
   31MOL    H3322893   3.587   6.141   0.388 -1.1409  0.4085 -0.3078
   31MOL    H3422894   3.360   6.262   0.443  0.5990  0.8689 -1.6682
   31MOL    H3522895   3.447   6.381   0.526  0.9605  1.1888 -1.4466
   31MOL    H3622896   3.444   6.337   0.222  1.3372 -0.8580  0.6349
   31MOL    H3722897   3.565   6.442   0.298 -1.1012  3.3439  0.4570
   31MOL    H3822898   3.351   6.536   0.418  0.5473 -0.5356  0.0643
   31MOL    H3922899   3.206   5.289   0.798  0.7484 -0.9621  0.3670
   31MOL    C4022900   3.310   6.562   0.223 -0.6055 -0.5277  0.2193
   31MOL    O4122901   3.335   6.528   0.110  0.2146 -0.1316  0.5690
   31MOL    C4222902   3.220   6.689   0.247 -0.7595 -0.0630 -0.3081
   31MOL    C4322903   3.110   6.707   0.140 -0.5392 -0.2462  0.0404
   31MOL    C4422904   3.016   6.586   0.121 -0.3221  0.7112 -0.1458
   31MOL    C4522905   2.917   6.563   0.234 -0.4694 -0.3515  0.6315
   31MOL    C4622906   2.832   6.433   0.231  1.0849  0.4523 -0.7394
   31MOL    O4722907   2.845   6.360   0.137 -0.1740  0.2267  0.1482
   31MOL    N4822908   2.737   6.419   0.326 -0.5000 -0.2808  0.1349
   31MOL    C4922909   2.645   6.305   0.336  0.1990 -0.0559 -0.3124
   31MOL    C5022910   2.524   6.318   0.427 -0.2410 -0.1175  0.4376
   31MOL    C5122911   2.431   6.194   0.426 -0.4220  0.2189  0.5950
   31MOL    C5222912   2.492   6.077   0.498  0.2238 -0.1352  0.0970
   31MOL    C5322913   2.418   5.948   0.463 -0.4837  0.3573 -0.7765
   31MOL    C5422914   2.507   5.826   0.490 -0.5356 -0.9157  0.1179
   31MOL    N5522915   2.470   5.719   0.415 -0.1597  0.7800  0.1418
   31MOL    H5622916   3.181   6.680   0.348  0.9019 -1.1101  0.2555
   31MOL    H5722917   3.285   6.776   0.249 -1.4751  0.4869 -0.4631
   31MOL    H5822918   3.052   6.793   0.173 -0.3505 -0.4808  1.0036
   31MOL    H5922919   3.148   6.752   0.049  0.7173  1.0432  1.1854
   31MOL    H6022920   3.068   6.493   0.098 -2.1806 -0.4613  0.3131
   31MOL    H6122921   2.952   6.608   0.035 -0.3327  0.2339 -0.2641
   31MOL    H6222922   2.854   6.651   0.243 -0.5534 -0.2568 -0.8291
   31MOL    H6322923   2.971   6.571   0.329 -0.3119  1.9454  0.3694
   31MOL    H6422924   2.743   6.490   0.398 -1.2222  0.1287 -0.2026
   31MOL    H6522925   2.606   6.304   0.234  0.4228 -1.1962 -0.3915
   31MOL    H6622926   2.707   6.215   0.339 -1.4376 -1.1669  0.2298
   31MOL    H6722927   2.556   6.341   0.529 -2.0207 -1.1185  1.2525
   31MOL    H6822928   2.461   6.403   0.402 -1.4711 -1.1939 -0.2019
   31MOL    H6922929   2.418   6.162   0.323 -0.7732  0.9304  0.4098
   31MOL    H7022930   2.333   6.217   0.468  0.1395  1.2926  1.3410
   31MOL    H7122931   2.597   6.070   0.470  0.2908  2.7859 -0.5093
   31MOL    H7222932   2.479   6.086   0.606  4.0308 -1.2729  0.7386
   31MOL    H7322933   2.331   5.943   0.529  2.3217 -3.1888  2.8521
   31MOL    H7422934   2.368   5.951   0.366 -1.4133  1.6484 -0.2823
   31MOL    H7522935   2.483   5.792   0.591 -0.3365  4.0233  1.9772
   31MOL    H7622936   2.612   5.845   0.468 -0.3474 -1.6809  0.3520
   31MOL    H7722937   2.372   5.716   0.390 -0.3103  1.4980  0.6501
   31MOL    C7822938   2.539   5.602   0.403 -0.4653  1.0558  0.0683
   31MOL    O7922939   2.655   5.598   0.450 -0.3114  0.5237  0.7168
   31MOL    C8022940   2.469   5.484   0.339  0.4206 -0.5812 -0.0657
   31MOL    C8122941   2.445   5.357   0.422  0.1405 -0.1534  0.3863
   31MOL    C8222942   2.348   5.367   0.540 -0.8356  0.7759 -0.1829
   31MOL    C8322943   2.202   5.406   0.505  0.0210  0.2558  0.0772
   31MOL    C8422944   2.158   5.546   0.543 -0.3361 -0.1911 -1.1197
   31MOL    O8522945   2.188   5.642   0.472 -0.2571 -0.3322  0.2828
   31MOL    N8622946   2.104   5.570   0.663  0.2398  0.3967 -0.3467
   31MOL    C8722947   2.095   5.690   0.735  0.0871  0.1771  0.3290
   31MOL    C8822948   2.002   5.667   0.857  0.0608  0.2070 -0.4180
   31MOL    C8922949   2.073   5.657   0.989 -0.4846 -0.7947 -0.2190
   31MOL    C9022950   1.980   5.674   1.109  0.4924 -0.1178  0.1702
   31MOL    C9122951   2.050   5.661   1.243 -0.2518 -0.0367  0.6836
   31MOL    C9222952   1.961   5.669   1.360 -0.6590  0.1617  0.4474
   31MOL    N9322953   1.887   5.798   1.375  0.0862 -0.0313 -0.0816
   31MOL    H9422954   2.370   5.521   0.310  0.2963  1.5751  2.8467
   31MOL    H9522955   2.539   5.458   0.260  1.8343 -1.7518  1.5553
   31MOL    H9622956   2.404   5.285   0.352  0.1834 -2.1343  2.3452
   31MOL    H9722957   2.539   5.312   0.455 -0.0494  0.4341  1.7578
   31MOL    H9822958   2.399   5.429   0.614 -1.4733 -0.1027  1.0150
   31MOL    H9922959   2.355   5.266   0.579  2.1573  0.8813 -0.3464
   31MOL   H10022960   2.133   5.336   0.551  0.8610 -0.6842 -0.0641
   31MOL   H10122961   2.192   5.396   0.397  0.1071  0.9814 -0.0005
   31MOL   H10222962   2.070   5.491   0.717  0.7973 -0.2209 -0.8834
   31MOL   H10322963   2.194   5.725   0.766  0.0444  1.7207 -1.1743
   31MOL   H10422964   2.050   5.769   0.675  0.1756 -0.4984 -0.6371
   31MOL   H10522965   1.924   5.743   0.853 -0.7841 -0.6577 -0.6328
   31MOL   H10622966   1.946   5.574   0.844 -0.8231  1.0155 -2.6237
   31MOL   H10722967   2.161   5.721   0.993 -0.6061 -0.5699 -1.0744
   31MOL   H10822968   2.116   5.557   0.994  1.5756  0.0572 -0.5078
   31MOL   H10922969   1.934   5.773   1.110  2.2019  0.6938  1.0036
   31MOL   H11022970   1.902   5.599   1.116  1.9656 -1.5399  1.9024
   31MOL   H11122971   2.103   5.566   1.242 -0.4392 -0.1444  0.8811
   31MOL   H11222972   2.128   5.737   1.251 -1.4813  1.3166 -0.0419
   31MOL   H11322973   2.028   5.664   1.445 -1.7746 -0.9921  1.2705
   31MOL   H11422974   1.891   5.585   1.365 -0.9232 -0.0019 -3.9495
   31MOL   H11522975   1.925   5.880   1.332 -2.5273  1.1785 -0.2045
   31MOL   C11622976   1.770   5.815   1.436 -0.1532 -0.2410 -0.4522
   31MOL   O11722977   1.711   5.737   1.509 -0.1863  0.5573  0.1082
   31MOL   C11822978   1.709   5.955   1.422 -0.0526  0.2203  0.4119
   31MOL   C11922979   1.560   5.957   1.381  0.4201  0.3546  0.3015
   31MOL   C12022980   1.452   5.918   1.494  0.8862 -0.0274 -0.1805
   31MOL   C12122981   1.308   5.905   1.438 -0.0864 -0.5437 -0.0276
   31MOL   C12222982   1.210   5.862   1.542  0.4914 -0.2973  0.2800
   31MOL   O12322983   1.237   5.874   1.660  0.5986  0.8160  0.3683
   31MOL   N12422984   1.097   5.805   1.502 -0.1519 -0.0341  0.2825
   31MOL   C12522985   0.980   5.792   1.589  0.3142 -0.0630 -0.2929
   31MOL   C12622986   0.922   5.938   1.614 -0.1523  0.2993 -0.0041
   31MOL   C12722987   0.790   5.918   1.684 -1.3176 -0.0635 -0.2831
   31MOL   C12822988   0.718   6.048   1.709  0.2649  0.3934 -0.0891
   31MOL   C12922989   0.570   6.025   1.760 -0.6556  0.7860  0.0296
   31MOL   C13022990   0.498   6.157   1.784 -0.1595  0.0269 -0.1162
   31MOL   N13122991   0.442   6.163   1.914  0.0342  0.6124  0.4424
   31MOL   H13222992   1.729   6.000   1.519 -0.2773  0.8862  0.1532
   31MOL   H13322993   1.765   6.010   1.346  0.6102 -0.8876  0.0847
   31MOL   H13422994   1.532   6.056   1.344 -0.4666  0.5439  1.4337
   31MOL   H13522995   1.545   5.887   1.299  1.1446  3.7544 -2.8773
   31MOL   H13622996   1.450   5.988   1.578  0.4693 -0.3933  0.1199
   31MOL   H13722997   1.477   5.829   1.551 -1.9820  0.3726  1.8450
   31MOL   H13822998   1.311   5.827   1.361  1.6722 -0.9558  0.4192
   31MOL   H13922999   1.283   6.004   1.401 -2.9687 -1.1341  0.2890
   31MOL   H14023000   1.087   5.765   1.410 -1.9742 -2.2608  1.4034
   31MOL   H14123001   0.908   5.725   1.542 -1.3951  1.1520  0.5396
   31MOL   H14223002   1.000   5.745   1.686  0.7836 -1.6224 -1.1235
   31MOL   H14323003   0.997   5.985   1.677 -0.3773  0.8684 -0.1640
   31MOL   H14423004   0.922   5.996   1.522 -1.4763  0.4643  0.0996
   31MOL   H14523005   0.812   5.871   1.780  0.0421 -1.7809 -1.4102
   31MOL   H14623006   0.728   5.849   1.627 -0.0809 -2.1469  0.8041
   31MOL   H14723007   0.764   6.109   1.786  1.5848 -1.2007  0.3976
   31MOL   H14823008   0.718   6.104   1.615  1.2528 -1.9237 -1.5149
   31MOL   H14923009   0.517   5.971   1.682 -0.3949  0.4961  0.0522
   31MOL   H15023010   0.578   5.956   1.844 -2.6112 -0.1906 -0.5689
   31MOL   H15123011   0.421   6.173   1.709 -0.7794 -0.5361  0.3997
   31MOL   H15223012   0.569   6.240   1.781  1.8585 -1.7018 -2.2080
   31MOL   H15323013   0.479   6.236   1.973 -0.5903  1.0259  0.3279
   31MOL   C15423014   0.332   6.096   1.956  0.4012  0.0177  0.0844
   31MOL   O15523015   0.280   6.010   1.875 -0.3624 -0.4939  0.3703
   31MOL   C15623016   0.270   6.131   2.092  0.3923  0.3878  0.5542
   31MOL   C15723017   0.197   6.266   2.081 -0.2779  0.5570 -0.4344
   31MOL   C15823018   0.060   6.254   2.021  0.8056 -0.5914  0.3200
   31MOL   C15923019   7.663   6.176   2.105  0.3812 -0.6718 -0.0546
   31MOL   C16023020   7.626   6.235   2.238 -0.3591  0.7557  0.3684
   31MOL   O16123021   7.573   6.344   2.252 -0.2256  0.1887 -0.4478
   31MOL   N16223022   7.657   6.166   2.347 -0.1798  0.1305  0.2206
   31MOL   C16323023   7.644   6.215   2.484  0.0170  0.1021  0.1452
   31MOL   C16423024   7.533   6.150   2.565  0.2066  0.6442 -0.0401
   31MOL   C16523025   7.523   6.211   2.702  0.4091  0.1274 -0.8295
   31MOL   C16623026   7.418   6.143   2.802  0.1972  0.4878 -0.8208
   31MOL   C16723027   7.453   5.997   2.838 -0.1599  0.1015  0.2023
   31MOL   C16823028   7.386   5.934   2.960 -0.2027 -0.4951 -0.5082
   31MOL   N16923029   7.427   5.796   2.967  0.0410 -0.8048 -0.0265
   31MOL   H17023030   0.202   6.050   2.119  0.0666  0.0874 -1.1246
   31MOL   H17123031   0.355   6.125   2.161 -0.7163 -1.3727  1.8212
   31MOL   H17223032   0.191   6.313   2.179  1.1624 -1.1850  0.5159
   31MOL   H17323033   0.254   6.335   2.018 -0.8963 -0.0370 -1.6702
   31MOL   H17423034   0.061   6.219   1.918 -1.8147  0.4563 -0.1149
   31MOL   H17523035   0.023   6.354   2.001 -0.7111 -1.3594 -0.8887
   31MOL   H17623036   7.691   6.071   2.105 -1.1316 -1.0832 -1.1954
   31MOL   H17723037   7.570   6.183   2.049 -0.1431 -2.3664  0.5730
   31MOL   H17823038   7.706   6.079   2.332 -0.8922 -0.1546 -0.4616
   31MOL   H17923039   0.034   6.196   2.529  0.4911  0.8486 -0.5663
   31MOL   H18023040   7.633   6.323   2.483 -0.2321  0.0791 -3.0107
   31MOL   H18123041   7.436   6.171   2.520  0.1493  0.9963  0.2458
   31MOL   H18223042   7.548   6.042   2.572  1.2492  0.7513 -0.6162
   31MOL   H18323043   7.479   6.309   2.683 -1.5525 -1.1689 -3.2569
   31MOL   H18423044   7.619   6.221   2.753 -0.5313  1.0578  0.8239
   31MOL   H18523045   7.402   6.195   2.896 -1.9016  0.8472 -1.3436
   31MOL   H18623046   7.316   6.134   2.764 -0.6049  0.2850  1.3358
   31MOL   H18723047   7.434   5.932   2.752 -0.4112 -1.0424  1.1158
   31MOL   H18823048   7.561   5.988   2.840 -0.1954 -0.6955 -0.8332
   31MOL   H18923049   7.278   5.932   2.948 -0.5561 -1.0681  2.3654
   31MOL   H19023050   7.401   5.991   3.052 -0.9487 -2.4174  0.8464
   31MOL   H19123051   7.384   5.744   2.892 -0.0116 -0.2895 -0.3495
   31MOL   C19223052   7.489   5.723   3.060  0.5712  0.5464  0.0083
   31MOL   O19323053   7.526   5.777   3.162 -0.2321 -0.3491  0.2509
   31MOL   C19423054   7.534   5.588   3.020  0.2365  0.0495 -0.4199
   31MOL   C19523055   7.572   5.499   3.138  0.1255  0.5779  0.6803
   31MOL   C19623056   7.601   5.357   3.085 -0.1812  0.3448  0.0577
   31MOL   C19723057   7.614   5.253   3.199  0.8944  0.8274  0.0407
   31MOL   C19823058   7.651   5.124   3.128 -0.0748  0.3286  0.0986
   31MOL   O19923059   0.061   5.106   3.100  0.0098  0.0849 -0.5003
   31MOL   N20023060   7.549   5.048   3.091  0.7903 -0.0322 -0.5348
   31MOL   C20123061   7.555   4.937   2.997  0.7099  0.2706 -0.1262
   31MOL   C20223062   7.457   4.953   2.877 -0.5391 -0.0971  0.5177
   31MOL   C20323063   7.482   4.836   2.775  0.0374 -0.4408 -0.0576
   31MOL   C20423064   7.409   4.697   2.796 -0.1568  0.2824 -0.0462
   31MOL   C20523065   7.262   4.688   2.776 -0.3118 -1.0871  0.1166
   31MOL   C20623066   7.194   4.555   2.793  0.0647  0.2868  0.0222
   31MOL   N20723067   7.053   4.570   2.734  0.3511  0.1512 -0.6171
   31MOL   H20823068   7.460   5.527   2.970 -0.6827  1.5527 -0.9423
   31MOL   H20923069   7.618   5.593   2.951 -0.3091 -0.1616 -1.1015
   31MOL   H21023070   7.655   5.544   3.192  1.0411 -0.4472  0.1635
   31MOL   H21123071   7.494   5.484   3.213 -0.5065 -1.8364 -0.3831
   31MOL   H21223072   7.692   5.353   3.024 -0.1167  0.3657  0.1508
   31MOL   H21323073   7.526   5.336   3.009 -0.5909  0.3641  0.4569
   31MOL   H21423074   7.516   5.254   3.247  0.8111 -1.6495 -0.0002
   31MOL   H21523075   7.686   5.287   3.273 -1.1136  0.5860  2.1938
   31MOL   H21623076   7.464   5.073   3.139  0.3319 -1.9165 -0.3304
   31MOL   H21723077   7.658   4.928   2.962  0.7051  1.1036 -0.3679
   31MOL   H21823078   7.517   4.849   3.049 -1.8954  1.7178  0.4913
   31MOL   H21923079   7.360   4.922   2.916  0.2333 -2.0860  0.9157
   31MOL   H22023080   7.456   5.054   2.836 -2.1868 -0.2683  0.0775
   31MOL   H22123081   7.589   4.816   2.767  0.3966  1.2664  0.4855
   31MOL   H22223082   7.455   4.875   2.677  2.0565 -0.3954 -0.6148
   31MOL   H22323083   7.451   4.624   2.728 -0.2656 -1.1454  1.3805
   31MOL   H22423084   7.429   4.646   2.890 -3.2747 -1.2179 -0.1454
   31MOL   H22523085   7.212   4.762   2.838 -0.2810 -0.1585 -0.9346
   31MOL   H22623086   7.239   4.708   2.671 -0.7848 -1.3773  0.1665
   31MOL   H22723087   7.180   4.531   2.898 -0.3307 -0.5082 -0.2083
   31MOL   H22823088   7.245   4.468   2.752 -0.4642 -2.6291  5.1228
   31MOL   H22923089   6.993   4.624   2.794  2.2587 -1.7398  3.2092
   31MOL   C23023090   7.004   4.533   2.618  1.0450 -0.2818  0.0302
   31MOL   O23123091   7.068   4.477   2.535 -0.7045  0.3882  0.5267
   31MOL   C23223092   6.857   4.559   2.606  0.6117  0.2369  0.0852
   31MOL   C23323093   6.820   4.664   2.494  0.1592  1.0120 -0.2037
   31MOL   C23423094   6.813   4.613   2.348  0.5180 -0.4159 -0.1620
   31MOL   C23523095   6.756   4.728   2.245  0.0386  0.0359  0.0656
   31MOL   C23623096   6.738   4.677   2.098  0.2718 -0.2824  0.5838
   31MOL   O23723097   6.693   4.567   2.075 -0.4762 -0.1536 -0.2808
   31MOL   N23823098   6.772   4.769   2.005  0.1971 -0.4015  0.7768
   31MOL   C23923099   6.788   4.752   1.860 -0.8206 -0.2822  0.8289
   31MOL   C24023100   6.664   4.780   1.777  0.0410 -0.3612  0.4221
   31MOL   C24123101   6.689   4.858   1.650 -0.0343  0.4372  0.0242
   31MOL   C24223102   6.782   4.783   1.552 -0.9409 -0.3327  0.1526
   31MOL   C24323103   6.715   4.674   1.468  0.2445  0.1614  0.0501
   31MOL   C24423104   6.798   4.610   1.355  0.2565 -0.3087  0.1325
   31MOL   N24523105   6.725   4.501   1.297  0.5980  0.1670  0.5133
   31MOL   H24623106   6.805   4.467   2.576 -2.2153  1.5442  0.8062
   31MOL   H24723107   6.820   4.581   2.706 -1.2121  3.4926 -1.2512
   31MOL   H24823108   6.727   4.706   2.530 -1.2246 -1.8227 -0.4053
   31MOL   H24923109   6.897   4.742   2.494  0.6316  0.5513 -0.2706
   31MOL   H25023110   6.760   4.518   2.337  1.6520 -0.8312 -2.3177
   31MOL   H25123111   6.915   4.592   2.316  0.8830  0.2130  0.5678
   31MOL   H25223112   6.817   4.818   2.247  0.5567 -0.3304  1.0121
   31MOL   H25323113   6.657   4.764   2.272 -1.1258 -1.8687 -1.5487
   31MOL   H25423114   6.794   4.857   2.049  2.6278 -0.0173 -1.0774
   31MOL   H25523115   6.862   4.820   1.818 -4.0240  1.6547 -1.8922
   31MOL   H25623116   6.817   4.648   1.845 -0.2913 -0.4595  2.8604
   31MOL   H25723117   6.618   4.684   1.756 -0.2521  0.2916 -2.1697
   31MOL   H25823118   6.599   4.838   1.842  2.8201  0.3960  2.5996
   31MOL   H25923119   6.720   4.961   1.665  2.7166 -0.0303 -2.0134
   31MOL   H26023120   6.589   4.879   1.611  0.0323 -0.1133 -0.4556
   31MOL   H26123121   6.825   4.849   1.477 -0.9660  0.6686  1.0193
   31MOL   H26223122   6.864   4.737   1.607  1.5153 -0.3813 -3.3674
   31MOL   H26323123   6.689   4.594   1.538 -0.7085  1.6239  1.3925
   31MOL   H26423124   6.630   4.723   1.422  1.5165  1.0872 -1.3628
   31MOL   H26523125   6.885   4.565   1.401 -1.2002 -2.3076  1.0393
   31MOL   H26623126   6.829   4.678   1.275  0.5373 -1.1576 -0.4849
   31MOL   H26723127   6.732   4.409   1.338 -0.4829 -0.0423  0.2500
   31MOL   C26823128   6.661   4.504   1.179 -0.9903  0.4566  0.4123
   31MOL   O26923129   6.636   4.606   1.119  0.2225 -0.2068  0.1890
   31MOL   C27023130   6.607   4.374   1.129  0.4601 -0.6384 -0.0132
   31MOL   C27123131   6.682   4.323   1.003 -0.1569 -0.0113  0.2887
   31MOL   C27223132   6.789   4.218   1.049 -0.4998  0.1983  0.0144
   31MOL   C27323133   6.871   4.157   0.927 -0.0987  0.0738 -0.1344
   31MOL   C27423134   6.798   4.042   0.859 -0.2622 -0.0318  0.7737
   31MOL   O27523135   6.685   4.014   0.877  0.5132 -0.0883  0.2599
   31MOL   N27623136   6.867   3.986   0.763 -0.4851  0.5938 -0.3808
   31MOL   C27723137   6.831   3.876   0.671  0.4130 -0.9322 -0.2536
   31MOL   C27823138   6.870   3.735   0.725 -0.4669  0.0235  0.2472
   31MOL   C27923139   7.017   3.715   0.761  0.3958  0.7088  0.0002
   31MOL   C28023140   7.099   3.675   0.635 -0.6416  0.0181 -0.3518
   31MOL   C28123141   7.252   3.679   0.654 -0.6466  0.4285  0.5762
   31MOL   C28223142   7.342   3.668   0.531  0.8129  0.0365  0.3196
   31MOL   N28323143   7.477   3.658   0.570  0.2108  0.5652 -0.3969
   31MOL   H28423144   6.581   4.309   1.212 -2.0656 -0.8430 -0.9364
   31MOL   H28523145   6.510   4.412   1.096  0.1588 -1.0929  0.3487
   31MOL   H28623146   6.612   4.280   0.931  0.3744  0.2048 -0.3689
   31MOL   H28723147   6.722   4.409   0.948  0.0800  0.7700  1.6806
   31MOL   H28823148   6.738   4.136   1.100 -0.0235  0.6347  1.2030
   31MOL   H28923149   6.850   4.259   1.129  0.4866 -0.4432 -0.3973
   31MOL   H29023150   6.967   4.121   0.964  0.2846  2.5930  1.4762
   31MOL   H29123151   6.890   4.233   0.851  1.2374 -0.1169  0.0020
   31MOL   H29223152   6.968   3.998   0.766 -0.1967 -1.8362  1.1961
   31MOL   H29323153   6.725   3.884   0.649  0.0437 -1.9328  1.0765
   31MOL   H29423154   6.876   3.889   0.573 -3.6511  1.0059 -1.9671
   31MOL   H29523155   6.814   3.728   0.818  1.3663 -1.1073  1.2953
   31MOL   H29623156   6.823   3.660   0.662 -0.3760  1.0160 -1.0183
   31MOL   H29723157   7.025   3.623   0.818  0.1051 -0.0825 -1.2136
   31MOL   H29823158   7.070   3.784   0.826  0.9366  1.1393 -0.8865
   31MOL   H29923159   7.061   3.592   0.576 -0.0232  0.1289 -0.9115
   31MOL   H30023160   7.077   3.762   0.572 -0.6027  1.7684  1.9977
   31MOL   H30123161   7.275   3.772   0.706  0.4352  0.0426  0.8096
   31MOL   H30223162   7.283   3.611   0.734  2.6380  1.1703  0.0247
   31MOL   H30323163   7.323   3.756   0.470  0.2728 -0.7466 -0.6421
   31MOL   H30423164   7.306   3.576   0.485  0.2969 -0.1227  1.0262
   31MOL   H30523165   7.497   3.629   0.665 -3.2364 -0.7286 -0.0038
   31MOL   C30623166   7.571   3.685   0.477 -0.0032 -0.4589 -0.6174
   31MOL   O30723167   7.549   3.715   0.362 -0.1171 -0.2652 -0.3747
   31MOL   C30823168   0.006   3.684   0.529  0.0035 -0.4196  0.1253
   31MOL   C30923169   0.061   3.827   0.572 -0.4724  0.2046  0.1752
   31MOL   C31023170   0.022   3.859   0.715  0.2074  0.4512  0.1475
   31MOL   C31123171   0.130   3.839   0.824  0.1205  0.0767  0.2474
   31MOL   C31223172   0.076   3.879   0.963 -0.3332 -0.1238 -0.0703
   31MOL   O31323173   7.668   3.875   0.998  0.0039 -0.0733  0.6720
   31MOL   N31423174   0.169   3.917   1.057  0.0846  0.0532 -0.0554
   31MOL   C31523175   0.153   3.968   1.187 -0.0650  0.0871 -0.1183
   31MOL   C31623176   0.107   3.853   1.285  0.2384 -0.2379  0.0213
   31MOL   C31723177   0.093   3.901   1.428 -0.0974  0.4924 -0.1600
   31MOL   C31823178   0.068   3.782   1.523 -0.7982 -0.4239 -0.1284
   31MOL   C31923179   0.180   3.674   1.527 -0.6059 -0.3777  0.8145
   31MOL   C32023180   0.159   3.566   1.628  0.5111  0.0582 -0.4086
   31MOL   N32123181   0.064   3.462   1.592 -0.2511  0.2285  0.2861
   31MOL   H32223182   0.006   3.615   0.613 -0.8695 -2.1168 -1.2262
   31MOL   H32323183   0.058   3.635   0.447  0.4244  0.4406 -0.1264
   31MOL   H32423184   0.169   3.836   0.565 -0.7062  2.2507 -1.3004
   31MOL   H32523185   0.009   3.901   0.511  0.2918  0.2632 -0.4119
   31MOL   H32623186   7.629   3.820   0.732  0.2212 -0.3398 -1.5475
   31MOL   H32723187   0.011   3.968   0.715 -0.3849  0.4426  3.3272
   31MOL   H32823188   0.211   3.908   0.801 -0.3789  0.4643 -0.3625
   31MOL   H32923189   0.177   3.740   0.824 -0.0760 -0.0140  0.5472
   31MOL   H33023190   0.264   3.912   1.023 -0.2640 -0.1302 -1.0198
   31MOL   H33123191   0.254   3.999   1.216 -0.1947  0.7208 -0.3351
   31MOL   H33223192   0.095   4.059   1.189  0.6426  0.5544 -0.5874
   31MOL   H33323193   0.013   3.809   1.252  0.7527 -3.4045  2.5853
   31MOL   H33423194   0.187   3.781   1.276  1.1561  0.8373 -0.5420
   31MOL   H33523195   0.009   3.969   1.442 -0.5663 -0.3151  1.0355
   31MOL   H33623196   0.179   3.962   1.458  0.8253 -0.6820 -0.3903
   31MOL   H33723197   0.058   3.827   1.622 -1.8954  2.3385 -1.4223
   31MOL   H33823198   7.676   3.744   1.503 -0.9741 -0.3464  0.5754
   31MOL   H33923199   0.179   3.628   1.429 -0.0631  0.8279  0.2345
   31MOL   H34023200   0.279   3.720   1.531  0.0330 -1.4341 -1.9076
   31MOL   H34123201   0.125   3.609   1.722 -0.6937  1.8337 -1.6189
   31MOL   H34223202   0.256   3.520   1.647  0.1899 -0.4645 -0.0332
   31MOL   H34323203   0.044   3.439   1.495  2.6961  1.4433 -0.6533
   31MOL   C34423204   7.690   3.405   1.676 -1.1558  0.4269  0.2452
   31MOL   O34523205   7.690   3.415   1.800  0.2321  0.3104  0.0399
   31MOL   C34623206   7.567   3.351   1.606 -0.0403  0.3702  0.5677
   31MOL   C34723207   7.432   3.411   1.666 -0.2486 -0.1070 -0.6938
   31MOL   C34823208   7.405   3.566   1.641  0.1382 -0.6440 -0.8128
   31MOL   C34923209   7.258   3.615   1.674 -0.7644  0.3041 -0.7094
   31MOL   C35023210   7.239   3.658   1.821  0.3669  0.1333  0.4189
   31MOL   O35123211   7.280   3.589   1.917 -0.1750  0.2901  0.7284
   31MOL   N35223212   7.167   3.769   1.836 -0.4452 -0.1578  0.0186
   31MOL   C35323213   7.129   3.816   1.973  0.7228 -0.3460 -0.0869
   31MOL   C35423214   7.015   3.730   2.037  0.3313 -0.2093 -0.2528
   31MOL   C35523215   6.967   3.780   2.170  0.4152  0.1784  0.4438
   31MOL   C35623216   6.840   3.708   2.223  0.3844  0.4011  0.7626
   31MOL   C35723217   6.710   3.738   2.159 -0.9118 -0.1919  0.8548
   31MOL   C35823218   6.601   3.639   2.213 -0.2245 -0.4353  0.1442
   31MOL   N35923219   6.575   3.658   2.358  0.3231  0.0104  0.0566
   31MOL   H36023220   7.567   3.366   1.498 -0.3694 -0.1328  0.5021
   31MOL   H36123221   7.573   3.243   1.617 -0.7073  0.2325 -0.4391
   31MOL   H36223222   7.348   3.359   1.622 -0.2489  0.4760 -1.3861
   31MOL   H36323223   7.419   3.389   1.772 -2.7223  1.0431 -0.7338
   31MOL   H36423224   7.437   3.588   1.539 -0.3057  0.4240 -0.7215
   31MOL   H36523225   7.471   3.630   1.699 -0.3828  0.0857 -1.0235
   31MOL   H36623226   7.186   3.539   1.643 -1.6159  0.5449  0.6328
   31MOL   H36723227   7.227   3.693   1.605 -0.3127  0.4387 -0.7636
   31MOL   H36823228   7.147   3.828   1.757  1.2754  0.5324  0.0753
   31MOL   H36923229   7.212   3.827   2.043 -0.1536 -0.1824  0.9463
   31MOL   H37023230   7.090   3.918   1.972 -1.6942 -1.2389 -1.5755
   31MOL   H37123231   6.931   3.726   1.968  0.2203  3.3832 -0.3979
   31MOL   H37223232   7.036   3.624   2.050  0.4888 -0.0847  0.4765
   31MOL   H37323233   6.954   3.887   2.187  0.8279 -0.1917  3.3225
   31MOL   H37423234   7.042   3.744   2.241  1.4083  0.9291 -0.2035
   31MOL   H37523235   6.853   3.601   2.233  1.8727  0.5077  0.0854
   31MOL   H37623236   6.829   3.740   2.327 -2.0565  0.5173  0.4948
   31MOL   H37723237   6.680   3.843   2.170 -1.2520  0.0529 -2.0359
   31MOL   H37823238   6.727   3.733   2.051 -0.7371  1.5181  0.7773
   31MOL   H37923239   6.648   3.545   2.185 -0.7419  0.4735 -4.0886
   31MOL   H38023240   6.505   3.635   2.161 -0.5252  1.4591  0.5005
   31MOL   H38123241   6.652   3.649   2.422  0.7021  0.4096 -0.3449
   31MOL   C38223242   6.459   3.706   2.411 -0.3113 -0.4766  0.1509
   31MOL   O38323243   6.361   3.739   2.342 -1.2224  0.0050 -0.0241
   31MOL   C38423244   6.454   3.704   2.567 -0.4350  0.0567 -0.6257
   31MOL   C38523245   6.346   3.785   2.633 -0.0612  0.1359  0.6420
   31MOL   C38623246   6.365   3.938   2.617 -0.1280 -0.1122 -0.0555
   31MOL   C38723247   6.492   4.000   2.676  0.1992  0.2521 -0.0042
   31MOL   C38823248   6.493   3.980   2.821 -0.1280  0.0537 -0.0538
   31MOL   O38923249   6.390   3.969   2.881 -0.7161  0.1581  0.7204
   31MOL   N39023250   6.611   3.965   2.879 -0.3254 -0.2367  0.5087
   31MOL   C39123251   6.621   3.946   3.027 -0.4781 -1.3640  0.7284
   31MOL   C39223252   6.661   3.813   3.082 -0.4357 -0.1325 -0.3618
   31MOL   C39323253   6.569   3.691   3.040  0.7012  0.1114  0.2571
   31MOL   C39423254   6.624   3.558   3.085 -0.3107  0.1007  0.7672
   31MOL   C39523255   6.648   3.540   3.239 -0.4070  0.0600 -0.2109
   31MOL   C39623256   6.713   3.411   3.262  0.1499 -0.4534 -0.6319
   31MOL   N39723257   6.769   3.394   3.400  0.4876  0.1147  0.2203
   31MOL   H39823258   6.436   3.599   2.592  2.7047 -0.3818  0.0419
   31MOL   H39923259   6.536   3.734   2.633 -2.5899  0.0309  2.1853
   31MOL   H40023260   6.249   3.752   2.597  0.2579 -1.7312  1.4383
   31MOL   H40123261   6.348   3.757   2.739 -1.3110 -0.5713  0.4820
   31MOL   H40223262   6.280   4.000   2.645 -1.0350 -0.0153 -2.8586
   31MOL   H40323263   6.375   3.966   2.512 -1.3227 -0.0854 -0.1778
   31MOL   H40423264   6.513   4.103   2.649  1.1790 -0.3332 -1.4993
   31MOL   H40523265   6.577   3.943   2.638  0.4935 -0.8243  2.1618
   31MOL   H40623266   6.693   3.964   2.820 -0.9445  1.0742 -0.4135
   31MOL   H40723267   6.691   4.023   3.059 -1.6233  0.2620 -0.5547
   31MOL   H40823268   6.531   3.961   3.086 -1.9966 -1.9241 -1.3518
   31MOL   H40923269   6.759   3.798   3.037  0.1804  0.1047  0.8987
   31MOL   H41023270   6.679   3.821   3.189 -0.7383  1.9386 -0.4273
   31MOL   H41123271   6.558   3.683   2.932  0.7181 -2.8369  0.4377
   31MOL   H41223272   6.473   3.699   3.090  0.3734  1.2399 -0.5174
   31MOL   H41323273   6.559   3.487   3.032  2.7494 -0.5216 -2.3421
   31MOL   H41423274   6.715   3.543   3.028 -1.3141  0.9978 -1.1346
   31MOL   H41523275   6.719   3.618   3.264  1.1404 -0.7684 -1.9834
   31MOL   H41623276   6.554   3.560   3.291 -0.7406  0.3603 -0.9279
   31MOL   H41723277   6.803   3.406   3.200  1.2260 -2.1274  1.0137
   31MOL   H41823278   6.648   3.327   3.236 -0.7385  0.8719 -2.7892
   31MOL   H41923279   6.869   3.389   3.414  0.2612 -1.5236  1.3620
   31MOL   C42023280   6.688   3.372   3.505 -0.1086 -0.2093  0.2053
   31MOL   O42123281   6.570   3.372   3.499 -0.1579  0.8532  0.5125
   31MOL   C42223282   6.760   3.357   3.634 -0.3861  0.0637  0.8124
   31MOL   C42323283   6.687   3.431   3.748  0.3065 -0.3894 -0.1028
   31MOL   C42423284   6.782   3.487   3.857 -0.0711  0.3393  0.0431
   31MOL   C42523285   6.839   3.378   3.946 -0.9708  0.0117  0.2339
   31MOL   C42623286   6.949   3.437   4.051  0.6011  0.7172 -0.8758
   31MOL   O42723287   6.954   3.556   4.076 -0.3638  0.1181 -0.2489
   31MOL   N42823288   7.033   3.347   4.105 -0.2167  0.4524 -0.5128
   31MOL   C42923289   7.125   3.379   4.213 -0.1660  0.0968 -0.3271
   31MOL   C43023290   7.252   3.301   4.188  0.3524 -0.0534  0.3897
   31MOL   C43123291   7.323   3.345   4.055 -0.0312 -0.2676  0.5507
   31MOL   C43223292   7.444   3.259   4.017 -0.4916 -0.0784  0.0666
   31MOL   C43323293   7.496   3.287   3.880  0.5807  0.5321  0.1728
   31MOL   C43423294   7.586   3.176   3.828  0.4388 -0.0299 -0.4250
   31MOL   N43523295   7.594   3.173   3.682 -0.3457 -0.3184 -0.4940
   31MOL   H43623296   6.774   3.251   3.653  0.2327  0.0176  0.1303
   31MOL   H43723297   6.858   3.405   3.631 -0.9240  1.1953  0.9516
   31MOL   H43823298   6.640   3.520   3.707  0.7811 -0.0197  0.1499
   31MOL   H43923299   6.611   3.371   3.799  1.6477 -2.4719 -0.4791
   31MOL   H44023300   6.735   3.571   3.909 -0.5266 -0.8567  1.6013
   31MOL   H44123301   6.868   3.538   3.814 -0.8739  0.7686 -1.0720
   31MOL   H44223302   6.876   3.287   3.899  1.8747  2.0782 -1.6808
   31MOL   H44323303   6.750   3.348   4.000  1.1673 -2.4641  2.5581
   31MOL   H44423304   7.017   3.255   4.068  1.5477  0.2665 -0.8454
   31MOL   H44523305   7.153   3.484   4.224 -0.8319  0.2725 -0.2968
   31MOL   H44623306   7.072   3.360   4.307 -1.4372  2.5220 -0.5132
   31MOL   H44723307   7.316   3.327   4.272 -1.5324  2.5401  1.0846
   31MOL   H44823308   7.231   3.194   4.185  0.9149 -0.1532 -0.1454
   31MOL   H44923309   7.352   3.449   4.044  0.5780 -0.4681  0.2851
   31MOL   H45023310   7.249   3.326   3.976  1.4124  1.0372 -1.1655
   31MOL   H45123311   7.531   3.276   4.081 -2.2604 -0.3806  2.6372
   31MOL   H45223312   7.397   3.161   4.022 -2.1538  0.6695 -0.7293
   31MOL   H45323313   7.412   3.306   3.814  0.0346  1.9605  1.2564
   31MOL   H45423314   7.557   3.377   3.886  1.7322 -0.1765 -0.5922
   31MOL   H45523315   7.521   3.091   3.849  0.1746  0.7509  2.0303
   31MOL   H45623316   7.682   3.169   3.878  1.2546  4.2247 -1.2418
   31MOL   H45723317   7.565   3.262   3.643 -0.2382  0.1008  0.3633
   31MOL   C45823318   7.663   3.080   3.611  0.6157  0.0382  0.3797
   31MOL   O45923319   0.012   2.990   3.668  0.2386 -0.4675 -0.3541
   31MOL   C46023320   7.663   3.094   3.458 -0.4455 -0.3450 -0.0070
   31MOL   C46123321   7.674   2.955   3.388 -0.5526 -0.0307  0.4943
   31MOL   C46223322   7.556   2.877   3.419  0.2546 -0.8752  0.6293
   31MOL   C46323323   7.472   2.830   3.303  0.1667 -0.0888 -0.1713
   31MOL   C46423324   7.428   2.940   3.205  0.2422 -0.5408  0.5122
   31MOL   O46523325   7.381   3.043   3.248 -0.4038 -0.4151  0.5204
   31MOL   N46623326   7.432   2.912   3.073  0.1874  0.3202 -0.1232
   31MOL   C46723327   7.416   3.006   2.957 -0.2201 -0.4613 -0.6171
   31MOL   C46823328   7.511   2.968   2.849 -0.3662 -0.8570  0.6808
   31MOL   C46923329   7.542   3.083   2.757 -0.1354 -1.1393 -0.0708
   31MOL   C47023330   7.646   3.046   2.649  0.7204 -0.2395  0.5248
   31MOL   C47123331   7.671   3.167   2.553  0.0890 -0.1380  0.4305
   31MOL   C47223332   0.089   3.130   2.469 -0.4314 -1.0921 -0.7331
   31MOL   N47323333   0.135   3.235   2.382  0.2352 -0.5820 -0.3461
   31MOL   H47423334   7.563   3.127   3.428  0.2461  3.8133  1.9106
   31MOL   H47523335   0.034   3.159   3.421 -0.8326 -0.9354 -1.9206
   31MOL   H47623336   7.702   2.964   3.283  0.5423  1.1151  0.8678
   31MOL   H47723337   0.057   2.910   3.429 -0.0677  0.3637 -0.1449
   31MOL   H47823338   7.488   2.925   3.490  2.4950  0.7290  1.7589
   31MOL   H47923339   7.593   2.786   3.468  1.2350 -0.4599  0.6682
   31MOL   H48023340   7.383   2.786   3.347 -0.1470  0.9325  0.2328
   31MOL   H48123341   7.522   2.749   3.250  0.6467 -2.2143  3.3664
   31MOL   H48223342   7.475   2.823   3.053  0.6244  0.5949 -0.4196
   31MOL   H48323343   7.310   3.002   2.934 -0.3341  0.5838 -0.2551
   31MOL   H48423344   7.440   3.105   2.994  1.6507 -0.6210 -1.3515
   31MOL   H48523345   7.605   2.924   2.880  0.3070 -1.4085 -2.0348
   31MOL   H48623346   7.472   2.886   2.789  2.3535 -1.2073 -0.6649
   31MOL   H48723347   7.574   3.167   2.819 -2.5065 -1.6219  1.9113
   31MOL   H48823348   7.448   3.113   2.712 -1.5261  1.3512  4.1663
   31MOL   H48923349   0.025   3.014   2.706  0.0397 -1.6562  0.7730
   31MOL   H49023350   7.602   2.959   2.601  1.7389 -0.8296  0.6369
   31MOL   H49123351   7.584   3.181   2.487 -0.0944  0.0013  0.7019
   31MOL   H49223352   7.695   3.253   2.615  1.0321 -0.7463  0.9206
   31MOL   H49323353   0.062   3.037   2.417 -2.5120 -0.8615 -0.1109
   31MOL   H49423354   0.161   3.096   2.544 -0.9288 -1.3392 -0.3623
   31MOL   H49523355   0.124   3.331   2.410  1.2342 -0.1765 -1.3031
   31MOL   C49623356   0.195   3.212   2.265  0.0276 -0.1076 -0.3000
   31MOL   O49723357   0.238   3.100   2.234 -0.0216  0.2435 -0.0003
   31MOL   C49823358   0.199   3.326   2.170  0.2783 -0.2724  0.0766
   31MOL   C49923359   0.342   3.336   2.111  0.0535  0.1100  0.5798
   31MOL   C50023360   0.378   3.477   2.055  0.2880 -0.3069 -0.5948
   31MOL   C50123361   0.271   3.534   1.956 -0.2708 -0.2694  0.2661
   31MOL   C50223362   0.177   3.633   2.018  0.4028  0.1729 -0.6813
   31MOL   O50323363   0.218   3.732   2.078 -0.5110  0.4071 -0.4592
   31MOL   N50423364   0.048   3.602   1.999 -0.1038  0.2889  0.3770
   31MOL   C50523365   7.647   3.686   2.023 -0.2800 -0.0145  0.1438
   31MOL   C50623366   7.652   3.825   1.962  0.2906  0.1087  0.8801
   31MOL   C50723367   7.510   3.890   1.979 -0.5228  0.8412  0.3135
   31MOL   C50823368   7.503   4.035   1.927  0.1040  0.7658 -0.9691
   31MOL   C50923369   7.562   4.154   2.011  0.3085 -0.0118  0.8308
   31MOL   C51023370   7.518   4.290   1.963 -0.1612  0.6625 -0.1783
   31MOL   N51123371   7.375   4.316   1.989 -1.1321 -0.1431  0.4817
   31MOL   H51223372   0.123   3.316   2.093  0.5846  0.6309 -0.3458
   31MOL   H51323373   0.164   3.412   2.226  0.6486 -1.5205  2.3144
   31MOL   H51423374   0.414   3.329   2.193 -0.5539  0.2073  1.1267
   31MOL   H51523375   0.366   3.260   2.036 -0.9087  0.8427 -0.4840
   31MOL   H51623376   0.480   3.472   2.015 -1.2772  0.8388 -5.0268
   31MOL   H51723377   0.393   3.555   2.130 -1.8457 -0.5651  0.1320
   31MOL   H51823378   0.219   3.453   1.905 -1.2821  0.7105 -0.2726
   31MOL   H51923379   0.322   3.592   1.879  0.2513 -0.3832  0.5216
   31MOL   H52023380   0.028   3.537   1.925  0.2689  0.2620  0.3033
   31MOL   H52123381   7.565   3.631   1.976 -1.3072  1.6149 -0.0110
   31MOL   H52223382   7.630   3.699   2.130  0.0684 -3.5046  0.6796
   31MOL   H52323383   0.021   3.882   2.014  0.5762  0.7017 -0.1668
   31MOL   H52423384   7.672   3.824   1.855  0.6315  0.1322  0.9410
   31MOL   H52523385   7.472   3.883   2.081 -0.9048  0.0791  0.1252
   31MOL   H52623386   7.433   3.832   1.929 -0.0152 -0.6276  1.1999
   31MOL   H52723387   7.546   4.033   1.827  1.2316 -1.7298 -0.4661
   31MOL   H52823388   7.396   4.052   1.914 -0.0606  1.8662  1.4293
   31MOL   H52923389   7.526   4.144   2.113  2.9406  0.4790  1.8567
   31MOL   H53023390   7.671   4.156   2.013  0.3602  2.8548 -0.8765
   31MOL   H53123391   7.545   4.312   1.860  1.3743  1.0780  0.3061
   31MOL   H53223392   7.577   4.369   2.009 -0.9489  0.9914  0.2761
   31MOL   H53323393   7.344   4.262   2.068 -2.6396 -0.9231 -0.6215
   31MOL   C53423394   7.306   4.411   1.927 -0.2234  0.4594  0.3226
   31MOL   O53523395   7.357   4.489   1.854 -0.6095  0.0132  0.4226
   31MOL   C53623396   7.161   4.421   1.977 -0.7260  0.3853  0.3859
   31MOL   C53723397   7.102   4.564   2.000 -0.2634  0.2992  0.0323
   31MOL   C53823398   7.173   4.634   2.118 -0.2861  0.0828  0.1179
   31MOL   C53923399   7.107   4.772   2.143 -0.5985 -0.7762 -0.2044
   31MOL   C54023400   7.166   4.847   2.265  0.4843 -0.0467  0.1304
   31MOL   O54123401   7.271   4.811   2.319  0.1343  0.1065 -0.4420
   31MOL   N54223402   7.098   4.951   2.312  0.0440 -0.5249 -0.2860
   31MOL   C54323403   7.142   5.015   2.434 -0.4643 -0.0942 -0.2214
   31MOL   C54423404   7.251   5.122   2.405  0.1896  0.3165 -0.3902
   31MOL   C54523405   7.205   5.245   2.321 -0.2500  0.6273 -0.9904
   31MOL   C54623406   7.324   5.342   2.309  0.1134 -0.1313 -0.3313
   31MOL   C54723407   7.280   5.468   2.234  0.8403 -0.8099  0.2729
   31MOL   C54823408   7.342   5.599   2.294 -0.6345 -0.4981 -0.6758
   31MOL   N54923409   7.477   5.625   2.234  0.0304  0.6602  0.2342
   31MOL   H55023410   7.097   4.354   1.919  0.5334 -1.4627  1.0784
   31MOL   H55123411   7.150   4.375   2.075  0.7080  0.9362  0.8249
   31MOL   H55223412   7.089   4.628   1.912  0.9010  1.1896  0.4975
   31MOL   H55323413   6.999   4.544   2.030 -0.8943  0.6868 -1.8153
   31MOL   H55423414   7.278   4.640   2.090  0.1710 -3.5349  0.8543
   31MOL   H55523415   7.172   4.583   2.214  0.6533  2.0717  1.2311
   31MOL   H55623416   7.005   4.744   2.172  0.0979 -2.4645  0.6931
   31MOL   H55723417   7.103   4.828   2.050 -0.1908 -1.5001 -0.6591
   31MOL   H55823418   7.004   4.964   2.279 -0.6189 -0.0100  1.7765
   31MOL   H55923419   7.052   5.063   2.474 -0.6095 -0.4700 -0.0966
   31MOL   H56023420   7.170   4.938   2.505 -1.5418  0.7866  1.1881
   31MOL   H56123421   7.281   5.164   2.501  3.2176 -0.0442 -1.1227
   31MOL   H56223422   7.342   5.075   2.369 -0.1172 -1.7260  1.4055
   31MOL   H56323423   7.122   5.287   2.378 -0.3128  0.3952 -0.9071
   31MOL   H56423424   7.155   5.225   2.227  0.1146 -1.0924 -0.8403
   31MOL   H56523425   7.348   5.365   2.413  0.2349 -2.8950  0.2843
   31MOL   H56623426   7.412   5.290   2.270 -0.2311  0.3206 -1.7657
   31MOL   H56723427   7.311   5.451   2.131  0.4004 -0.1422  0.0260
   31MOL   H56823428   7.173   5.490   2.230  1.0902  0.3277 -0.3719
   31MOL   H56923429   7.348   5.605   2.402 -2.7927 -0.2636 -0.5372
   31MOL   H57023430   7.285   5.688   2.267  1.4437  0.2130 -2.8968
   31MOL   H57123431   7.545   5.550   2.227  0.4570  1.0732 -0.0887
   31MOL   C57223432   7.521   5.742   2.185  0.0127  1.0515  0.2087
   31MOL   O57323433   7.474   5.847   2.230  0.3006  0.2686 -0.0888
   31MOL   C57423434   7.631   5.734   2.078 -0.3504 -0.0968  0.4230
   31MOL   C57523435   7.588   5.811   1.952  0.6346  0.5673  0.3101
   31MOL   C57623436   0.000   5.813   1.853  0.1571  0.1302  0.4609
   31MOL   C57723437   7.687   5.867   1.705  0.3640  0.0999 -0.4833
   31MOL   C57823438   7.596   5.792   1.622 -0.1817  0.4353 -0.0473
   31MOL   O57923439   7.637   5.693   1.560 -0.5950 -0.0663 -1.0091
   31MOL   N58023440   7.469   5.839   1.601  0.3906  0.1576 -0.2027
   31MOL   C58123441   7.371   5.780   1.517 -0.0063 -0.1031  0.1156
   31MOL   C58223442   7.297   5.895   1.449  0.4871 -0.3771 -0.4348
   31MOL   C58323443   7.210   5.839   1.338 -1.3709 -0.2349  0.8241
   31MOL   C58423444   7.131   5.952   1.271  0.1852 -0.1026  0.1756
   31MOL   C58523445   7.090   5.915   1.123  0.3397 -0.3446  0.0814
   31MOL   C58623446   7.198   5.903   1.025  0.4469  0.3278  0.3134
   31MOL   N58723447   7.135   5.892   0.896 -0.0122 -0.3207  0.5531
   31MOL   H58823448   0.012   5.786   2.114 -1.3664  2.3617 -0.5269
   31MOL   H58923449   7.660   5.631   2.060  0.5811  0.1019  0.7204
   31MOL   H59023450   7.504   5.763   1.901  0.6293  1.2989 -0.3724
   31MOL   H59123451   7.561   5.913   1.979  0.6638  0.5031  0.5789
   31MOL   H59223452   0.040   5.712   1.847 -2.1996 -0.8445  0.6497
   31MOL   H59323453   0.077   5.869   1.906  0.0831  1.0250 -0.3611
   31MOL   H59423454   0.080   5.859   1.666  0.5033  0.4857 -0.2074
   31MOL   H59523455   7.658   5.971   1.721  1.3855  0.2038  0.7190
   31MOL   H59623456   7.449   5.927   1.646  0.1640 -0.7803  1.5720
   31MOL   H59723457   7.413   5.704   1.450 -1.7842 -0.9966  0.0010
   31MOL   H59823458   7.301   5.723   1.578 -1.7070  0.5947 -1.1584
   31MOL   H59923459   7.236   5.944   1.524 -1.2662 -1.0122 -1.4190
   31MOL   H60023460   7.363   5.964   1.396 -0.6855  1.8361  0.9208
   31MOL   H60123461   7.134   5.773   1.380 -0.4761 -0.5533  1.9686
   31MOL   H60223462   7.282   5.780   1.281 -0.5933  1.0067  0.4782
   31MOL   H60323463   7.040   5.972   1.327 -0.4331  0.8644 -1.1330
   31MOL   H60423464   7.188   6.043   1.289  0.6985 -0.4127  0.1275
   31MOL   H60523465   7.030   5.825   1.136  0.6144 -0.4035  1.0143
   31MOL   H60623466   7.024   5.994   1.089 -0.5385 -1.7392 -1.5187
   31MOL   H60723467   7.260   5.814   1.036  1.9736  1.0936 -1.9176
   31MOL   H60823468   7.259   5.992   1.031 -1.2554  1.4308  2.0959
   31MOL   H60923469   7.136   5.970   0.832  0.1534  1.0508  2.1804
   31MOL   C61023470   7.081   5.792   0.838 -0.3453 -0.2674 -0.6854
   31MOL   O61123471   7.072   5.688   0.897  0.5080 -0.3306  0.5752
   31MOL   C61223472   7.021   5.814   0.702  0.2241 -0.4062  0.4786
   31MOL   C61323473   7.036   5.682   0.620 -0.0258 -0.7026  0.6255
   31MOL   C61423474   6.961   5.685   0.488  0.1927  0.5913 -0.2232
   31MOL   C61523475   6.815   5.717   0.500 -0.2044 -0.2232 -0.4294
   31MOL   C61623476   6.735   5.649   0.383  0.0321  0.0687  0.0370
   31MOL   O61723477   6.780   5.663   0.272 -0.2825 -0.1431  0.1927
   31MOL   N61823478   6.625   5.582   0.418  0.0368  0.1525 -0.1516
   31MOL   C61923479   6.551   5.488   0.334  0.3687 -0.1252  0.0076
   31MOL   C62023480   6.452   5.547   0.228  0.3697  0.1662  0.7433
   31MOL   C62123481   6.394   5.439   0.141 -0.7344  0.2127 -0.3363
   31MOL   C62223482   6.296   5.485   0.034  0.4742 -0.0084  0.5811
   31MOL   C62323483   6.358   5.588   7.647 -0.6156  0.3538 -0.5723
   31MOL   C62423484   6.274   5.625   7.524 -0.3541  0.3089 -0.2046
   31MOL   N62523485   6.323   5.735   7.437  0.6244  0.1242  0.1709
   31MOL   H62623486   6.914   5.833   0.709  0.1138 -0.7006 -0.3176
   31MOL   H62723487   7.053   5.905   0.650  2.6885 -0.3198  2.0481
   31MOL   H62823488   7.144   5.669   0.608  0.2705  3.6305 -2.7048
   31MOL   H62923489   6.997   5.597   0.675 -1.1757 -0.7200 -0.1948
   31MOL   H63023490   6.993   5.593   0.439  1.4430  0.7941  0.1925
   31MOL   H63123491   7.011   5.758   0.425 -0.3655 -0.4449 -1.9050
   31MOL   H63223492   6.800   5.826   0.499 -1.9730 -0.4076  1.7432
   31MOL   H63323493   6.784   5.680   0.598  1.9793 -0.0424  0.3639
   31MOL   H63423494   6.616   5.578   0.518  0.5776  2.0512 -0.0124
   31MOL   H63523495   6.626   5.419   0.295 -0.4462 -1.3268  0.5442
   31MOL   H63623496   6.501   5.428   0.410  0.7034  0.8259  0.9977
   31MOL   H63723497   6.380   5.609   0.281 -1.7062  0.6725 -2.5789
   31MOL   H63823498   6.501   5.617   0.161  0.1095 -0.1011  0.2747
   31MOL   H63923499   6.347   5.355   0.192 -0.7646 -0.4933 -1.4925
   31MOL   H64023500   6.482   5.404   0.086 -0.7027 -2.4236  1.2797
   31MOL   H64123501   6.262   5.397   7.689  0.3272  1.3963 -1.7267
   31MOL   H64223502   6.208   5.536   0.073 -0.6478 -0.5163 -1.2408
   31MOL   H64323503   6.390   5.678   7.700 -0.5949 -1.1187  1.9903
   31MOL   H64423504   6.450   5.555   7.600 -0.2149  0.4999  0.1019
   31MOL   H64523505   6.180   5.654   7.571 -0.6554 -1.5786  0.3689
   31MOL   H64623506   6.254   5.542   7.456 -1.2669  1.3634 -1.2548
   31MOL   H64723507   6.333   5.711   7.340 -0.7684 -1.3077  0.3626
   31MOL   C64823508   6.320   5.866   7.468  0.1822 -0.2321 -0.4387
   31MOL   O64923509   6.282   5.905   7.580 -0.0274  0.1101  0.9092
   31MOL   C65023510   6.348   5.960   7.356  0.1195  1.2117 -0.6029
   31MOL   C65123511   6.410   6.093   7.402  1.2280 -0.2952  0.1155
   31MOL   C65223512   6.311   6.197   7.463  0.6736 -0.8630  0.1639
   31MOL   C65323513   6.371   6.327   7.528  0.2341 -0.6972 -0.1818
   31MOL   C65423514   6.432   6.328   7.666  0.5315  0.2593 -0.1918
   31MOL   O65523515   6.486   6.226   0.002 -0.4217  0.4020  0.6616
   31MOL   N65623516   6.417   6.443   0.032 -0.0069  0.3032  0.1870
   31MOL   C65723517   6.469   6.464   0.165 -0.2179 -0.2382 -1.1240
   31MOL   C65823518   6.368   6.410   0.270  0.0675  0.7571  0.1710
   31MOL   C65923519   6.234   6.480   0.268 -0.2654 -0.4230 -0.1548
   31MOL   C66023520   6.127   6.396   0.350 -1.0625 -0.3865 -0.0910
   31MOL   C66123521   6.014   6.479   0.404 -0.3637 -0.3003 -0.2453
   31MOL   C66223522   5.944   6.563   0.304 -0.6570  0.6712 -0.4432
   31MOL   N66323523   5.834   6.630   0.370  0.9613  0.2683 -0.1967
   31MOL   H66423524   6.432   5.910   7.308  0.5574  0.1727  1.2192
   31MOL   H66523525   6.278   5.974   7.273 -0.0640 -2.5202 -1.1827
   31MOL   H66623526   6.483   6.070   7.480  1.1790  2.2831  0.9641
   31MOL   H66723527   6.466   6.135   7.318 -0.2942  1.7284  0.0597
   31MOL   H66823528   6.243   6.157   7.538  0.0144 -0.1997 -0.0628
   31MOL   H66923529   6.253   6.242   7.382 -0.9529 -1.6124  0.8820
   31MOL   H67023530   6.289   6.398   7.518 -0.1920 -1.2048 -0.3406
   31MOL   H67123531   6.448   6.371   7.464  1.7657 -1.8968  0.7936
   31MOL   H67223532   6.370   6.525   7.705 -0.3258  0.5446  1.1747
   31MOL   H67323533   6.569   6.421   0.164  0.7745  1.8058  2.4254
   31MOL   H67423534   6.491   6.569   0.185  1.6222 -0.4111 -2.1400
   31MOL   H67523535   6.344   6.307   0.244  0.5590  0.7930 -0.4533
   31MOL   H67623536   6.419   6.416   0.366 -1.2490 -0.0474  0.9394
   31MOL   H67723537   6.199   6.496   0.166  2.5227 -2.9151 -1.5663
   31MOL   H67823538   6.248   6.579   0.312 -0.2401  0.1114 -1.3450
   31MOL   H67923539   6.090   6.315   0.287 -0.4690 -1.1982  0.5887
   31MOL   H68023540   6.171   6.342   0.434  0.6605  1.3316  0.1171
   31MOL   H68123541   5.942   6.419   0.460  0.7005 -1.6130 -0.2657
   31MOL   H68223542   6.057   6.550   0.474 -0.0415 -0.2240 -0.5199
   31MOL   H68323543   5.900   6.491   0.235  0.2583  1.0697 -1.4469
   31MOL   H68423544   6.013   6.620   0.242 -0.4156 -0.2865 -1.0737
   31MOL   H68523545   5.807   6.594   0.460  1.2947  2.5747  0.8653
   31MOL   C68623546   5.779   6.746   0.335 -0.0882  0.1244  0.2395
   31MOL   O68723547   5.806   6.800   0.229  0.1024  0.7364 -0.5184
   31MOL   C68823548   5.686   6.812   0.444 -0.2287 -0.0280 -0.1759
   31MOL   C68923549   5.710   6.962   0.465  0.7661  0.6212 -0.4174
   31MOL   C69023550   5.606   7.056   0.398  0.1528  0.6280 -0.3787
   31MOL   C69123551   5.595   7.049   0.247 -0.5652  0.5978  0.1083
   31MOL   C69223552   5.520   7.148   0.177 -0.8309 -0.2956 -0.0189
   31MOL   O69323553   5.479   7.250   0.229 -0.2049  0.3806 -0.4192
   31MOL   N69423554   5.513   7.112   0.050 -0.1779 -0.0788 -0.7364
   31MOL   C69523555   5.447   7.196   7.660  0.2761 -0.4770  0.3831
   31MOL   C69623556   5.547   7.259   7.557 -0.9825  0.2848 -0.4846
   31MOL   C69723557   5.481   7.361   7.478 -0.5412 -0.0764 -0.0427
   31MOL   C69823558   5.348   7.314   7.413  0.2725 -0.3799 -0.6844
   31MOL   C69923559   5.323   7.411   7.295  0.7761  0.1267 -0.3855
   31MOL   C70023560   5.176   7.384   7.240 -0.1175 -1.1170 -1.0392
   31MOL   N70123561   5.153   7.461   7.115  0.0637 -0.4195 -0.0371
   31MOL   H70223562   5.582   6.796   0.417 -0.8644  0.7786  1.6607
   31MOL   H70323563   5.711   6.765   0.539  1.4183  2.1828  0.5223
   31MOL   H70423564   5.732   7.001   0.564 -0.0556 -0.8144  0.3451
   31MOL   H70523565   5.811   6.980   0.429  0.8456  1.4461  0.1950
   31MOL   H70623566   5.629   7.157   0.433  1.5118  0.6599 -1.3181
   31MOL   H70723567   5.513   7.025   0.447  2.1132 -2.4133  1.5541
   31MOL   H70823568   5.558   6.949   0.225  0.1798  0.5748 -1.1012
   31MOL   H70923569   5.690   7.051   0.194 -0.3137  2.6591  0.5966
   31MOL   H71023570   5.561   7.033   0.008  0.3538  1.4314 -3.0898
   31MOL   H71123571   5.364   7.155   7.602  1.5960  2.1069 -3.5684
   31MOL   H71223572   5.398   7.281   7.708 -0.4224 -1.0159  0.6284
   31MOL   H71323573   5.624   7.310   7.615  1.3196 -2.4144 -1.0084
   31MOL   H71423574   5.598   7.185   7.495  0.8585  1.3201 -0.2529
   31MOL   H71523575   5.555   7.398   7.406 -0.1321  0.5230  0.6802
   31MOL   H71623576   5.454   7.437   7.551  1.6599  1.0517 -0.3365
   31MOL   H71723577   5.348   7.212   7.373 -3.1867  0.0848 -2.0103
   31MOL   H71823578   5.273   7.338   7.488  2.8824  0.7222  1.6354
   31MOL   H71923579   5.328   7.514   7.330  2.6226 -0.4878  1.2405
   31MOL   H72023580   5.392   7.401   7.212  0.3362  0.1808 -0.7615
   31MOL   H72123581   5.106   7.417   7.316  2.1389  1.2610  0.0655
   31MOL   H72223582   5.163   7.277   7.223 -3.9911 -0.7708 -0.6161
   31MOL   H72323583   5.111   7.552   7.126  0.0555 -0.5821  1.3309
   31MOL   C72423584   5.177   7.406   6.995  0.8564 -0.1209 -0.1044
   31MOL   O72523585   5.239   7.301   6.982 -0.4194  0.3968  0.2242
   31MOL   C72623586   5.140   7.484   6.872  0.3636 -0.2494 -0.0782
   31MOL   C72723587   4.993   7.453   6.820 -0.1544 -0.6796  0.3505
   31MOL   C72823588   4.885   7.557   6.873 -0.9211 -0.2072 -0.1528
   31MOL   C72923589   4.748   7.516   6.822 -0.3050 -0.6194  0.0814
   31MOL   C73023590   4.637   7.595   6.894  0.3951 -0.7544  0.7684
   31MOL   O73123591   4.639   7.623   7.010 -0.2135 -0.5159 -0.2958
   31MOL   N73223592   4.540   7.632   6.816 -0.6170  0.2251 -0.3087
   31MOL   C73323593   4.431   0.002   6.871 -1.1287 -0.0528 -0.3573
   31MOL   C73423594   4.304   7.624   6.884  0.6090  0.0009  0.0462
   31MOL   C73523595   4.257   7.567   6.753 -0.1650  0.5331 -0.0515
   31MOL   C73623596   4.126   7.491   6.764 -0.2328  0.6578  0.3053
   31MOL   C73723597   4.078   7.450   6.623 -0.1774 -0.1044 -0.1662
   31MOL   C73823598   4.128   7.308   6.584 -0.1524 -0.1915 -0.2074
   31MOL   N73923599   4.075   7.282   6.454  0.8194  0.1662 -0.2739
   31MOL   H74023600   5.148   7.592   6.886  2.8284 -0.0110 -2.7888
   31MOL   H74123601   5.219   7.470   6.798  1.1834  3.2250  0.0469
   31MOL   H74223602   5.007   7.442   6.713  1.7437 -0.5724  0.5730
   31MOL   H74323603   4.972   7.354   6.861  1.3602 -0.7122  1.0702
   31MOL   H74423604   4.912   7.659   6.847  3.1937 -0.7785  1.4477
   31MOL   H74523605   4.885   7.546   6.981 -0.1049 -3.2422 -0.4040
   31MOL   H74623606   4.740   7.410   6.845 -0.8625 -0.4669  0.6153
   31MOL   H74723607   4.726   7.533   6.717 -1.6255  3.6395  0.9567
   31MOL   H74823608   4.538   7.599   6.721 -1.7683 -0.6144 -0.0083
   31MOL   H74923609   4.452   0.062   6.960 -1.6258 -1.3158  0.6351
   31MOL   H75023610   4.400   0.073   6.795 -1.8323  0.9028  0.8064
   31MOL   H75123611   4.304   7.542   6.956 -1.2682  1.7831  2.1643
   31MOL   H75223612   4.231   7.695   6.923  1.3422  0.1362  1.1760
   31MOL   H75323613   4.331   7.502   6.706  0.0869 -0.6014  1.8521
   31MOL   H75423614   4.245   7.651   6.685 -0.4985 -1.2330 -2.2685
   31MOL   H75523615   4.132   7.398   6.820  0.0214 -0.2058 -1.1193
   31MOL   H75623616   4.046   7.547   6.812 -0.3735  1.5572 -0.9309
   31MOL   H75723617   3.969   7.454   6.622 -0.2063 -0.7072  0.4563
   31MOL   H75823618   4.116   7.523   6.551 -0.5164 -0.3186 -0.5597
   31MOL   H75923619   4.101   7.232   6.657  1.0643  1.0049  1.5334
   31MOL   H76023620   4.237   7.303   6.573 -0.4724  1.7910 -5.2330
   31MOL   H76123621   4.099   7.189   6.423 -1.5063 -1.0714  1.4832
   31MOL   H76223622   3.976   7.268   6.459  0.8662 -1.3343 -2.8239
   32MOL     C123623   4.917   0.382   1.504  0.3694 -0.1376 -0.7478
   32MOL     O223624   4.980   0.375   1.400  0.0289 -0.1278 -0.0285
   32MOL     C323625   4.765   0.364   1.499  0.0469 -0.2864 -0.2438
   32MOL     C423626   4.731   0.281   1.372 -0.0234 -0.3392 -0.2616
   32MOL     C523627   4.597   0.202   1.372  0.4139  0.0692 -0.0404
   32MOL     C623628   4.600   0.068   1.457  0.3872  0.0111  0.4365
   32MOL     C723629   4.468   7.706   1.431 -0.1611 -0.3427  0.2662
   32MOL     O823630   4.404   0.001   1.326 -1.2006  0.4948  0.0130
   32MOL     N923631   4.441   7.620   1.528 -0.2541  0.0350  0.4035
   32MOL    C1023632   4.346   7.511   1.525  0.5494  0.5735  0.3884
   32MOL    C1123633   4.203   7.559   1.528 -0.4887 -0.1851 -0.2906
   32MOL    C1223634   4.165   7.624   1.659 -0.1415 -0.0918  0.6775
   32MOL    C1323635   4.031   7.692   1.672 -0.3871 -0.1891 -0.1142
   32MOL    C1423636   3.912   7.600   1.704  0.3416 -0.2138 -0.3042
   32MOL    C1523637   3.826   7.558   1.585 -0.3700 -0.2444  0.4289
   32MOL    N1623638   3.757   7.422   1.606  0.6337 -0.5148 -0.0730
   32MOL    H1723639   4.741   0.300   1.585  1.7141 -2.8129 -1.6093
   32MOL    H1823640   4.705   0.454   1.511 -0.0812 -0.7669  3.2039
   32MOL    H1923641   4.721   0.355   1.293 -0.0927 -1.2813 -1.1347
   32MOL    H2023642   4.807   0.208   1.345  2.6171  1.7904  1.1027
   32MOL    H2123643   4.582   0.186   1.265  0.4886 -2.0744  0.2540
   32MOL    H2223644   4.512   0.263   1.402 -2.7707 -4.3538  0.3508
   32MOL    H2323645   4.609   0.092   1.563 -0.5625 -0.1465  0.5565
   32MOL    H2423646   4.689   0.004   1.448  0.6710  0.1599  2.1146
   32MOL    H2523647   4.488   7.641   1.615 -0.0294 -0.5432  0.4209
   32MOL    H2623648   4.369   7.462   1.430  1.6970 -0.4884  1.1974
   32MOL    H2723649   4.379   7.445   1.605 -0.2470 -0.0734  0.1974
   32MOL    H2823650   4.178   7.630   1.449  1.6040 -0.3215 -1.0875
   32MOL    H2923651   4.149   7.465   1.518  4.4184 -3.1863 -0.1051
   32MOL    H3023652   4.238   7.703   1.678 -1.7550  1.4046  0.7696
   32MOL    H3123653   4.193   7.552   1.737 -0.7673  0.1430  1.1263
   32MOL    H3223654   4.028   0.053   1.756 -0.1974 -2.0392  1.4595
   32MOL    H3323655   4.004   0.050   1.590 -2.0246  0.7566  1.1694
   32MOL    H3423656   3.950   7.509   1.749  0.9760  0.3738  0.3593
   32MOL    H3523657   3.845   7.639   1.780 -0.0347  1.5971 -1.5374
   32MOL    H3623658   3.890   7.547   1.498 -1.6701 -0.1971 -0.5392
   32MOL    H3723659   3.762   7.636   1.544  1.4373  2.1194  1.9639
   32MOL    H3823660   3.809   7.339   1.583  1.1184 -0.0446 -0.7004
   32MOL    H3923661   4.959   0.391   1.604 -1.3951  0.8816 -0.0594
   32MOL    C4023662   3.648   7.410   1.677  0.2731  0.4325 -0.6208
   32MOL    O4123663   3.591   7.508   1.725 -0.5223 -0.3618 -0.6957
   32MOL    C4223664   3.591   7.271   1.675 -0.0894  0.2154  0.0397
   32MOL    C4323665   3.441   7.258   1.709 -0.2218  0.4510  0.0828
   32MOL    C4423666   3.363   7.164   1.628 -0.4027  0.2219 -0.1032
   32MOL    C4523667   3.211   7.168   1.667  0.2476 -0.2619  0.0783
   32MOL    C4623668   3.133   7.292   1.608  0.0776 -0.3349  1.0257
   32MOL    O4723669   3.188   7.382   1.549 -0.7079 -0.3812 -0.3030
   32MOL    N4823670   3.001   7.287   1.616 -0.9896 -0.3332  0.2573
   32MOL    C4923671   2.902   7.394   1.603  0.3985  0.2062 -0.5490
   32MOL    C5023672   2.796   7.362   1.701 -0.4759  0.1533  0.9715
   32MOL    C5123673   2.676   7.449   1.682 -0.0824  0.0476  0.4111
   32MOL    C5223674   2.566   7.417   1.792  0.5710  0.4515  0.3188
   32MOL    C5323675   2.447   7.506   1.781 -0.5636  0.3915 -0.0755
   32MOL    C5423676   2.333   7.466   1.695  0.0016 -0.9256  0.1408
   32MOL    N5523677   2.239   7.577   1.701  0.1095 -0.1327 -0.7916
   32MOL    H5623678   3.600   7.233   1.573 -1.3956  0.3529 -0.1350
   32MOL    H5723679   3.654   7.213   1.742  0.0846 -1.6817 -1.7202
   32MOL    H5823680   3.437   7.219   1.811  1.5627 -0.6630 -0.2561
   32MOL    H5923681   3.401   7.360   1.713 -2.7200 -0.4457 -0.7594
   32MOL    H6023682   3.407   7.066   1.643  2.0135  1.4611  1.2392
   32MOL    H6123683   3.371   7.188   1.522  0.8467 -0.8669 -0.2630
   32MOL    H6223684   3.199   7.160   1.775 -1.1082 -1.5092 -0.1523
   32MOL    H6323685   3.158   7.080   1.633 -1.5505  0.0962  1.8524
   32MOL    H6423686   2.963   7.198   1.647  0.9947 -2.0980 -2.1211
   32MOL    H6523687   2.946   7.490   1.631 -0.8277  0.9135 -1.0005
   32MOL    H6623688   2.862   7.397   1.502 -2.0806  2.8939  0.4160
   32MOL    H6723689   2.756   7.261   1.698  1.1596 -0.4872 -0.6389
   32MOL    H6823690   2.848   7.379   1.795  0.2509  1.7526  0.3056
   32MOL    H6923691   2.636   7.435   1.581 -0.0558 -0.4820  0.4741
   32MOL    H7023692   2.708   7.552   1.701  0.5560  0.6606 -3.6063
   32MOL    H7123693   2.518   7.321   1.775 -0.5420  1.0069  0.2927
   32MOL    H7223694   2.613   7.429   1.890  1.6335 -1.0434  0.0072
   32MOL    H7323695   2.408   7.509   1.883 -2.2916  3.1582 -0.7734
   32MOL    H7423696   2.478   7.610   1.779  0.3813  0.2235  2.7286
   32MOL    H7523697   2.279   7.374   1.720  0.1292 -0.2861  2.9952
   32MOL    H7623698   2.365   7.457   1.591  0.4697  0.6158  0.1314
   32MOL    H7723699   2.285   7.666   1.719  0.9656 -0.9539  1.2320
   32MOL    C7823700   2.103   7.570   1.676 -0.0479 -0.2571  0.2739
   32MOL    O7923701   2.049   7.465   1.648  0.5906  0.5048  0.5147
   32MOL    C8023702   2.021   7.702   1.671 -0.4846 -0.3721  0.2437
   32MOL    C8123703   1.886   7.693   1.600 -0.3085 -0.1394  0.2254
   32MOL    C8223704   1.823   0.119   1.555 -0.3460  0.2922 -0.0973
   32MOL    C8323705   1.682   0.120   1.478 -0.6180 -0.1905 -0.2313
   32MOL    C8423706   1.563   0.125   1.570 -0.1005  0.0698 -0.1017
   32MOL    O8523707   1.552   0.037   1.655 -0.0311 -0.6097  0.0280
   32MOL    N8623708   1.472   0.214   1.548  0.4300 -0.2817  0.1487
   32MOL    C8723709   1.337   0.216   1.611 -0.0135 -0.1323 -0.2581
   32MOL    C8823710   1.239   0.219   1.493 -0.6901  0.4984 -0.8261
   32MOL    C8923711   1.095   0.196   1.532  0.7010 -0.1139 -0.2254
   32MOL    C9023712   1.001   0.166   1.409 -0.3778 -0.3755  0.1624
   32MOL    C9123713   0.851   0.140   1.446  0.2608  0.3273  0.2659
   32MOL    C9223714   0.827   0.022   1.537  0.4248 -0.9792  0.2825
   32MOL    N9323715   0.690   0.001   1.545 -0.1859 -0.1122 -0.4449
   32MOL    H9423716   2.014   0.038   1.770  2.4679 -1.0434  0.7890
   32MOL    H9523717   2.074   0.074   1.619 -0.3133 -0.9227 -0.4414
   32MOL    H9623718   1.889   7.628   1.512 -1.0171  1.0103 -0.6493
   32MOL    H9723719   1.815   7.647   1.668  0.6442  0.9055  1.9602
   32MOL    H9823720   1.884   0.168   1.479  0.5722  3.3114  2.4531
   32MOL    H9923721   1.834   0.189   1.638  0.9026  0.4945 -0.4218
   32MOL   H10023722   1.663   0.025   1.427  1.6613 -0.9935  0.3466
   32MOL   H10123723   1.680   0.203   1.408  2.1713  1.4943  1.6122
   32MOL   H10223724   1.486   0.290   1.484 -0.9310  0.1513  0.3538
   32MOL   H10323725   1.312   0.139   1.684 -1.6179  1.1993  0.6111
   32MOL   H10423726   1.325   0.302   1.677 -0.0209  0.6441 -1.2616
   32MOL   H10523727   1.255   0.310   1.435 -1.2519  1.3035  0.2547
   32MOL   H10623728   1.269   0.134   1.433 -0.2045 -0.2354  0.4364
   32MOL   H10723729   1.078   0.287   1.590  2.1563 -1.3094  2.1651
   32MOL   H10823730   1.092   0.111   1.601 -0.5187 -1.1623 -1.5471
   32MOL   H10923731   0.994   0.249   1.339  0.5405 -0.2087  0.2694
   32MOL   H11023732   1.041   0.077   1.360  1.2006 -0.9047  2.3407
   32MOL   H11123733   0.804   0.231   1.483  0.3232  0.3666  0.2488
   32MOL   H11223734   0.798   0.127   1.352  0.5218 -0.5404  0.2356
   32MOL   H11323735   0.853   0.037   1.642  1.8050  0.1704 -0.2054
   32MOL   H11423736   0.881   7.645   1.497  1.3341 -0.4886  0.4584
   32MOL   H11523737   0.649   0.080   1.593  0.2764  0.0306 -0.2739
   32MOL   C11623738   0.621   7.602   1.505  0.0176  0.3038 -0.4704
   32MOL   O11723739   0.678   7.510   1.451  0.3494  0.4978 -0.2633
   32MOL   C11823740   0.469   7.602   1.540  0.3149 -0.8795  0.1590
   32MOL   C11923741   0.399   7.462   1.523  0.5568  1.1127 -0.0900
   32MOL   C12023742   0.240   7.469   1.530  0.1586 -0.3326 -0.1892
   32MOL   C12123743   0.182   7.325   1.519  0.1523 -0.2011  0.2615
   32MOL   C12223744   0.032   7.320   1.546 -0.5656 -0.0287 -0.1756
   32MOL   O12323745   7.681   7.415   1.600  0.2934  0.0118 -1.1356
   32MOL   N12423746   7.687   7.203   1.511 -0.6492 -0.1560  0.1185
   32MOL   C12523747   7.545   7.164   1.511 -0.7314 -0.4982 -0.5087
   32MOL   C12623748   7.537   7.031   1.447  0.6893 -0.1920 -0.1262
   32MOL   C12723749   7.402   6.964   1.481  0.3502  0.2483 -0.4632
   32MOL   C12823750   7.392   6.819   1.440  1.1852 -0.4419 -0.3594
   32MOL   C12923751   7.258   6.742   1.452 -0.1750  0.4242  0.2383
   32MOL   C13023752   7.142   6.782   1.349  0.1183 -0.4327  0.5472
   32MOL   N13123753   7.025   6.707   1.387 -0.2051 -0.0385 -0.0620
   32MOL   H13223754   0.448   7.652   1.634 -0.3714 -0.7643 -0.0526
   32MOL   H13323755   0.424   7.670   1.468  1.0112  0.2267  0.7641
   32MOL   H13423756   0.423   7.432   1.421 -4.5394  0.8543 -1.3662
   32MOL   H13523757   0.425   7.388   1.598 -0.5779  1.4126  0.6138
   32MOL   H13623758   0.199   7.533   1.452  2.5096  0.2670 -0.9522
   32MOL   H13723759   0.216   7.515   1.626  2.4255  1.1257 -0.2871
   32MOL   H13823760   0.224   7.249   1.585  3.9201  1.8137  0.2848
   32MOL   H13923761   0.197   7.294   1.415  1.2038  1.9861 -0.2739
   32MOL   H14023762   0.033   7.139   1.456  0.3493 -0.2631  1.1961
   32MOL   H14123763   7.506   7.158   1.613  2.3264  0.6758  0.7836
   32MOL   H14223764   7.489   7.242   1.461 -2.1868 -2.0319 -1.3113
   32MOL   H14323765   7.561   7.030   1.341  0.6102  1.8226 -0.1773
   32MOL   H14423766   7.613   6.966   1.492 -0.4461  0.4578  2.8684
   32MOL   H14523767   7.320   7.017   1.431 -0.3474  1.0817  1.5375
   32MOL   H14623768   7.383   6.974   1.587 -0.8061  0.7669 -0.7090
   32MOL   H14723769   7.422   6.807   1.336  1.6614 -1.3053 -0.1357
   32MOL   H14823770   7.466   6.763   1.498 -0.1870 -0.3736  1.5099
   32MOL   H14923771   7.280   6.636   1.441  0.6040  0.4871  1.1226
   32MOL   H15023772   7.213   6.760   1.550  0.8827 -1.0674  1.0134
   32MOL   H15123773   7.179   6.770   1.247 -0.1340  4.8330 -0.2950
   32MOL   H15223774   7.119   6.888   1.360 -1.5473 -0.7278  0.0841
   32MOL   H15323775   7.012   6.698   1.487 -0.1176 -0.5383 -0.0968
   32MOL   C15423776   6.936   6.665   1.295  0.3213  0.2987 -0.1858
   32MOL   O15523777   6.950   6.677   1.173 -0.4700 -0.1937  0.0269
   32MOL   C15623778   6.802   6.621   1.357  0.5905  0.8041 -0.9572
   32MOL   C15723779   6.686   6.712   1.326  0.4423 -0.1788  0.3753
   32MOL   C15823780   6.687   6.830   1.416 -0.4302 -0.5278  0.0357
   32MOL   C15923781   6.585   6.937   1.376 -0.3205  0.3158 -0.4267
   32MOL   C16023782   6.580   7.037   1.494 -0.3901  0.0706  0.1245
   32MOL   O16123783   6.511   7.009   1.591  0.0019  0.2193  0.0447
   32MOL   N16223784   6.653   7.148   1.478 -0.2685 -0.7688  0.1311
   32MOL   C16323785   6.670   7.248   1.581 -0.4873  0.4913  0.4679
   32MOL   C16423786   6.556   7.349   1.569 -0.1645  0.2970 -0.1096
   32MOL   C16523787   6.568   7.463   1.674  0.4740  0.4187  0.2240
   32MOL   C16623788   6.475   7.580   1.650  0.8724  0.0996  0.1253
   32MOL   C16723789   6.471   7.687   1.762  0.9327 -0.5194  0.1619
   32MOL   C16823790   6.382   0.094   1.722 -0.2198 -0.4459 -1.3052
   32MOL   N16923791   6.385   0.201   1.828  0.4286  0.4578  0.0570
   32MOL   H17023792   6.780   6.524   1.312 -1.0533  0.3045  0.8656
   32MOL   H17123793   6.811   6.611   1.465 -0.5949 -0.8225 -0.9793
   32MOL   H17223794   6.691   6.730   1.218  0.2571 -1.7264  0.0957
   32MOL   H17323795   6.595   6.655   1.346  1.0169 -2.0730 -2.1595
   32MOL   H17423796   6.778   6.889   1.404 -0.5286 -0.8204 -2.2633
   32MOL   H17523797   6.670   6.805   1.521  0.9645 -0.9475  0.1655
   32MOL   H17623798   6.491   6.886   1.355  0.4669 -1.0150 -0.7736
   32MOL   H17723799   6.620   6.990   1.287 -1.1570 -0.4445 -1.2184
   32MOL   H17823800   6.693   7.151   1.386  1.3914 -0.0433  0.8584
   32MOL   H17923801   6.669   7.204   1.681 -0.5832  0.9756  0.6820
   32MOL   H18023802   6.772   7.284   1.575 -0.0005 -0.8077  0.7772
   32MOL   H18123803   6.576   7.400   1.474  0.6108  0.1362 -0.0352
   32MOL   H18223804   6.454   7.311   1.564 -0.5992  1.2268  1.4845
   32MOL   H18323805   6.673   7.491   1.679  1.3069 -2.6602  0.8141
   32MOL   H18423806   6.530   7.421   1.767 -1.0390  0.2849 -0.4488
   32MOL   H18523807   6.499   7.640   1.562  1.0958 -1.6931 -1.0790
   32MOL   H18623808   6.372   7.546   1.638  0.2998  1.8030  0.1185
   32MOL   H18723809   6.434   7.644   1.855  2.5533 -1.4965  0.3810
   32MOL   H18823810   6.570   0.017   1.785  1.1066 -0.9123  0.0667
   32MOL   H18923811   6.277   0.071   1.706 -0.3165 -0.1935 -1.0297
   32MOL   H19023812   6.408   0.127   1.621 -0.5110 -2.4624 -2.0602
   32MOL   H19123813   6.297   0.217   1.874  1.7269  1.3878  2.3092
   32MOL   C19223814   6.477   0.296   1.846 -0.1582  0.5110  0.2470
   32MOL   O19323815   6.586   0.292   1.791  0.8838 -0.0966  0.4418
   32MOL   C19423816   6.455   0.396   1.965  0.4112 -0.4051 -0.1021
   32MOL   C19523817   6.488   0.327   2.099 -0.3388  0.1083 -0.0886
   32MOL   C19623818   6.434   0.407   2.217 -0.4052 -0.4725  0.3567
   32MOL   C19723819   6.433   0.322   2.347  0.1050 -0.6472  0.3364
   32MOL   C19823820   6.336   0.202   2.342  0.7555  0.4879 -0.3662
   32MOL   O19923821   6.215   0.224   2.372  0.0651 -0.1710  0.1784
   32MOL   N20023822   6.375   0.080   2.314  0.2518  0.2719 -0.0647
   32MOL   C20123823   6.504   0.025   2.334 -0.2351  0.4797 -0.0183
   32MOL   C20223824   6.529   7.607   2.243 -0.2704  0.0979 -0.3103
   32MOL   C20323825   6.658   7.519   2.252 -0.3591  0.1140  0.3641
   32MOL   C20423826   6.627   7.364   2.219 -0.3018 -0.3586 -0.5460
   32MOL   C20523827   6.641   7.332   2.056 -0.1022 -0.6659 -0.2058
   32MOL   C20623828   6.608   7.184   2.017  0.5025 -0.1351 -0.2608
   32MOL   N20723829   6.677   7.079   2.088 -0.5254  0.1601  0.4138
   32MOL   H20823830   6.506   0.490   1.943  0.0453 -0.2231 -0.1741
   32MOL   H20923831   6.348   0.416   1.976  0.6378  0.0419  1.4161
   32MOL   H21023832   6.441   0.228   2.103 -2.0186  0.8957  0.1069
   32MOL   H21123833   6.591   0.294   2.112 -0.9024 -1.9285 -0.5957
   32MOL   H21223834   6.330   0.429   2.190 -0.5532 -2.3152 -0.6623
   32MOL   H21323835   6.485   0.502   2.231 -1.8000  0.1448  1.3926
   32MOL   H21423836   6.378   0.388   2.414 -2.4545 -1.6037 -0.7586
   32MOL   H21523837   6.530   0.298   2.390  0.6902  1.6331  0.3551
   32MOL   H21623838   6.299   0.014   2.307  1.9166 -1.8160  1.0685
   32MOL   H21723839   6.582   0.094   2.302 -0.7757  0.7838 -0.7170
   32MOL   H21823840   6.505   0.007   2.441 -1.1560 -3.3091 -0.5733
   32MOL   H21923841   6.441   7.544   2.255 -0.7076  0.7785  0.0663
   32MOL   H22023842   6.519   7.652   2.144  2.3643  2.2242  0.3211
   32MOL   H22123843   6.717   7.538   2.341 -1.0075  1.6143  0.5031
   32MOL   H22223844   6.730   7.568   2.187  0.1711 -0.6339  0.3812
   32MOL   H22323845   6.709   7.308   2.266 -0.5665  0.0189  0.3665
   32MOL   H22423846   6.529   7.328   2.251 -0.6846  0.7849 -0.4002
   32MOL   H22523847   6.581   7.397   1.991 -0.5086 -1.0520 -0.2190
   32MOL   H22623848   6.746   7.343   2.028  0.2531  0.2072  1.4065
   32MOL   H22723849   6.614   7.184   1.908 -0.2596  0.3370 -0.3112
   32MOL   H22823850   6.503   7.178   2.044  0.5732  1.5823  0.4979
   32MOL   H22923851   6.615   7.013   2.133 -1.3233  1.3927  1.1449
   32MOL   C23023852   6.808   7.036   2.078  0.1723 -1.2706 -0.7342
   32MOL   O23123853   6.892   7.104   2.012 -0.7941  0.0818 -0.1456
   32MOL   C23223854   6.839   6.901   2.143  0.1251  0.2403 -0.2110
   32MOL   C23323855   6.920   6.807   2.055 -0.0787 -0.3143  0.1268
   32MOL   C23423856   6.845   6.724   1.948  0.0910  0.3607 -0.2155
   32MOL   C23523857   6.802   6.805   1.822 -0.2577  0.4741  0.4264
   32MOL   C23623858   6.917   6.841   1.727 -0.1502  0.2516 -0.4357
   32MOL   O23723859   6.968   6.759   1.655  0.0381 -0.6241  0.6414
   32MOL   N23823860   6.945   6.977   1.724 -0.1688 -0.7295 -0.0040
   32MOL   C23923861   7.034   7.044   1.635  0.3470 -0.4818  0.4221
   32MOL   C24023862   7.082   7.173   1.707  0.0089  0.2273  0.4082
   32MOL   C24123863   7.217   7.232   1.662  0.8413 -1.1581  0.5635
   32MOL   C24223864   7.248   7.362   1.747 -0.9972 -0.1034 -0.5776
   32MOL   C24323865   7.377   7.427   1.693  0.1739  0.2714 -0.2162
   32MOL   C24423866   7.393   7.577   1.735 -0.6585  0.7375 -0.0670
   32MOL   N24523867   7.533   7.617   1.715  0.0556 -0.2543 -0.5146
   32MOL   H24623868   6.898   6.921   2.232  1.0398 -0.4281 -0.6546
   32MOL   H24723869   6.749   6.845   2.166 -2.1875  3.7062 -0.5378
   32MOL   H24823870   6.999   6.862   2.005 -0.0223 -0.9627 -0.4957
   32MOL   H24923871   6.969   6.729   2.114  1.3369  0.0752 -0.5161
   32MOL   H25023872   6.753   6.683   1.991 -0.7552 -0.3452 -2.5991
   32MOL   H25123873   6.908   6.639   1.924 -2.1718 -1.7741  1.1528
   32MOL   H25223874   6.752   6.892   1.865  0.0612 -0.1784  2.1567
   32MOL   H25323875   6.744   6.736   1.761  0.3304  0.1304  0.2452
   32MOL   H25423876   6.908   7.025   1.805 -2.0109  0.1567 -1.3526
   32MOL   H25523877   7.120   6.980   1.615  0.2003 -0.9146  1.1932
   32MOL   H25623878   6.981   7.068   1.543  1.9986  1.9057  0.0410
   32MOL   H25723879   7.006   7.251   1.700  0.9898  1.1705 -0.0211
   32MOL   H25823880   7.078   7.175   1.816 -1.8128  0.0837  0.3526
   32MOL   H25923881   7.217   7.261   1.557 -0.9266 -1.5743  0.4208
   32MOL   H26023882   7.294   7.156   1.676  0.4055 -1.3138  2.2036
   32MOL   H26123883   7.171   7.436   1.726 -0.1280  0.7942 -0.6529
   32MOL   H26223884   7.248   7.360   1.856 -1.2458  2.1780 -0.5197
   32MOL   H26323885   7.454   7.362   1.734  0.3225 -0.4482 -1.5788
   32MOL   H26423886   7.382   7.429   1.584 -0.5290  0.9796 -0.2405
   32MOL   H26523887   7.374   7.591   1.841  0.6376  1.4846  0.0670
   32MOL   H26623888   7.340   7.653   1.677 -0.7127  0.2842 -0.6123
   32MOL   H26723889   7.597   7.578   1.648  0.3995 -1.4776  0.5036
   32MOL   C26823890   7.601   7.701   1.797  0.0130  0.6639  0.1192
   32MOL   O26923891   7.547   0.036   1.897 -0.6493 -0.2652  0.0051
   32MOL   C27023892   0.039   0.028   1.760 -0.0963  0.6299  0.1118
   32MOL   C27123893   0.145   0.051   1.867  0.1619  0.3786  0.4804
   32MOL   C27223894   0.223   7.637   1.920 -0.4666  0.7035 -0.5317
   32MOL   C27323895   0.343   7.667   2.014 -0.3131 -0.2738  0.0886
   32MOL   C27423896   0.476   7.701   1.940 -0.3243  0.6162 -0.9261
   32MOL   O27523897   0.487   0.078   1.847  0.5533  0.2434  0.0227
   32MOL   N27623898   0.592   7.644   1.985  0.7012 -0.5666  0.1485
   32MOL   C27723899   0.727   7.663   1.920 -0.2024 -0.1716 -0.1304
   32MOL   C27823900   0.841   7.655   2.027  0.6425 -0.6189 -0.4818
   32MOL   C27923901   0.979   7.679   1.978 -0.5745 -0.6081 -0.0069
   32MOL   C28023902   1.094   7.653   2.075 -0.0989  0.3688 -0.8707
   32MOL   C28123903   1.235   0.002   2.037  0.6541 -0.0892  0.8568
   32MOL   C28223904   1.300   7.649   1.910  0.0950  0.4002  0.2521
   32MOL   N28323905   1.448   7.659   1.906  0.2690  0.0177 -0.0294
   32MOL   H28423906   0.074   7.660   1.690 -0.7334  0.3774  0.0590
   32MOL   H28523907   0.032   0.114   1.694  0.8193 -1.5235 -2.9285
   32MOL   H28623908   0.225   0.118   1.837 -0.1409  0.4849 -0.0928
   32MOL   H28723909   0.087   0.093   1.950 -0.1089  0.5449  0.2094
   32MOL   H28823910   0.271   7.590   1.834  1.0147 -0.0248  0.6548
   32MOL   H28923911   0.164   7.559   1.968  0.8301  0.5260  0.8279
   32MOL   H29023912   0.358   7.577   2.074  0.2176  0.3139  0.8507
   32MOL   H29123913   0.320   0.044   2.078  1.1776  1.9810 -2.2373
   32MOL   H29223914   0.590   7.591   2.071 -1.0158  0.5214  0.8039
   32MOL   H29323915   0.740   7.581   1.849 -0.7297  0.2682 -0.7415
   32MOL   H29423916   0.732   0.046   1.861 -0.6144 -0.6397 -0.9060
   32MOL   H29523917   0.820   0.019   2.106 -4.0801 -2.0675 -0.2292
   32MOL   H29623918   0.838   7.554   2.068 -0.7048 -0.1705  0.5600
   32MOL   H29723919   0.995   0.077   1.959  0.0519 -0.5502  0.8222
   32MOL   H29823920   1.012   7.625   1.889  1.0720  0.5603 -0.1402
   32MOL   H29923921   1.069   7.691   2.174  0.9231 -0.3717 -0.3205
   32MOL   H30023922   1.102   7.545   2.089  0.6120  0.6578  1.1295
   32MOL   H30123923   1.239   0.109   2.022 -2.0990 -0.1872 -0.7967
   32MOL   H30223924   1.300   7.698   2.124  0.7338  3.9543  1.4172
   32MOL   H30323925   1.260   7.695   1.819 -0.1022  0.1155  0.1953
   32MOL   H30423926   1.272   7.544   1.902  0.9772  0.0547  1.5209
   32MOL   H30523927   1.489   0.002   1.829  0.4152 -0.4886 -0.2931
   32MOL   C30623928   1.524   7.583   1.985 -0.3628 -0.1898 -0.2828
   32MOL   O30723929   1.478   7.501   2.067  0.1217 -0.3195  0.7177
   32MOL   C30823930   1.676   7.590   1.958  0.6018  0.5775 -0.0253
   32MOL   C30923931   1.765   7.554   2.079  0.4415 -0.6635  0.8443
   32MOL   C31023932   1.908   7.516   2.033  0.7939 -0.4315 -0.7588
   32MOL   C31123933   2.005   7.637   2.031  0.5843  0.7096  0.3170
   32MOL   C31223934   2.091   7.655   2.148  0.0065 -0.3949  0.0818
   32MOL   O31323935   2.051   7.652   2.270 -0.1897  0.1264 -0.0171
   32MOL   N31423936   2.226   7.666   2.117 -0.5896 -0.1766 -0.1105
   32MOL   C31523937   2.334   7.669   2.218  0.6947 -0.1420  0.9600
   32MOL   C31623938   2.437   7.563   2.208  0.0854  0.1234 -1.1964
   32MOL   C31723939   2.555   7.588   2.299 -0.1538  0.0710  0.2483
   32MOL   C31823940   2.666   7.483   2.315 -0.3026 -0.0450  0.0835
   32MOL   C31923941   2.731   7.450   2.182  0.1040  0.2458 -0.2336
   32MOL   C32023942   2.861   7.366   2.197  0.0183 -0.4957  0.2111
   32MOL   N32123943   2.959   7.437   2.268  0.4622 -0.2082  0.9272
   32MOL   H32223944   1.694   7.521   1.875  1.1083 -0.4764  0.9369
   32MOL   H32323945   1.695   7.686   1.911  4.5048 -0.3219 -0.4951
   32MOL   H32423946   1.762   7.632   2.155  3.2879  0.7571 -0.4496
   32MOL   H32523947   1.719   7.464   2.120 -1.2481 -0.3589 -0.3203
   32MOL   H32623948   1.901   7.471   1.934  0.6270  0.2340 -1.0530
   32MOL   H32723949   1.953   7.437   2.092  1.5763 -0.0049 -0.7726
   32MOL   H32823950   1.953   0.020   2.002 -3.0833 -1.7338 -1.1915
   32MOL   H32923951   2.064   7.616   1.942  1.9127  0.2360  1.2860
   32MOL   H33023952   2.254   7.692   2.024  4.1454  3.2327  2.0038
   32MOL   H33123953   2.386   0.050   2.182  1.3731 -0.9761 -0.1576
   32MOL   H33223954   2.305   7.695   2.320  0.4557 -0.6577  1.0264
   32MOL   H33323955   2.399   7.463   2.227  2.6394 -0.6358  0.1561
   32MOL   H33423956   2.473   7.558   2.106  0.3844 -0.5139 -1.0619
   32MOL   H33523957   2.517   7.606   2.399  1.3330  0.4930  0.7559
   32MOL   H33623958   2.608   7.675   2.261  1.9859 -1.1673  0.2825
   32MOL   H33723959   2.738   7.509   2.392  0.2945 -0.7685 -0.2248
   32MOL   H33823960   2.621   7.394   2.359  0.3977 -1.7095 -2.4884
   32MOL   H33923961   2.663   7.399   2.113 -0.7579 -0.0725  0.8326
   32MOL   H34023962   2.754   7.544   2.132  1.8505 -0.7611 -1.3422
   32MOL   H34123963   2.901   7.347   2.097 -1.0078  1.8677 -0.6847
   32MOL   H34223964   2.845   7.267   2.239 -0.9137  0.4802  2.2110
   32MOL   H34323965   2.984   7.529   2.234 -0.3556  0.1279  1.2219
   32MOL   C34423966   3.037   7.397   2.366 -0.2521 -0.0125 -0.2281
   32MOL   O34523967   3.026   7.287   2.420 -0.1158  0.2213  0.3217
   32MOL   C34623968   3.154   7.488   2.413  0.0034  0.1129  0.5538
   32MOL   C34723969   3.166   7.511   2.567 -0.3741  0.1003  0.3462
   32MOL   C34823970   3.283   7.596   2.614  0.0862 -0.2855 -1.0888
   32MOL   C34923971   3.320   7.587   2.767  0.6363 -0.3867  0.5631
   32MOL   C35023972   3.213   7.656   2.858  0.5440  0.0740  0.5457
   32MOL   O35123973   3.131   7.598   2.931  0.5370  0.5218 -0.8460
   32MOL   N35223974   3.230   0.084   2.849  0.2340  0.0881 -0.1345
   32MOL   C35323975   3.152   0.180   2.928  0.4354 -0.2500  0.1484
   32MOL   C35423976   3.129   0.316   2.857  0.3662  0.1310 -0.2488
   32MOL   C35523977   3.010   0.322   2.759  0.5620 -0.8845 -0.4224
   32MOL   C35623978   3.001   0.449   2.671 -0.1551 -0.0755 -0.1962
   32MOL   C35723979   3.104   0.458   2.552  0.2699  0.4718 -0.2920
   32MOL   C35823980   3.084   0.590   2.467 -0.6497 -0.5048 -0.4374
   32MOL   N35923981   3.203   0.599   2.382 -0.0729  0.3295 -0.0513
   32MOL   H36023982   3.233   7.424   2.374 -0.1635 -0.4460  1.1316
   32MOL   H36123983   3.151   7.580   2.354  1.4192  1.5353  2.6210
   32MOL   H36223984   3.076   7.565   2.596 -0.3560  0.5361 -0.4008
   32MOL   H36323985   3.162   7.411   2.612  3.0150  0.2593  1.1110
   32MOL   H36423986   3.258   7.698   2.584 -1.8800  0.2609  2.1841
   32MOL   H36523987   3.369   7.554   2.562  0.2766  0.7071 -1.5939
   32MOL   H36623988   3.418   7.628   2.790  1.4962 -0.9834 -1.8832
   32MOL   H36723989   3.311   7.481   2.793  1.0977 -0.2352  1.3629
   32MOL   H36823990   3.298   0.123   2.785  1.2876 -1.6343 -0.0881
   32MOL   H36923991   3.058   0.132   2.957  0.4524  0.1155  0.8239
   32MOL   H37023992   3.219   0.187   3.014  0.7712  0.6967 -0.1912
   32MOL   H37123993   3.112   0.393   2.933 -0.5847  0.3728 -0.7012
   32MOL   H37223994   3.219   0.344   2.804  0.4975 -0.7427 -0.4984
   32MOL   H37323995   2.914   0.313   2.811 -0.2236 -1.6718 -1.9535
   32MOL   H37423996   3.001   0.238   2.689  0.0918 -1.6448  0.5367
   32MOL   H37523997   2.905   0.450   2.618 -0.7304 -1.6610  0.7892
   32MOL   H37623998   3.003   0.528   2.746  1.7590  1.1792 -1.5466
   32MOL   H37723999   3.209   0.460   2.582  0.7154  0.8608 -1.8506
   32MOL   H37824000   3.080   0.375   2.486 -1.6796  0.6100  0.2113
   32MOL   H37924001   3.078   0.677   2.532 -0.0359  0.7865 -2.0759
   32MOL   H38024002   2.989   0.579   2.413 -0.3858 -0.0180 -1.0052
   32MOL   H38124003   3.276   0.661   2.413  0.5625 -0.2647 -0.3552
   32MOL   C38224004   3.206   0.533   2.266  1.0776  0.0888  0.5116
   32MOL   O38324005   3.112   0.469   2.214  0.5243 -0.3358  0.2010
   32MOL   C38424006   3.339   0.570   2.196 -0.1203 -0.0113 -0.3946
   32MOL   C38524007   3.328   0.656   2.069  0.4870 -0.2266 -0.3046
   32MOL   C38624008   3.249   0.788   2.071 -0.1530 -0.0490  0.3351
   32MOL   C38724009   3.302   0.900   1.981 -0.4463  0.0663 -0.1703
   32MOL   C38824010   3.430   0.959   2.031  0.1925  0.2551 -0.2913
   32MOL   O38924011   3.540   0.907   2.013  0.4780 -0.3388  0.0561
   32MOL   N39024012   3.420   1.068   2.108  0.6119 -1.1841  0.1617
   32MOL   C39124013   3.528   1.139   2.182  0.2917  0.1813  0.6103
   32MOL   C39224014   3.579   1.257   2.098  0.2816 -0.2238 -0.1263
   32MOL   C39324015   3.705   1.311   2.162  0.2131  0.4439 -0.5965
   32MOL   C39424016   3.667   1.417   2.268 -0.4470  0.2392 -0.3592
   32MOL   C39524017   3.787   1.470   2.343 -0.2564 -0.1661 -0.1786
   32MOL   C39624018   3.766   1.550   2.466 -0.5215 -0.2424  0.1392
   32MOL   N39724019   3.673   1.658   2.437  0.2286 -0.0962 -0.0225
   32MOL   H39824020   3.410   0.618   2.263 -1.4672 -0.4500  1.3707
   32MOL   H39924021   3.401   0.485   2.169 -1.4351 -0.4495 -2.1546
   32MOL   H40024022   3.434   0.675   2.054  0.2482  0.9379 -0.6003
   32MOL   H40124023   3.287   0.597   1.987  0.1115 -0.2512 -0.0954
   32MOL   H40224024   3.241   0.818   2.175 -0.5189  0.7150  0.0874
   32MOL   H40324025   3.141   0.784   2.056 -0.5045  0.7779  2.4189
   32MOL   H40424026   3.225   0.977   1.972  0.2078  0.4666 -2.8012
   32MOL   H40524027   3.316   0.872   1.877 -2.5806 -1.0537 -0.1785
   32MOL   H40624028   3.327   1.103   2.123  0.8035 -0.2746 -0.6684
   32MOL   H40724029   3.475   1.177   2.269 -1.6767 -0.0906 -0.4463
   32MOL   H40824030   3.604   1.063   2.201  0.2538 -0.6757 -2.3525
   32MOL   H40924031   3.605   1.217   2.000 -0.5178 -1.9255  0.3296
   32MOL   H41024032   3.506   1.333   2.073  1.2552  0.6284 -0.4114
   32MOL   H41124033   3.760   1.357   2.081  0.4477 -0.4517 -0.9511
   32MOL   H41224034   3.754   1.218   2.193  2.1553  0.9466 -2.0854
   32MOL   H41324035   3.615   1.504   2.227  0.3170  0.7748 -0.1914
   32MOL   H41424036   3.598   1.382   2.345  0.9285 -0.5121  0.5304
   32MOL   H41524037   3.856   1.388   2.363 -1.7436 -0.4286  4.7234
   32MOL   H41624038   3.850   1.539   2.287 -1.8619  1.5551  0.0544
   32MOL   H41724039   3.860   1.590   2.506  0.2822 -0.6540 -1.3194
   32MOL   H41824040   3.718   1.497   2.549 -2.5488  1.5909  0.1712
   32MOL   H41924041   3.713   1.732   2.381  0.9241 -1.4077 -1.2918
   32MOL   C42024042   3.553   1.676   2.487  0.0359 -0.1539 -0.4831
   32MOL   O42124043   3.492   1.604   2.561  0.1718 -0.3188  0.2427
   32MOL   C42224044   3.483   1.799   2.426 -0.4829 -0.2361  0.1139
   32MOL   C42324045   3.380   1.768   2.316  0.1413  0.1106 -0.2693
   32MOL   C42424046   3.352   1.887   2.220 -0.1833 -0.1337  0.2175
   32MOL   C42524047   3.229   1.855   2.127 -0.4998  0.0366 -0.0070
   32MOL   C42624048   3.224   1.973   2.023 -0.1826  0.1245 -0.0472
   32MOL   O42724049   3.295   1.974   1.924  0.2373  0.1902 -0.3203
   32MOL   N42824050   3.139   2.077   2.049  0.1867 -0.2853  0.2601
   32MOL   C42924051   3.045   2.089   2.163 -0.2227  0.6482  0.5293
   32MOL   C43024052   3.040   2.238   2.193  0.2713 -0.1350 -1.1686
   32MOL   C43124053   2.964   2.266   2.327  0.1361  0.1792 -0.4847
   32MOL   C43224054   2.951   2.412   2.362  0.1497  0.4698  0.2085
   32MOL   C43324055   2.868   2.424   2.488  0.0632  0.1034  0.3580
   32MOL   C43424056   2.857   2.567   2.543  0.2835  0.2836 -0.5775
   32MOL   N43524057   2.975   2.611   2.609  0.0499  0.0018  0.3069
   32MOL   H43624058   3.442   1.842   2.517  1.8436 -1.1657  1.6435
   32MOL   H43724059   3.557   1.859   2.374 -1.8249 -1.0413 -2.8271
   32MOL   H43824060   3.422   1.682   2.263 -3.0044 -2.7442  1.6375
   32MOL   H43924061   3.293   1.725   2.366  1.4662 -0.7767  1.3126
   32MOL   H44024062   3.435   1.902   2.152 -0.4395  2.7266  0.4835
   32MOL   H44124063   3.333   1.984   2.266  2.0872  1.5610 -2.2746
   32MOL   H44224064   3.139   1.848   2.189  0.5281  0.2355  1.5449
   32MOL   H44324065   3.257   1.768   2.068  1.3085  1.1065 -0.7626
   32MOL   H44424066   3.127   2.143   1.973  2.0826  0.8562  0.9187
   32MOL   H44524067   2.942   2.059   2.144 -0.0040  0.4873 -0.4422
   32MOL   H44624068   3.084   2.036   2.249 -0.8403 -0.0085  0.3991
   32MOL   H44724069   3.141   2.272   2.217 -0.5577  0.6602  1.3317
   32MOL   H44824070   2.995   2.297   2.113 -3.0742  1.3573  1.6780
   32MOL   H44924071   3.002   2.217   2.416 -0.7095  0.8408  0.2495
   32MOL   H45024072   2.867   2.219   2.314  0.1041  0.3769 -0.9662
   32MOL   H45124073   3.050   2.455   2.380  0.5995 -0.7902  0.8205
   32MOL   H45224074   2.902   2.461   2.278  0.7968  1.2226  0.2668
   32MOL   H45324075   2.772   2.377   2.467  0.0830  0.3675 -0.3247
   32MOL   H45424076   2.909   2.351   2.558  1.3313 -0.7395 -1.2331
   32MOL   H45524077   2.779   2.557   2.619  0.2414  0.0856 -0.6478
   32MOL   H45624078   2.824   2.637   2.466 -0.8552 -0.5436 -0.8632
   32MOL   H45724079   3.054   2.549   2.611  1.9127  2.3409  1.0046
   32MOL   C45824080   2.985   2.725   2.679 -0.3909  0.1849  0.3123
   32MOL   O45924081   2.893   2.809   2.678  0.2262  0.8067 -0.3305
   32MOL   C46024082   3.109   2.746   2.766  0.9208 -0.1358 -0.5821
   32MOL   C46124083   3.070   2.771   2.915 -0.2423  0.9056 -0.0475
   32MOL   C46224084   3.190   2.815   2.998 -0.5468 -0.7817 -0.0212
   32MOL   C46324085   3.234   2.716   3.120 -0.3223  0.2772  0.1711
   32MOL   C46424086   3.126   2.698   3.233 -0.3705  0.2322  0.2820
   32MOL   O46524087   3.030   2.777   3.236  0.2662  0.4267  0.3015
   32MOL   N46624088   3.155   2.613   3.337 -0.2346  0.1281  0.6737
   32MOL   C46724089   3.081   2.596   3.457  0.3141 -0.3234 -0.0762
   32MOL   C46824090   3.110   2.457   3.525 -0.0057  0.0849 -0.6052
   32MOL   C46924091   3.024   2.426   3.650  0.0774 -0.0275  0.0877
   32MOL   C47024092   2.876   2.389   3.635  0.0108  0.1462 -0.0715
   32MOL   C47124093   2.805   2.337   3.761 -0.0740 -0.6341 -0.1715
   32MOL   C47224094   2.650   2.366   3.753 -0.1810  0.5223 -0.5394
   32MOL   N47324095   2.581   2.313   3.869 -0.1817  0.0867 -0.2699
   32MOL   H47424096   3.188   2.671   2.758  0.8641 -0.1661 -0.8588
   32MOL   H47524097   3.143   2.843   2.729 -1.7371  0.7052 -0.9642
   32MOL   H47624098   2.987   2.840   2.929 -0.7409 -0.1973  2.9448
   32MOL   H47724099   3.039   2.672   2.950 -1.6880  1.1988 -0.4630
   32MOL   H47824100   3.171   2.916   3.033 -1.2004 -0.7988 -0.3156
   32MOL   H47924101   3.278   2.820   2.934  0.3583 -0.0128  1.2663
   32MOL   H48024102   3.337   2.737   3.147 -0.7361  2.3575  0.2103
   32MOL   H48124103   3.245   2.613   3.088  1.3653  0.6047 -0.3736
   32MOL   H48224104   3.244   2.570   3.317 -0.0989  0.2688  0.9768
   32MOL   H48324105   3.079   2.680   3.527 -0.2562  0.9223 -1.5671
   32MOL   H48424106   2.980   2.588   3.418  0.5108 -1.6869 -0.3235
   32MOL   H48524107   3.087   2.383   3.448 -2.3994 -2.6710  2.6087
   32MOL   H48624108   3.214   2.451   3.554 -0.0699 -1.4322 -0.6629
   32MOL   H48724109   3.035   2.498   3.731 -0.7960  3.5991 -2.8756
   32MOL   H48824110   3.070   2.338   3.696  0.4303  0.6998  1.1328
   32MOL   H48924111   2.819   2.474   3.598 -2.6492 -0.5974  2.1709
   32MOL   H49024112   2.870   2.315   3.555  0.9697  0.7306 -0.6904
   32MOL   H49124113   2.827   2.231   3.778 -1.1132 -0.7659  0.3888
   32MOL   H49224114   2.846   2.385   3.850  0.2250  0.4827 -0.9098
   32MOL   H49324115   2.595   2.324   3.668  1.3474  0.1752 -1.3786
   32MOL   H49424116   2.650   2.475   3.755  0.5676  0.5026  0.7363
   32MOL   H49524117   2.604   2.220   3.897 -1.6167  0.3299  1.8346
   32MOL   C49624118   2.488   2.374   3.948  0.7067  0.3832 -0.4234
   32MOL   O49724119   2.438   2.486   3.924 -0.2905 -0.8270 -0.6465
   32MOL   C49824120   2.442   2.294   4.071  0.0773  1.0587 -0.1247
   32MOL   C49924121   2.506   2.342   4.199 -0.2125  0.1376 -0.6187
   32MOL   C50024122   2.430   2.446   4.284 -0.3871 -0.0023 -0.5238
   32MOL   C50124123   2.501   2.481   4.415  0.0567 -0.4472 -0.4490
   32MOL   C50224124   2.531   2.355   4.500  0.2595  0.7567  0.0011
   32MOL   O50324125   2.447   2.283   4.553 -0.2783  0.5897 -0.6010
   32MOL   N50424126   2.655   2.324   4.533 -0.4372 -0.0143 -0.0816
   32MOL   C50524127   2.708   2.192   4.583 -0.4792 -0.7099  0.5921
   32MOL   C50624128   2.732   2.206   4.733  0.0178  0.8966 -0.4239
   32MOL   C50724129   2.596   2.184   4.815 -0.2575  0.0227 -0.6605
   32MOL   C50824130   2.621   2.176   4.963 -0.3931  0.9321  0.1839
   32MOL   C50924131   2.483   2.139   5.036  0.4799 -0.2993  0.1892
   32MOL   C51024132   2.501   2.137   5.185 -0.2436 -0.2980 -0.4290
   32MOL   N51124133   2.373   2.138   5.244  0.1930  0.4302 -0.0738
   32MOL   H51224134   2.334   2.277   4.077  0.2004 -0.2707 -1.3915
   32MOL   H51324135   2.477   2.195   4.042  0.1417  1.1872 -0.4905
   32MOL   H51424136   2.507   2.247   4.253  0.8088 -1.2822 -3.0760
   32MOL   H51524137   2.612   2.363   4.186  0.3263 -0.9748  1.6830
   32MOL   H51624138   2.334   2.400   4.308 -0.7047  0.8060 -0.2113
   32MOL   H51724139   2.400   2.533   4.226 -1.5189 -1.0157 -1.5004
   32MOL   H51824140   2.459   2.562   4.474  3.2016 -0.4512  1.9442
   32MOL   H51924141   2.597   2.524   4.388 -0.2978 -0.2623 -1.4426
   32MOL   H52024142   2.722   2.388   4.492 -0.2868  0.4230  0.8310
   32MOL   H52124143   2.639   2.109   4.571 -0.0037 -1.1632  0.9739
   32MOL   H52224144   2.793   2.149   4.531  0.7642 -1.1350  2.9148
   32MOL   H52324145   2.807   2.131   4.757 -0.2274  0.6276 -0.5077
   32MOL   H52424146   2.765   2.308   4.757  1.9572  0.7746 -2.3729
   32MOL   H52524147   2.546   2.094   4.779 -0.0087 -0.0264 -0.8883
   32MOL   H52624148   2.519   2.259   4.797  0.3702  0.0615 -3.3578
   32MOL   H52724149   2.709   2.115   4.984 -0.6723  0.4209 -0.1476
   32MOL   H52824150   2.643   2.281   4.983  3.4910 -0.0217  1.2702
   32MOL   H52924151   2.403   2.207   5.005  2.0673  1.6369  0.2281
   32MOL   H53024152   2.459   2.037   5.006 -1.3027  0.1681 -0.0627
   32MOL   H53124153   2.563   2.220   5.220 -1.0440 -0.3189  1.1012
   32MOL   H53224154   2.565   2.054   5.217  0.3430  0.3208  0.0307
   32MOL   H53324155   2.346   2.050   5.285  3.5384  0.6641  2.8036
   32MOL   C53424156   2.312   2.247   5.288 -0.5557 -0.2077  0.5812
   32MOL   O53524157   2.359   2.357   5.259 -0.1366  0.2205 -0.1725
   32MOL   C53624158   2.181   2.236   5.363  0.1567 -0.9537 -0.9218
   32MOL   C53724159   2.068   2.319   5.314  0.3633 -0.6517  0.8452
   32MOL   C53824160   1.936   2.259   5.343  0.6748  0.2031 -0.2633
   32MOL   C53924161   1.816   2.344   5.281 -0.3823 -0.7225  0.3653
   32MOL   C54024162   1.676   2.299   5.320  0.2646 -0.5571 -0.1331
   32MOL   O54124163   1.648   2.253   5.427 -0.3836 -0.2292 -0.7520
   32MOL   N54224164   1.590   2.307   5.219 -0.2590 -0.8720 -0.4120
   32MOL   C54324165   1.447   2.276   5.228 -0.3143 -0.4639  0.0817
   32MOL   C54424166   1.373   2.403   5.177  0.4672  0.6986  0.5339
   32MOL   C54524167   1.369   2.519   5.279  0.6858  0.6198  0.3325
   32MOL   C54624168   1.377   2.661   5.214 -0.3442  0.1567  1.0923
   32MOL   C54724169   1.513   2.686   5.140 -0.2416  0.0223 -1.1999
   32MOL   C54824170   1.538   2.833   5.105  0.4783 -0.0387  1.0649
   32MOL   N54924171   1.652   2.850   5.012  0.3673  0.7744  0.1830
   32MOL   H55024172   2.150   2.131   5.368  2.2610 -1.5700 -0.2408
   32MOL   H55124173   2.202   2.242   5.469  1.2315 -1.7001 -1.0800
   32MOL   H55224174   2.079   2.409   5.374 -0.4306 -0.6549  0.9908
   32MOL   H55324175   2.089   2.347   5.210 -0.7749  0.3670  0.8851
   32MOL   H55424176   1.903   2.241   5.446 -0.1517  0.9031 -0.3998
   32MOL   H55524177   1.935   2.155   5.309  1.5055  0.2075 -0.3186
   32MOL   H55624178   1.835   2.368   5.176 -0.1911  1.3513  0.8550
   32MOL   H55724179   1.831   2.442   5.326 -0.4760 -1.4172  1.9534
   32MOL   H55824180   1.628   2.339   5.131 -0.2599 -0.1123 -0.1430
   32MOL   H55924181   1.425   2.204   5.150 -2.0867  0.6161 -0.4545
   32MOL   H56024182   1.414   2.256   5.330  2.6832 -0.4714  1.1077
   32MOL   H56124183   1.411   2.436   5.081  0.9099  1.8751  1.1007
   32MOL   H56224184   1.268   2.376   5.163  0.4771  0.8339  0.1886
   32MOL   H56324185   1.452   2.511   5.350  0.2317 -0.8103  0.7186
   32MOL   H56424186   1.274   2.503   5.330 -0.3936  1.0636 -1.5075
   32MOL   H56524187   1.292   2.687   5.151 -0.5983 -1.3060  0.8133
   32MOL   H56624188   1.382   2.732   5.297 -3.8509  0.9269  0.7229
   32MOL   H56724189   1.596   2.638   5.193 -0.2601  1.4151  0.1244
   32MOL   H56824190   1.504   2.646   5.039 -0.3615  4.3240 -2.9976
   32MOL   H56924191   1.560   2.893   5.193  0.8279  0.0922  0.8880
   32MOL   H57024192   1.453   2.878   5.053  1.0453  3.2119  2.8843
   32MOL   H57124193   1.628   2.855   4.914  0.5578  0.6739  0.1312
   32MOL   C57224194   1.779   2.866   5.043  0.1714  0.1873 -0.4320
   32MOL   O57324195   1.810   2.861   5.161  0.2916 -0.2831 -0.5226
   32MOL   C57424196   1.878   2.896   4.935  1.0563  1.2220 -0.4458
   32MOL   C57524197   2.025   2.889   4.984 -0.3970  0.6256  0.1624
   32MOL   C57624198   2.122   2.950   4.888 -0.1610  0.4873  0.9497
   32MOL   C57724199   2.272   2.935   4.930  0.1659 -0.5039  0.3563
   32MOL   C57824200   2.371   2.999   4.834 -0.1897  0.5986 -0.3935
   32MOL   O57924201   2.369   3.118   4.821  0.0070 -0.8184  0.0235
   32MOL   N58024202   2.451   2.915   4.759 -0.5653  0.1866 -0.1289
   32MOL   C58124203   2.551   2.958   4.659  0.3668  0.5864 -0.1981
   32MOL   C58224204   2.646   2.845   4.622 -0.6359  0.2322 -0.7591
   32MOL   C58324205   2.755   2.813   4.718 -0.2121  0.9431  0.1430
   32MOL   C58424206   2.815   2.670   4.697 -0.3644 -0.2799 -0.1928
   32MOL   C58524207   2.895   2.639   4.566 -0.3379 -0.0606  0.0932
   32MOL   C58624208   2.971   2.505   4.579  0.0077 -0.2102  0.4881
   32MOL   N58724209   3.033   2.471   4.446  0.2563  0.3567  0.1708
   32MOL   H58824210   1.850   2.827   4.856  1.5150  0.7897 -0.2313
   32MOL   H58924211   1.855   2.994   4.892 -2.3381  0.0819 -1.3421
   32MOL   H59024212   2.033   2.925   5.086 -1.4903  0.0654  0.4542
   32MOL   H59124213   2.052   2.783   4.986 -0.2438  0.5786 -2.1234
   32MOL   H59224214   2.098   3.056   4.876 -0.1653  0.1979 -2.0465
   32MOL   H59324215   2.111   2.909   4.787  0.8052 -0.2327  1.1318
   32MOL   H59424216   2.294   2.830   4.951  0.0717 -0.7201 -0.6304
   32MOL   H59524217   2.281   2.975   5.031  0.3064 -3.9813  1.8067
   32MOL   H59624218   2.453   2.817   4.782 -1.7686  0.0044 -0.7290
   32MOL   H59724219   2.500   2.986   4.566 -0.1272 -0.3156 -0.2028
   32MOL   H59824220   2.609   3.044   4.691 -0.8125  0.8676  1.2585
   32MOL   H59924221   2.587   2.754   4.614  1.4138 -1.3960  2.0264
   32MOL   H60024222   2.683   2.870   4.522 -1.7017  0.3054 -1.1429
   32MOL   H60124223   2.721   2.826   4.820  2.8126  1.5857  1.1174
   32MOL   H60224224   2.825   2.895   4.701  2.2431 -0.5128  2.9528
   32MOL   H60324225   2.881   2.641   4.778 -0.5242  1.8162  0.7225
   32MOL   H60424226   2.732   2.600   4.694 -0.2241 -0.5247  1.2934
   32MOL   H60524227   2.827   2.630   4.481  1.7687 -0.6523 -1.5596
   32MOL   H60624228   2.962   2.723   4.550  0.2947 -0.1237  2.3577
   32MOL   H60724229   2.905   2.426   4.615 -0.7060  0.4117  0.5397
   32MOL   H60824230   3.050   2.529   4.651  0.7794  0.3329 -0.5210
   32MOL   H60924231   3.128   2.506   4.438 -0.1817  1.2807 -1.1206
   32MOL   C61024232   2.961   2.425   4.340  0.4532 -0.0535  0.1657
   32MOL   O61124233   2.842   2.397   4.348 -0.1602 -0.3768 -0.3257
   32MOL   C61224234   3.042   2.396   4.213 -0.5128 -0.0251 -0.0274
   32MOL   C61324235   2.979   2.291   4.124 -0.4502  0.1881  0.8019
   32MOL   C61424236   2.995   2.151   4.180 -0.1845 -0.2499  0.6563
   32MOL   C61524237   2.960   2.036   4.090 -0.1894  0.4309  0.5998
   32MOL   C61624238   2.812   2.020   4.064 -0.5103 -0.7604  0.8652
   32MOL   O61724239   2.752   2.097   3.989  0.5490  0.9034  0.3813
   32MOL   N61824240   2.746   1.941   4.146  0.0014  0.2858 -0.2742
   32MOL   C61924241   2.607   1.894   4.128 -0.6868 -0.0311 -0.0831
   32MOL   C62024242   2.517   1.953   4.242 -0.1725  0.3368  0.0985
   32MOL   C62124243   2.374   1.909   4.220 -0.6556  0.0677 -0.3662
   32MOL   C62224244   2.271   1.976   4.305  0.6911 -0.0529 -0.4046
   32MOL   C62324245   2.277   1.946   4.461 -0.1767  0.2758 -0.0060
   32MOL   C62424246   2.166   2.028   4.532  0.0210 -0.1511  0.0731
   32MOL   N62524247   2.186   2.173   4.530  0.1359 -0.1032  0.4416
   32MOL   H62624248   3.047   2.486   4.153  0.8631 -0.4895 -0.6398
   32MOL   H62724249   3.143   2.366   4.243 -0.0182  0.4892 -1.1435
   32MOL   H62824250   2.874   2.316   4.110 -0.0317  0.9694 -1.0231
   32MOL   H62924251   3.019   2.289   4.023 -0.6874  0.4843  0.7046
   32MOL   H63024252   2.939   2.137   4.273  0.9070  3.1185  1.9024
   32MOL   H63124253   3.098   2.144   4.214 -0.2891  1.1633  1.3138
   32MOL   H63224254   3.005   1.945   4.130  0.6608  0.1902 -0.8803
   32MOL   H63324255   3.007   2.046   3.993 -3.9389  0.9040 -1.2479
   32MOL   H63424256   2.800   1.904   4.223 -0.1208  2.1658  0.7470
   32MOL   H63524257   2.571   1.930   4.032 -2.1508 -0.5553  0.2598
   32MOL   H63624258   2.612   1.786   4.115  2.0077 -0.1309  1.3523
   32MOL   H63724259   2.543   1.912   4.340 -2.2876 -0.4198  0.3778
   32MOL   H63824260   2.519   2.062   4.242 -0.1106  0.3392 -1.3999
   32MOL   H63924261   2.364   1.802   4.237 -1.3753  0.0494 -0.9002
   32MOL   H64024262   2.352   1.938   4.117 -1.7315  0.1958 -0.1100
   32MOL   H64124263   2.285   2.082   4.282  1.6734 -0.8831 -3.9367
   32MOL   H64224264   2.169   1.950   4.274  0.2396  2.4323 -1.1459
   32MOL   H64324265   2.265   1.841   4.486  0.2155  0.0961 -0.5769
   32MOL   H64424266   2.377   1.975   4.495  0.1258  1.4042 -1.7804
   32MOL   H64524267   2.153   2.003   4.637 -0.7618  1.2327  0.3202
   32MOL   H64624268   2.066   2.006   4.494  0.9719 -1.0398 -1.9908
   32MOL   H64724269   2.284   2.196   4.524  0.1342 -0.2728 -0.3504
   32MOL   C64824270   2.095   2.271   4.546 -0.3711  0.0260  0.1476
   32MOL   O64924271   1.979   2.242   4.564 -0.4747  0.0442  0.3471
   32MOL   C65024272   2.141   2.411   4.572 -0.4514  0.3684  0.1270
   32MOL   C65124273   2.133   2.455   4.719 -0.1257 -0.4938  0.0366
   32MOL   C65224274   2.267   2.498   4.774 -0.7071  0.0139  0.3245
   32MOL   C65324275   2.278   2.536   4.925 -0.2587  0.9797  0.3998
   32MOL   C65424276   2.421   2.575   4.960 -0.6487 -0.7170 -0.2308
   32MOL   O65524277   2.481   2.650   4.881 -0.2603  0.0116 -0.4242
   32MOL   N65624278   2.474   2.536   5.072 -1.0654  0.0462 -0.2170
   32MOL   C65724279   2.612   2.560   5.112  0.3075 -0.2735  0.3441
   32MOL   C65824280   2.643   2.700   5.173  0.5348 -0.0596  0.2315
   32MOL   C65924281   2.788   2.717   5.201  0.0318 -0.1336 -0.2220
   32MOL   C66024282   2.871   2.755   5.084  0.2729  0.3892  0.1701
   32MOL   C66124283   3.018   2.769   5.131  0.7355 -0.0286 -0.1665
   32MOL   C66224284   3.129   2.776   5.020  0.6530  0.4044  0.0916
   32MOL   N66324285   3.088   2.854   4.907  0.0118 -0.3181  0.0022
   32MOL   H66424286   2.241   2.428   4.530 -0.0255  0.7845  1.2863
   32MOL   H66524287   2.069   2.474   4.519 -1.2368 -1.0694 -0.5314
   32MOL   H66624288   2.050   2.525   4.731 -0.2594 -0.7363  0.5161
   32MOL   H66724289   2.109   2.369   4.781  0.2172 -1.5670 -1.2926
   32MOL   H66824290   2.295   2.593   4.727 -0.3687 -2.1129 -4.0555
   32MOL   H66924291   2.347   2.428   4.751  0.4514  2.4717 -3.6539
   32MOL   H67024292   2.252   2.447   4.981  1.9397  1.0887  1.6095
   32MOL   H67124293   2.209   2.611   4.966 -0.6025  0.3929  0.8972
   32MOL   H67224294   2.429   2.463   5.125 -0.2240 -0.6554 -0.4618
   32MOL   H67324295   2.640   2.482   5.184  2.9328 -1.4669 -1.8576
   32MOL   H67424296   2.670   2.543   5.021  0.3477 -0.1350  0.3448
   32MOL   H67524297   2.617   2.781   5.105  0.8405  0.1398  0.3521
   32MOL   H67624298   2.583   2.719   5.262  0.6440 -1.4873  0.6269
   32MOL   H67724299   2.838   2.642   5.261  1.1359  1.9629  1.5356
   32MOL   H67824300   2.789   2.802   5.269  0.3872 -1.4156  1.3778
   32MOL   H67924301   2.864   2.686   5.000  2.1254  1.1950 -0.6820
   32MOL   H68024302   2.838   2.849   5.040  1.9750  0.2583 -1.4507
   32MOL   H68124303   3.026   2.858   5.195 -0.2803 -1.1618  1.5829
   32MOL   H68224304   3.029   2.684   5.198 -2.3009  0.2417  0.7428
   32MOL   H68324305   3.159   2.676   4.988 -1.5491 -0.7541  1.4927
   32MOL   H68424306   3.222   2.816   5.059  1.1700 -0.4059 -0.2945
   32MOL   H68524307   3.028   2.935   4.912 -0.1137 -0.1531 -2.9610
   32MOL   C68624308   3.141   2.843   4.786 -0.5739 -0.1384 -0.9279
   32MOL   O68724309   3.213   2.746   4.758 -0.2512 -0.4846  0.4211
   32MOL   C68824310   3.118   2.956   4.683 -0.4855 -0.2618  0.8548
   32MOL   C68924311   3.238   3.050   4.640 -0.4032  0.4881 -0.4974
   32MOL   C69024312   3.298   3.130   4.754  0.4357 -0.3040  0.3447
   32MOL   C69124313   3.428   3.198   4.716  0.8304  0.3064 -0.4216
   32MOL   C69224314   3.468   3.307   4.816 -0.2142  0.0393  0.2083
   32MOL   O69324315   3.390   3.375   4.878  0.2652  0.6084  0.0119
   32MOL   N69424316   3.600   3.321   4.839 -0.2117 -0.6676 -0.2580
   32MOL   C69524317   3.655   3.418   4.935  0.1472 -0.6603 -0.1986
   32MOL   C69624318   3.643   3.371   5.080  0.2669 -0.3059  0.2401
   32MOL   C69724319   3.695   3.227   5.099  0.4046  0.4189  0.0931
   32MOL   C69824320   3.738   3.191   5.242  0.5108  0.3209  0.9006
   32MOL   C69924321   3.776   3.046   5.256  0.2478  1.1979  0.2142
   32MOL   C70024322   3.823   3.007   5.401  0.5677 -0.1635  0.2540
   32MOL   N70124323   3.822   2.868   5.437  0.1730  0.2287  0.2626
   32MOL   H70224324   3.084   2.915   4.588  2.0407 -0.1929 -0.1111
   32MOL   H70324325   3.041   3.025   4.719 -0.6978  0.0475 -0.1928
   32MOL   H70424326   3.318   2.986   4.602 -0.1830 -0.2917  1.2200
   32MOL   H70524327   3.211   3.120   4.562 -4.1939  1.1752  1.3232
   32MOL   H70624328   3.319   3.070   4.843 -1.3983 -0.1994  0.8704
   32MOL   H70724329   3.225   3.205   4.785  1.9607  1.1728  0.3965
   32MOL   H70824330   3.418   3.239   4.616  0.3123  1.5042  0.1169
   32MOL   H70924331   3.501   3.117   4.704 -0.4134 -0.6686 -1.6867
   32MOL   H71024332   3.662   3.258   4.791 -0.2147 -1.3395  0.6065
   32MOL   H71124333   3.761   3.424   4.908 -0.0516  1.3477 -0.6295
   32MOL   H71224334   3.608   3.516   4.923 -0.2455 -0.8126  0.0856
   32MOL   H71324335   3.698   3.434   5.149 -0.5344  0.8610 -0.1600
   32MOL   H71424336   3.541   3.374   5.119  1.1781 -0.1353  2.7275
   32MOL   H71524337   3.778   3.208   5.031 -2.0151 -2.2885 -2.2931
   32MOL   H71624338   3.614   3.161   5.066 -0.2112  0.8009  0.8390
   32MOL   H71724339   3.823   3.254   5.268  0.7528  1.3499 -2.1867
   32MOL   H71824340   3.664   3.215   5.318 -2.1201  1.7187 -1.9830
   32MOL   H71924341   3.688   2.989   5.224  1.3326 -0.5802  0.3992
   32MOL   H72024342   3.857   3.038   5.183  0.8361 -1.2069  1.0843
   32MOL   H72124343   3.753   3.049   5.473 -1.0815  0.6529 -1.7828
   32MOL   H72224344   3.918   3.056   5.423  1.8048 -1.3673 -2.1948
   32MOL   H72324345   3.763   2.854   5.517 -0.2485  2.8690  0.4520
   32MOL   C72424346   3.871   2.765   5.373  0.3958 -0.0630 -0.2345
   32MOL   O72524347   3.946   2.776   5.277  0.2072  0.3917 -0.2918
   32MOL   C72624348   3.857   2.623   5.432 -0.9391  0.8370  0.0658
   32MOL   C72724349   3.865   2.514   5.324 -0.0078  0.4759 -0.1207
   32MOL   C72824350   3.821   2.376   5.373 -0.4758  0.1206 -0.4202
   32MOL   C72924351   3.827   2.265   5.264  0.3371 -0.4037 -0.2652
   32MOL   C73024352   3.963   2.206   5.228 -0.2009  0.4788 -0.2483
   32MOL   O73124353   4.070   2.232   5.286  0.1571 -0.5648  0.3653
   32MOL   N73224354   3.962   2.107   5.138 -0.2338  0.4784  0.0724
   32MOL   C73324355   4.067   2.018   5.106  0.4159  0.4504  0.2817
   32MOL   C73424356   4.026   1.871   5.105  0.0684 -0.2913  0.0561
   32MOL   C73524357   4.110   1.786   5.009 -0.4165  0.2502  0.2006
   32MOL   C73624358   4.043   1.657   4.950  0.6177 -0.0052  0.1959
   32MOL   C73724359   4.144   1.576   4.865  0.2411 -0.1739 -0.7143
   32MOL   C73824360   4.076   1.467   4.788 -0.0721 -0.5084 -0.1635
   32MOL   N73924361   4.184   1.385   4.738  0.1517  0.0637 -0.1927
   32MOL   H74024362   3.944   2.612   5.497 -0.6003  2.5536 -0.0737
   32MOL   H74124363   3.765   2.622   5.491 -0.3325  1.9155  1.0532
   32MOL   H74224364   3.821   2.549   5.231  3.6799 -0.5756 -2.3199
   32MOL   H74324365   3.973   2.510   5.311  0.2260  1.0209  1.4873
   32MOL   H74424366   3.715   2.383   5.394  0.1718  0.2501  3.1237
   32MOL   H74524367   3.877   2.335   5.457 -2.2330  2.0168  1.7262
   32MOL   H74624368   3.789   2.295   5.167 -2.8087 -3.4727 -0.0787
   32MOL   H74724369   3.776   2.176   5.303  0.1196 -0.4501 -0.6551
   32MOL   H74824370   3.871   2.079   5.104 -0.3166  0.7065  0.1000
   32MOL   H74924371   4.087   2.047   5.003  1.5358  3.2397  1.2385
   32MOL   H75024372   4.153   2.028   5.171 -0.6912  0.0039  1.8480
   32MOL   H75124373   4.025   1.828   5.206 -0.8948  0.1716  0.2477
   32MOL   H75224374   3.919   1.875   5.086  0.1060 -1.4809 -0.4339
   32MOL   H75324375   4.210   1.763   5.046 -0.9444  0.3535  1.6901
   32MOL   H75424376   4.139   1.844   4.921  1.3965 -2.7520 -1.2964
   32MOL   H75524377   4.008   1.604   5.039  0.9443  0.3774  0.5578
   32MOL   H75624378   3.952   1.681   4.895  0.2147 -0.8752  0.4639
   32MOL   H75724379   4.191   1.647   4.797 -1.6243 -0.7706 -2.6793
   32MOL   H75824380   4.223   1.538   4.929 -1.1640 -0.8700  0.6498
   32MOL   H75924381   4.035   1.512   4.698  1.2589  1.8254  0.3558
   32MOL   H76024382   3.998   1.414   4.845  1.2576 -1.7180  0.5734
   32MOL   H76124383   4.156   1.341   4.652  0.0996  0.1243 -0.2063
   32MOL   H76224384   4.259   1.441   4.701  1.9353 -1.4029  1.1005
   33MOL     C124385   1.687   4.778   1.894 -0.5847 -0.5593 -0.4477
   33MOL     O224386   1.770   4.841   1.963 -0.1350  0.1462  0.4217
   33MOL     C324387   1.567   4.705   1.953 -0.0354 -0.6843 -0.3727
   33MOL     C424388   1.610   4.616   2.076 -0.2762  0.6484  0.0434
   33MOL     C524389   1.661   4.481   2.034  0.0509 -0.4853  0.2758
   33MOL     C624390   1.695   4.399   2.154 -0.5271  0.6802 -0.2507
   33MOL     C724391   1.754   4.263   2.128  0.0948 -0.0067  0.1123
   33MOL     O824392   1.689   4.165   2.162  0.3464  0.0673 -0.0528
   33MOL     N924393   1.882   4.256   2.077  1.0924 -0.0994 -0.8189
   33MOL    C1024394   1.958   4.133   2.056  0.0417  0.1526 -0.8032
   33MOL    C1124395   2.112   4.153   2.078 -0.6216  0.5625 -0.1804
   33MOL    C1224396   2.191   4.254   1.990 -0.4746 -0.4423  0.5525
   33MOL    C1324397   2.342   4.273   2.018 -0.2927  0.0052 -0.4273
   33MOL    C1424398   2.400   4.378   1.926  0.5868  0.3073  0.3167
   33MOL    C1524399   2.551   4.391   1.958  0.7698 -0.4716  0.5822
   33MOL    N1624400   2.597   4.532   1.955  0.1604  0.4210  0.1515
   33MOL    H1724401   1.500   4.779   1.996 -0.4823 -1.6633  0.6532
   33MOL    H1824402   1.504   4.661   1.876 -1.1094  0.8691 -0.4164
   33MOL    H1924403   1.684   4.671   2.134  0.1736 -0.9454  0.9961
   33MOL    H2024404   1.521   4.608   2.138 -1.8074 -1.1284 -2.2972
   33MOL    H2124405   1.749   4.498   1.971  0.2659  1.5113  1.1039
   33MOL    H2224406   1.588   4.436   1.967  0.0851 -1.7706  1.0795
   33MOL    H2324407   1.604   4.381   2.212 -0.5977 -1.5986 -1.0304
   33MOL    H2424408   1.765   4.446   2.224 -1.7232 -1.0003  2.1368
   33MOL    H2524409   1.929   4.345   2.068 -0.7252  0.6741 -3.3926
   33MOL    H2624410   1.930   4.046   2.116  1.9400 -2.7223 -3.8878
   33MOL    H2724411   1.941   4.102   1.953 -0.6661  2.3518 -1.3655
   33MOL    H2824412   2.111   4.200   2.176 -1.3373  0.8030 -0.2945
   33MOL    H2924413   2.150   4.051   2.086 -0.7861  0.6667  2.2654
   33MOL    H3024414   2.150   4.352   2.015 -1.4901 -1.1187  1.6285
   33MOL    H3124415   2.169   4.227   1.887 -3.8042  0.9596  0.8454
   33MOL    H3224416   2.355   4.293   2.124 -0.0485 -1.5093 -0.1558
   33MOL    H3324417   2.389   4.176   2.005  0.2270  0.0270  1.2139
   33MOL    H3424418   2.376   4.359   1.821 -2.5089  0.2435  0.9732
   33MOL    H3524419   2.365   4.476   1.960 -0.3197 -0.0437  0.4115
   33MOL    H3624420   2.610   4.339   1.882 -0.2657 -0.7683 -0.0198
   33MOL    H3724421   2.572   4.356   2.059 -0.8162  1.5406  1.6297
   33MOL    H3824422   2.613   4.578   2.043 -3.0636  1.9697  0.0007
   33MOL    H3924423   1.683   4.782   1.785 -1.2806  0.0840 -0.3982
   33MOL    C4024424   2.629   4.603   1.848 -0.0720  0.1821 -0.6452
   33MOL    O4124425   2.658   4.556   1.738 -0.0068 -0.1019  0.4879
   33MOL    C4224426   2.635   4.752   1.866 -0.3929 -0.5460 -0.2730
   33MOL    C4324427   2.546   4.828   1.763  0.4969  0.0590 -0.5336
   33MOL    C4424428   2.587   4.980   1.750 -0.2345  0.4101  0.0890
   33MOL    C4524429   2.488   5.069   1.683 -0.1691  0.8926 -0.5405
   33MOL    C4624430   2.551   5.160   1.584  0.0948 -0.3452  0.3366
   33MOL    O4724431   2.560   5.126   1.468 -0.1156 -0.9068  0.3466
   33MOL    N4824432   2.593   5.271   1.638  0.2100  0.0039 -0.2687
   33MOL    C4924433   2.694   5.356   1.577 -1.1651  0.0498  0.0322
   33MOL    C5024434   2.659   5.506   1.603  0.6633 -0.3632  0.5506
   33MOL    C5124435   2.784   5.590   1.587  0.0812  0.3682 -0.1558
   33MOL    C5224436   2.769   5.737   1.590 -0.4290 -0.4166 -0.8558
   33MOL    C5324437   2.719   5.786   1.726  0.2123  0.0923 -0.2599
   33MOL    C5424438   2.643   5.917   1.705  0.3150  0.1887  0.5934
   33MOL    N5524439   2.739   6.015   1.645  0.3326 -0.9510 -0.7014
   33MOL    H5624440   2.617   4.775   1.971 -1.8899 -1.0372 -0.4110
   33MOL    H5724441   2.738   4.779   1.843 -0.8619  1.0618 -0.5808
   33MOL    H5824442   2.538   4.780   1.666 -1.3579 -3.5143  1.2979
   33MOL    H5924443   2.455   4.823   1.822  1.2608  2.3341  0.9415
   33MOL    H6024444   2.678   4.974   1.691  0.5423  1.3716  1.1740
   33MOL    H6124445   2.620   5.027   1.843  1.2965 -0.7640  0.1572
   33MOL    H6224446   2.429   5.124   1.757  0.0709  0.7937 -0.2731
   33MOL    H6324447   2.417   5.010   1.625  0.1098  0.1324 -0.1152
   33MOL    H6424448   2.596   5.281   1.738 -0.1720 -1.7261 -0.0720
   33MOL    H6524449   2.785   5.344   1.635 -1.0481  0.6148 -0.0357
   33MOL    H6624450   2.711   5.317   1.477 -1.5312 -1.0449  0.3894
   33MOL    H6724451   2.590   5.543   1.527  1.3342 -1.1866 -0.4743
   33MOL    H6824452   2.630   5.505   1.708 -0.4018  1.6655  0.2967
   33MOL    H6924453   2.822   5.547   1.495  0.9692 -0.7114  0.6897
   33MOL    H7024454   2.852   5.553   1.665 -0.5787 -2.9798 -1.0953
   33MOL    H7124455   2.852   5.801   1.558 -0.1819 -0.7004 -0.7786
   33MOL    H7224456   2.691   5.760   1.518 -0.6133  0.7967 -0.2866
   33MOL    H7324457   2.642   5.718   1.763 -2.7092  2.9928 -0.8037
   33MOL    H7424458   2.793   5.792   1.806  0.2542 -1.4114 -0.1670
   33MOL    H7524459   2.586   5.947   1.793  2.9592 -0.2911  2.5176
   33MOL    H7624460   2.564   5.908   1.630 -0.3935  0.7335  1.2662
   33MOL    H7724461   2.773   6.011   1.550  0.0556  0.4563 -0.8723
   33MOL    C7824462   2.812   6.104   1.716  0.6012  0.8368  0.4742
   33MOL    O7924463   2.777   6.140   1.827 -1.4079  0.2351  0.0280
   33MOL    C8024464   2.923   6.175   1.645  0.3361  0.3905  0.6604
   33MOL    C8124465   3.048   6.183   1.732 -0.2276 -0.6491  0.5357
   33MOL    C8224466   3.112   6.047   1.781 -0.2544 -0.2859  0.7821
   33MOL    C8324467   3.251   6.067   1.843 -0.3083  0.2095 -0.3127
   33MOL    C8424468   3.262   6.138   1.974 -0.2556  1.4331 -0.5676
   33MOL    O8524469   3.167   6.202   2.015 -0.2271 -0.0113 -0.3073
   33MOL    N8624470   3.378   6.136   2.047  0.9676 -0.0627  0.0054
   33MOL    C8724471   3.421   6.229   2.154 -0.4875  0.4491  0.3668
   33MOL    C8824472   3.522   6.165   2.247 -0.2966  0.4602  0.4727
   33MOL    C8924473   3.664   6.135   2.187 -0.4661 -0.3151  0.1963
   33MOL    C9024474   3.754   6.063   2.288 -0.0359 -0.6494  0.7100
   33MOL    C9124475   3.905   6.062   2.261 -0.1116  0.4669  0.1284
   33MOL    C9224476   3.984   6.021   2.380  0.2951 -0.3896 -0.3660
   33MOL    N9324477   4.125   6.022   2.338 -0.0475 -0.1416 -0.1960
   33MOL    H9424478   2.950   6.117   1.556 -1.2351  3.8495 -2.2163
   33MOL    H9524479   2.900   6.275   1.610 -0.0812  0.7376  1.9110
   33MOL    H9624480   3.123   6.234   1.671 -1.4419 -0.3426 -0.7182
   33MOL    H9724481   3.036   6.249   1.818  0.1261  2.5574 -1.7449
   33MOL    H9824482   3.108   5.990   1.688  1.5611 -0.0637  0.5336
   33MOL    H9924483   3.044   6.031   1.864 -1.6612  0.2561 -0.2340
   33MOL   H10024484   3.313   6.130   1.779 -0.1362  0.7428  0.3669
   33MOL   H10124485   3.296   5.968   1.849 -0.5891  0.0373 -1.0111
   33MOL   H10224486   3.448   6.069   2.020  2.1644  0.5683  1.5253
   33MOL   H10324487   3.472   6.314   2.111  0.7595 -1.8971 -3.0358
   33MOL   H10424488   3.338   6.272   2.210 -0.7563 -1.0481  1.1615
   33MOL   H10524489   3.540   6.223   2.338  0.6085 -2.8842  2.5361
   33MOL   H10624490   3.478   6.073   2.288  1.0374 -1.1631 -1.6417
   33MOL   H10724491   3.712   6.227   2.153 -0.3540 -0.6461 -0.5407
   33MOL   H10824492   3.654   6.063   2.106 -0.5620 -1.2368  1.0092
   33MOL   H10924493   3.738   6.114   2.383  0.4765  1.7266 -0.4503
   33MOL   H11024494   3.719   5.960   2.293 -1.6544 -0.2377 -1.5783
   33MOL   H11124495   3.927   5.996   2.176 -0.4847  0.5920 -0.0678
   33MOL   H11224496   3.930   6.157   2.215 -2.9494  1.5826  0.7736
   33MOL   H11324497   3.943   5.929   2.422  0.0038  0.0598  0.3422
   33MOL   H11424498   3.976   6.096   2.458  2.1059  0.6368 -1.1360
   33MOL   H11524499   4.146   6.026   2.239  1.8794  0.9558  0.2444
   33MOL   C11624500   4.221   6.023   2.436 -0.0070  0.0052  0.1679
   33MOL   O11724501   4.198   5.987   2.549 -0.0507  0.7076  0.1754
   33MOL   C11824502   4.363   6.072   2.406 -0.1556  0.3787 -0.2871
   33MOL   C11924503   4.410   6.191   2.491  0.3248  0.2338  0.6329
   33MOL   C12024504   4.318   6.311   2.488  0.0999 -0.2096  0.1610
   33MOL   C12124505   4.380   6.447   2.543  0.1704  0.7032  0.5344
   33MOL   C12224506   4.447   6.537   2.430 -0.5505 -0.1309 -0.5442
   33MOL   O12324507   4.542   6.484   2.374  0.0897  0.0679 -0.3480
   33MOL   N12424508   4.399   6.662   2.412  0.4335  0.2267 -0.0235
   33MOL   C12524509   4.464   6.756   2.322  0.5629  0.2461  0.0948
   33MOL   C12624510   4.527   6.868   2.405 -0.1179  0.3859 -0.4707
   33MOL   C12724511   4.609   6.973   2.319  0.2289 -0.0039  0.3906
   33MOL   C12824512   4.640   7.096   2.401  1.4518  0.1993  0.0401
   33MOL   C12924513   4.754   7.172   2.332 -0.3048  0.0790 -0.1919
   33MOL   C13024514   4.889   7.101   2.299 -0.1907 -0.9235  0.4652
   33MOL   N13124515   4.989   7.190   2.233  0.2088  0.1028 -0.4749
   33MOL   H13224516   4.431   5.990   2.426 -1.0666 -0.1826  0.5331
   33MOL   H13324517   4.376   6.101   2.301  0.9900 -1.3898 -0.6481
   33MOL   H13424518   4.420   6.152   2.592 -3.2305 -0.9872  0.5704
   33MOL   H13524519   4.511   6.212   2.455  0.1195 -1.7108 -1.2508
   33MOL   H13624520   4.228   6.285   2.544  1.6226 -1.0386  2.2854
   33MOL   H13724521   4.279   6.330   2.388  0.8783 -1.2197 -0.3330
   33MOL   H13824522   4.453   6.420   2.620 -0.4180  0.0415  0.8707
   33MOL   H13924523   4.290   6.491   2.585  0.8489  0.5253  2.2347
   33MOL   H14024524   4.324   6.704   2.465  0.2872  1.3048 -1.0701
   33MOL   H14124525   4.537   6.712   2.253  0.5413  1.1956 -0.5429
   33MOL   H14224526   4.378   6.799   2.270 -0.7536 -1.1648  1.0575
   33MOL   H14324527   4.455   6.922   2.466 -0.5371  0.1617 -0.7721
   33MOL   H14424528   4.599   6.825   2.474 -3.2073 -3.1912  0.6627
   33MOL   H14524529   4.557   6.998   2.227  1.0414  1.6859  0.3782
   33MOL   H14624530   4.697   6.928   2.273  0.7097 -0.0201  1.3265
   33MOL   H14724531   4.547   7.150   2.417  1.1072 -0.5594  0.6796
   33MOL   H14824532   4.680   7.065   2.498  1.8248  0.1118 -0.1393
   33MOL   H14924533   4.721   7.215   2.238  1.7588  0.9726 -0.5510
   33MOL   H15024534   4.773   7.255   2.400  0.3712 -1.8423  2.0314
   33MOL   H15124535   4.872   7.017   2.232  3.4308  0.0081 -1.7938
   33MOL   H15224536   4.933   7.064   2.392 -0.9746  0.1546  1.2730
   33MOL   H15324537   4.991   7.193   2.132 -0.4447  1.3535 -0.4473
   33MOL   C15424538   5.097   7.245   2.291  0.3288  0.9833  0.0544
   33MOL   O15524539   5.116   7.236   2.414 -0.4113 -0.2880 -0.2951
   33MOL   C15624540   5.182   7.324   2.198  0.6436  0.0814 -0.8985
   33MOL   C15724541   5.314   7.251   2.166 -0.6156  1.1869  0.3648
   33MOL   C15824542   5.298   7.157   2.047  0.3040 -0.4815 -0.4499
   33MOL   C15924543   5.422   7.061   2.025 -0.1802  0.4033  0.0576
   33MOL   C16024544   5.553   7.135   2.003  0.1842 -0.0323 -0.0328
   33MOL   O16124545   5.552   7.226   1.928 -0.1152 -0.1769  0.0440
   33MOL   N16224546   5.648   7.102   2.085  0.9126  0.1662 -0.2502
   33MOL   C16324547   5.776   7.164   2.080  0.0040  0.1176  1.2450
   33MOL   C16424548   5.878   7.087   2.176  0.4299 -0.2899 -0.6106
   33MOL   C16524549   5.929   6.953   2.118  0.2700  0.7037  0.3443
   33MOL   C16624550   5.959   6.840   2.223 -0.4146  0.1462 -0.3071
   33MOL   C16724551   6.078   6.851   2.325  0.4114 -0.2034  0.3071
   33MOL   C16824552   6.214   6.879   2.255 -0.1534 -0.3397 -0.3430
   33MOL   N16924553   6.318   6.867   2.355  0.1173  0.2389  0.5106
   33MOL   H17024554   5.141   7.350   2.100 -0.5314  3.9090  0.5064
   33MOL   H17124555   5.197   7.415   2.257  1.3777  0.7118 -2.0233
   33MOL   H17224556   5.390   7.325   2.144 -1.4743  2.2151  0.8281
   33MOL   H17324557   5.359   7.217   2.260 -0.8432 -0.9672 -0.2681
   33MOL   H17424558   5.279   7.207   1.952  0.3702  0.7039  0.1533
   33MOL   H17524559   5.206   7.100   2.056 -0.6010  1.0049 -0.1921
   33MOL   H17624560   5.401   7.003   1.935 -0.5485  1.5089 -0.5828
   33MOL   H17724561   5.434   6.988   2.105  1.0761  0.6236  0.0837
   33MOL   H17824562   5.626   7.033   2.156 -1.7288  2.9114  1.7387
   33MOL   H17924563   5.813   7.162   1.977  1.1258 -0.4173  1.6506
   33MOL   H18024564   5.759   7.267   2.111 -1.6527 -0.2815  1.7038
   33MOL   H18124565   5.969   7.143   2.197 -0.3211 -0.0236  2.1055
   33MOL   H18224566   5.832   7.076   2.274  1.1670 -0.0919 -0.2374
   33MOL   H18324567   6.018   6.965   2.055  1.2727 -2.8617  0.9722
   33MOL   H18424568   5.850   6.909   2.057  1.1889  0.7479 -0.9079
   33MOL   H18524569   5.875   6.810   2.285 -0.6358  0.8254 -0.2686
   33MOL   H18624570   5.975   6.755   2.156  1.5004  0.6584 -0.5227
   33MOL   H18724571   6.052   6.931   2.395  1.4255  1.1459 -0.8232
   33MOL   H18824572   6.083   6.755   2.377  2.2575  1.6226  3.7192
   33MOL   H18924573   6.204   6.973   2.200  0.7125 -0.0928 -0.0917
   33MOL   H19024574   6.229   6.811   2.172  4.1476 -0.3748  0.3382
   33MOL   H19124575   6.289   6.884   2.450 -2.2283 -0.2747 -0.0961
   33MOL   C19224576   6.447   6.859   2.333 -0.4237  0.0836 -0.4594
   33MOL   O19324577   6.494   6.888   2.218  0.7726 -0.5885 -0.0455
   33MOL   C19424578   6.533   6.807   2.452 -0.8898 -0.1726 -0.4569
   33MOL   C19524579   6.631   6.910   2.506 -0.0118 -0.4626 -0.5715
   33MOL   C19624580   6.728   6.852   2.606 -0.6974 -0.1154 -0.0393
   33MOL   C19724581   6.802   6.949   2.699 -0.0168 -0.7535 -0.1441
   33MOL   C19824582   6.930   6.895   2.767  0.1046 -0.0114  0.0196
   33MOL   O19924583   6.921   6.789   2.829 -0.4047  0.2109 -0.4174
   33MOL   N20024584   7.042   6.968   2.747 -0.6063  0.2738  0.2895
   33MOL   C20124585   7.176   6.914   2.768  0.1724 -0.0344 -0.1591
   33MOL   C20224586   7.264   7.018   2.844  0.2232 -0.3045 -0.2647
   33MOL   C20324587   7.413   6.983   2.854 -0.6740  0.2723 -0.0126
   33MOL   C20424588   7.499   7.084   2.926 -0.3251  0.2670  0.7289
   33MOL   C20524589   7.498   7.078   3.075  0.1728 -0.1090  0.5930
   33MOL   C20624590   7.409   7.187   3.144  0.2947  0.8695 -0.2950
   33MOL   N20724591   7.431   7.188   3.289  0.3950  0.2491  0.2126
   33MOL   H20824592   6.460   6.765   2.522 -0.7383 -1.5712 -1.1042
   33MOL   H20924593   6.601   6.728   2.421  2.2837  2.1671  0.3438
   33MOL   H21024594   6.683   6.959   2.424  0.2749 -1.3663 -0.9368
   33MOL   H21124595   6.559   6.978   2.553  1.7469 -0.6718  2.5551
   33MOL   H21224596   6.802   6.779   2.572  0.5468  0.9707  0.3129
   33MOL   H21324597   6.660   6.793   2.666 -0.7283 -0.7821 -0.7182
   33MOL   H21424598   6.731   6.965   2.780 -0.1251 -1.7533 -0.0332
   33MOL   H21524599   6.828   7.041   2.646  1.1865 -1.3739 -0.6653
   33MOL   H21624600   7.042   7.064   2.716 -0.3107 -0.3027 -1.5421
   33MOL   H21724601   7.171   6.829   2.837 -0.0997  1.8881  2.2655
   33MOL   H21824602   7.221   6.880   2.676  1.6633  1.0746  0.1380
   33MOL   H21924603   7.257   7.115   2.795  1.3606  1.2790  2.6043
   33MOL   H22024604   7.217   7.025   2.942  3.7859  0.4365  1.4917
   33MOL   H22124605   7.457   6.973   2.755  1.9547 -1.8132  1.3093
   33MOL   H22224606   7.426   6.888   2.906 -0.9723  0.8309  1.1117
   33MOL   H22324607   7.602   7.054   2.905  0.5735  2.4149  1.8437
   33MOL   H22424608   7.480   7.185   2.891  2.5934  0.7102  0.2689
   33MOL   H22524609   7.453   6.984   3.107 -0.9557  0.9217  2.1837
   33MOL   H22624610   7.600   7.095   3.109  0.8351 -3.6262  0.5309
   33MOL   H22724611   7.304   7.164   3.126  0.6238 -1.9571  1.0278
   33MOL   H22824612   7.427   7.287   3.104 -2.2099  1.0272 -1.0817
   33MOL   H22924613   7.527   7.204   3.314  0.5795  2.6688 -1.9360
   33MOL   C23024614   7.336   7.189   3.386  0.2286 -0.7254  1.0791
   33MOL   O23124615   7.223   7.181   3.360  0.3866 -0.1183 -0.0978
   33MOL   C23224616   7.376   7.205   3.532 -0.2299 -0.5905  0.4631
   33MOL   C23324617   7.307   7.299   3.638  0.0957  0.3786 -0.0683
   33MOL   C23424618   7.173   7.245   3.683  0.0487 -0.7990 -0.3888
   33MOL   C23524619   7.079   7.359   3.740 -0.2648 -0.1046  0.4143
   33MOL   C23624620   6.961   7.293   3.814  0.3025  0.3527 -0.2035
   33MOL   O23724621   6.890   7.210   3.757 -0.2571  0.2048  0.0371
   33MOL   N23824622   6.932   7.337   3.940  0.1606  0.1974 -0.4333
   33MOL   C23924623   6.817   7.296   4.023 -0.1156 -0.1536  0.1097
   33MOL   C24024624   6.838   7.166   4.094 -0.8499  0.4368 -0.2583
   33MOL   C24124625   6.714   7.107   4.166 -0.2222 -0.0096  0.4012
   33MOL   C24224626   6.743   6.980   4.249  0.3192  0.5501 -1.0499
   33MOL   C24324627   6.618   6.936   4.335  0.4597 -0.3960 -0.8602
   33MOL   C24424628   6.484   6.914   4.259  0.3453 -0.8559 -0.3915
   33MOL   N24524629   6.489   6.862   4.127 -0.4896 -0.4458  0.2225
   33MOL   H24624630   7.395   7.105   3.570  0.4960 -0.9741 -0.8431
   33MOL   H24724631   7.479   7.239   3.539 -0.4940 -0.0725  2.0562
   33MOL   H24824632   7.374   7.307   3.723  0.0177 -0.0295  0.0350
   33MOL   H24924633   7.293   7.401   3.604  1.2967  0.2911 -0.8630
   33MOL   H25024634   7.170   7.154   3.745  2.1927 -0.5792  0.0563
   33MOL   H25124635   7.125   7.217   3.589 -1.2173 -1.2313  0.3562
   33MOL   H25224636   7.036   7.416   3.658  0.7393  1.9168  1.2651
   33MOL   H25324637   7.137   7.421   3.808  0.4150 -1.2135  0.8710
   33MOL   H25424638   7.002   7.395   3.985 -0.3329  0.0829  0.5011
   33MOL   H25524639   6.801   7.372   4.100 -1.6487  2.3045 -2.5476
   33MOL   H25624640   6.734   7.291   3.952 -0.0505  1.7736 -0.1372
   33MOL   H25724641   6.874   7.092   4.023 -0.7967  0.8608 -0.6713
   33MOL   H25824642   6.915   7.178   4.170  0.8003  2.7058 -2.2149
   33MOL   H25924643   6.641   7.089   4.087 -0.0695  3.2806 -0.5872
   33MOL   H26024644   6.673   7.190   4.223 -0.6466  1.0843 -1.4559
   33MOL   H26124645   6.775   6.911   4.171  1.1750 -0.4394  0.1557
   33MOL   H26224646   6.831   6.987   4.312  0.8825 -1.4414 -1.5812
   33MOL   H26324647   6.627   6.848   4.400 -1.6596  0.2888  0.3988
   33MOL   H26424648   6.606   7.022   4.400  0.8140 -0.2888 -0.9319
   33MOL   H26524649   6.455   7.018   4.243  1.8554 -0.3311  0.1403
   33MOL   H26624650   6.407   6.863   4.318 -1.5297  0.3899 -1.7224
   33MOL   H26724651   6.537   6.921   4.060  0.6982  0.7531  2.0708
   33MOL   C26824652   6.451   6.748   4.084 -0.1866  0.3549 -0.0245
   33MOL   O26924653   6.395   6.661   4.148 -0.1579 -0.0419  0.5463
   33MOL   C27024654   6.490   6.719   3.938  0.5737  0.1055  0.0706
   33MOL   C27124655   6.366   6.734   3.837  0.2152 -0.0668  0.0174
   33MOL   C27224656   6.374   6.857   3.738  0.2886 -0.1550 -0.0472
   33MOL   C27324657   6.378   6.992   3.806  0.4301 -0.3953 -0.3659
   33MOL   C27424658   6.253   7.028   3.885 -0.2099 -0.4362 -0.5036
   33MOL   O27524659   6.152   6.967   3.879  0.1774  0.0897  0.2394
   33MOL   N27624660   6.264   7.143   3.958  0.3757 -0.2165  0.4130
   33MOL   C27724661   6.154   7.214   4.024  0.0142 -0.2212 -0.1004
   33MOL   C27824662   6.204   7.268   4.162 -0.0898  0.5149 -0.4691
   33MOL   C27924663   6.313   7.380   4.144 -0.2783  1.1590 -0.3695
   33MOL   C28024664   6.376   7.430   4.279  0.6091  0.1018 -0.0926
   33MOL   C28124665   6.422   7.570   4.271 -0.3425  0.2043 -0.2008
   33MOL   C28224666   6.315   7.677   4.283 -0.3984 -0.4491  0.3586
   33MOL   N28324667   6.243   7.669   4.404  0.1202 -0.8282  0.1840
   33MOL   H28424668   6.576   6.774   3.899  1.7387 -2.6931 -1.4902
   33MOL   H28524669   6.527   6.616   3.947  0.0575  0.0696  1.9717
   33MOL   H28624670   6.356   6.645   3.774  2.7091  0.1090 -0.7027
   33MOL   H28724671   6.275   6.742   3.896  1.7963  1.6130  2.2820
   33MOL   H28824672   6.299   6.861   3.659  0.3715  1.5955 -0.0591
   33MOL   H28924673   6.470   6.841   3.687 -0.3348  0.2673 -1.3830
   33MOL   H29024674   6.394   7.063   3.724 -0.9074  1.1607  0.6908
   33MOL   H29124675   6.464   7.009   3.871  1.6685 -0.5283 -1.9335
   33MOL   H29224676   6.346   7.197   3.935 -0.2106  0.9352  1.0335
   33MOL   H29324677   6.117   7.296   3.963 -0.7241 -1.7027 -1.7078
   33MOL   H29424678   6.081   7.138   4.052  0.7669 -0.6020  0.8870
   33MOL   H29524679   6.122   7.313   4.217 -0.3204  1.1510 -1.3299
   33MOL   H29624680   6.250   7.189   4.223 -1.7219  0.5870  0.8916
   33MOL   H29724681   6.284   7.465   4.082  0.9301  2.1934  0.4431
   33MOL   H29824682   6.403   7.355   4.088  0.1691 -2.8456  1.9871
   33MOL   H29924683   6.306   7.413   4.361  0.6056  0.1809 -0.0791
   33MOL   H30024684   6.456   7.362   4.306  0.0303 -0.5200  0.0515
   33MOL   H30124685   6.489   7.576   4.357 -1.2355  4.2355  0.3126
   33MOL   H30224686   6.485   7.589   4.184 -0.3958 -0.3927 -0.3650
   33MOL   H30324687   6.259   7.655   4.193  2.8916  0.6263 -2.0450
   33MOL   H30424688   6.360   0.068   4.275  0.5058 -0.8170  0.7359
   33MOL   H30524689   6.293   7.655   4.490  0.7751 -2.5818 -0.4646
   33MOL   C30624690   6.110   7.662   4.414 -0.4266 -0.3670 -0.3674
   33MOL   O30724691   6.031   7.682   4.322 -0.1511 -0.1656  0.8067
   33MOL   C30824692   6.047   7.640   4.557  0.7055 -0.5665  0.2603
   33MOL   C30924693   5.938   7.534   4.557 -0.3604  0.8429  0.2833
   33MOL   C31024694   5.991   7.396   4.546 -0.7487  0.5716  0.0874
   33MOL   C31124695   5.888   7.287   4.549  0.4047  0.3871  0.7381
   33MOL   C31224696   5.803   7.272   4.428  0.6006  0.0547 -0.0653
   33MOL   O31324697   5.848   7.214   4.330 -0.0023 -0.1059  0.2953
   33MOL   N31424698   5.683   7.322   4.442  0.0492  0.0316  0.0300
   33MOL   C31524699   5.577   7.312   4.341 -0.0112 -0.0048 -0.5771
   33MOL   C31624700   5.534   7.452   4.293  0.1856 -0.3690 -0.0637
   33MOL   C31724701   5.422   7.463   4.196 -0.1422  0.2521  0.0348
   33MOL   C31824702   5.419   7.587   4.111 -0.1992  0.7633 -0.3659
   33MOL   C31924703   5.337   7.583   3.983 -0.4613 -0.0608 -0.0024
   33MOL   C32024704   5.358   7.707   3.894 -0.5249 -0.2808  0.2777
   33MOL   N32124705   5.337   0.124   3.962  0.5875 -0.3480  0.2839
   33MOL   H32224706   6.120   7.618   4.634  1.2561 -0.7738 -0.3108
   33MOL   H32324707   5.993   0.018   4.597 -0.2817 -0.8014 -0.5530
   33MOL   H32424708   5.872   7.542   4.644 -0.6679 -2.9043  0.4723
   33MOL   H32524709   5.867   7.553   4.477  0.9922  0.2812 -1.0603
   33MOL   H32624710   6.060   7.378   4.628 -0.2571  3.4223  0.3567
   33MOL   H32724711   6.055   7.392   4.458  1.3396  0.9211  1.5583
   33MOL   H32824712   5.820   7.289   4.635  2.1672  1.2051  2.1309
   33MOL   H32924713   5.944   7.194   4.555 -1.8140 -0.9426  1.6288
   33MOL   H33024714   5.668   7.381   4.523  1.7817 -0.4288  0.7144
   33MOL   H33124715   5.606   7.243   4.262  1.9962  1.3174 -1.0254
   33MOL   H33224716   5.495   7.251   4.378 -0.9531  0.7427 -1.4038
   33MOL   H33324717   5.497   7.501   4.383 -1.9458 -0.5382 -0.8170
   33MOL   H33424718   5.620   7.506   4.257 -0.3792  0.5824 -0.0034
   33MOL   H33524719   5.325   7.448   4.243  0.3442 -1.3076  0.5768
   33MOL   H33624720   5.434   7.390   4.116  0.5838 -0.4788  0.7959
   33MOL   H33724721   5.392   7.678   4.165  0.7318  1.6109 -1.2953
   33MOL   H33824722   5.519   7.609   4.072 -0.4173  0.4723 -1.1010
   33MOL   H33924723   5.368   7.499   3.922  0.0653  0.8944 -1.0705
   33MOL   H34024724   5.232   7.581   4.011  0.4454 -2.0945  3.6456
   33MOL   H34124725   5.294   7.692   3.807 -0.5082 -0.9959  0.3919
   33MOL   H34224726   5.466   7.699   3.878 -0.3245 -0.4868  1.6711
   33MOL   H34324727   5.401   0.155   4.034  2.3168  2.2346 -2.2349
   33MOL   C34424728   5.242   0.216   3.943 -0.5892  0.2817 -0.7251
   33MOL   O34524729   5.158   0.203   3.852  0.1699  0.5196 -0.5125
   33MOL   C34624730   5.241   0.341   4.023 -0.3186  0.1383  0.3462
   33MOL   C34724731   5.148   0.459   3.975  0.1382  0.1145 -0.0814
   33MOL   C34824732   4.997   0.450   3.983  0.6243  0.5515 -0.5374
   33MOL   C34924733   4.949   0.432   4.131 -0.5901  0.7626 -0.2719
   33MOL   C35024734   4.801   0.456   4.154  0.3164  0.0457 -0.4526
   33MOL   O35124735   4.744   0.555   4.119  0.3351 -0.6205  0.7424
   33MOL   N35224736   4.745   0.365   4.239  0.1078 -0.0809 -0.7115
   33MOL   C35324737   4.605   0.356   4.274  0.1463 -0.2988 -1.0496
   33MOL   C35424738   4.588   0.371   4.433  0.2057 -0.4843  0.4439
   33MOL   C35524739   4.451   0.339   4.491  0.4509  0.5231 -0.6081
   33MOL   C35624740   4.436   0.380   4.637 -0.2075  0.5320  0.3381
   33MOL   C35724741   4.308   0.330   4.705 -0.3091 -0.0499 -0.0913
   33MOL   C35824742   4.274   0.392   4.837 -0.0742  0.3685 -0.7444
   33MOL   N35924743   4.389   0.424   4.915  0.1030 -0.0966  0.3722
   33MOL   H36024744   5.224   0.308   4.125 -0.4560 -1.7172 -0.2692
   33MOL   H36124745   5.345   0.376   4.021 -0.3729  0.2970  0.3419
   33MOL   H36224746   5.169   0.553   4.026  1.4585  0.2905 -0.9430
   33MOL   H36324747   5.177   0.491   3.875 -2.5622  2.6448 -0.1351
   33MOL   H36424748   4.970   0.368   3.917  1.8394  1.1222 -1.7677
   33MOL   H36524749   4.946   0.537   3.942  2.6070  1.2971 -1.5249
   33MOL   H36624750   4.987   0.512   4.194  1.4856 -0.3221 -0.1099
   33MOL   H36724751   4.986   0.346   4.187 -0.9056  2.1007  2.0705
   33MOL   H36824752   4.800   0.283   4.257  1.1299  0.8699  0.6152
   33MOL   H36924753   4.548   0.428   4.214 -1.5113 -0.3035  0.4620
   33MOL   H37024754   4.575   0.252   4.271 -2.2896  0.2462  2.1475
   33MOL   H37124755   4.667   0.323   4.491  0.9120 -0.4824 -0.5106
   33MOL   H37224756   4.598   0.477   4.458  1.6474 -0.2439 -1.0387
   33MOL   H37324757   4.422   0.235   4.476  2.1086  0.1988 -1.6338
   33MOL   H37424758   4.365   0.376   4.436 -0.6139  0.3540  0.8982
   33MOL   H37524759   4.525   0.348   4.691 -0.2719  1.2081  0.8510
   33MOL   H37624760   4.438   0.489   4.637  1.2415  0.5180 -0.5559
   33MOL   H37724761   4.233   0.337   4.627 -1.6569  1.8131  1.3303
   33MOL   H37824762   4.320   0.223   4.722 -2.1366 -0.3089 -0.3555
   33MOL   H37924763   4.213   0.317   4.887  0.6509 -0.1449 -0.6311
   33MOL   H38024764   4.216   0.484   4.824  1.8768  2.3066  3.6515
   33MOL   H38124765   4.461   0.481   4.874  1.4631 -1.9131  0.1428
   33MOL   C38224766   4.390   0.440   5.048  0.1228 -0.3885 -0.3315
   33MOL   O38324767   4.306   0.398   5.125  0.2104 -0.3835 -0.3266
   33MOL   C38424768   4.518   0.481   5.113  0.3736  0.3011  0.5289
   33MOL   C38524769   4.518   0.630   5.153  0.1308  0.0779  0.0560
   33MOL   C38624770   4.543   0.731   5.037 -0.4337 -0.1459 -0.2602
   33MOL   C38724771   4.683   0.738   4.972 -0.1492 -0.2042  0.3799
   33MOL   C38824772   4.719   0.640   4.857 -0.2805  0.1236  0.5487
   33MOL   O38924773   4.638   0.564   4.812 -0.1803 -0.0305 -0.5625
   33MOL   N39024774   4.846   0.643   4.811 -0.0674 -0.3009  0.4189
   33MOL   C39124775   4.899   0.553   4.706 -0.7824  0.0453 -0.9201
   33MOL   C39224776   4.942   0.636   4.583 -0.3882  0.4337 -0.4573
   33MOL   C39324777   4.832   0.715   4.514  0.2283  0.8981  0.8341
   33MOL   C39424778   4.855   0.773   4.378 -0.1540  0.0375  0.9333
   33MOL   C39524779   4.742   0.853   4.323  0.3042 -0.3673 -0.1625
   33MOL   C39624780   4.775   0.926   4.190  0.4215  0.1688 -0.4913
   33MOL   N39724781   4.770   0.834   4.081  0.7261 -0.0788  0.8418
   33MOL   H39824782   4.520   0.421   5.205  0.6547 -1.4031 -0.5558
   33MOL   H39924783   4.607   0.448   5.059 -1.2280 -1.7277 -0.9593
   33MOL   H40024784   4.420   0.649   5.199 -0.3993 -0.2173 -0.9472
   33MOL   H40124785   4.587   0.658   5.233  1.4817  2.4356 -1.8982
   33MOL   H40224786   4.528   0.832   5.077 -0.5473 -0.1009 -0.4166
   33MOL   H40324787   4.463   0.724   4.963 -0.5045 -2.6958  0.0268
   33MOL   H40424788   4.768   0.736   5.040  0.3356 -0.6969 -0.2299
   33MOL   H40524789   4.693   0.838   4.930 -0.0128  0.3466  1.6838
   33MOL   H40624790   4.901   0.725   4.832 -1.5015  1.4016 -2.1646
   33MOL   H40724791   4.989   0.496   4.728 -3.0648 -2.4139  2.5319
   33MOL   H40824792   4.822   0.489   4.663 -0.6503 -1.2724  0.7613
   33MOL   H40924793   5.026   0.699   4.614 -0.3272  0.0754  0.1094
   33MOL   H41024794   4.978   0.568   4.506  0.2101 -0.2708  0.4405
   33MOL   H41124795   4.810   0.807   4.569 -0.4205  1.8526 -0.9949
   33MOL   H41224796   4.735   0.667   4.529  0.0915  1.4387  1.7403
   33MOL   H41324797   4.949   0.828   4.372 -1.2393  2.1378  2.3976
   33MOL   H41424798   4.856   0.687   4.312 -0.5860 -0.2093  1.2449
   33MOL   H41524799   4.660   0.786   4.300  0.9958 -1.7759  1.3480
   33MOL   H41624800   4.698   0.920   4.397 -0.7984 -2.9812  1.6428
   33MOL   H41724801   4.876   0.960   4.214  1.3508 -1.9933 -1.2321
   33MOL   H41824802   4.706   1.004   4.158  0.9970 -0.2607 -2.8510
   33MOL   H41924803   4.760   0.735   4.101 -0.8377  0.2285  1.6521
   33MOL   C42024804   4.773   0.864   3.950 -0.6475  0.7339  0.2496
   33MOL   O42124805   4.782   0.984   3.912  0.0702 -0.4072  1.3157
   33MOL   C42224806   4.746   0.751   3.843  0.2006 -0.1793 -0.0258
   33MOL   C42324807   4.860   0.752   3.744  0.1590  0.0163  0.1730
   33MOL   C42424808   4.852   0.647   3.638  0.3598 -0.0231  0.9965
   33MOL   C42524809   4.978   0.643   3.544 -0.0560 -0.2009  0.2016
   33MOL   C42624810   5.016   0.777   3.476 -0.0880  0.5962 -0.5457
   33MOL   O42724811   4.926   0.827   3.412 -0.2627  0.0003  0.1873
   33MOL   N42824812   5.132   0.835   3.496  0.9874  0.0908 -0.1016
   33MOL   C42924813   5.160   0.966   3.440 -0.2229 -0.1083  0.2749
   33MOL   C43024814   5.248   1.058   3.517  0.9690  0.1567 -0.6948
   33MOL   C43124815   5.312   1.172   3.437 -0.2088  0.2193  0.3034
   33MOL   C43224816   5.427   1.249   3.502  0.0081 -0.0861 -0.3265
   33MOL   C43324817   5.437   1.387   3.443  0.3852  0.2294 -0.0560
   33MOL   C43424818   5.556   1.469   3.496 -0.7151  0.8751 -0.3102
   33MOL   N43524819   5.573   1.595   3.427  0.0675 -0.5975 -0.8022
   33MOL   H43624820   4.753   0.650   3.883 -0.3573 -0.9922 -1.9230
   33MOL   H43724821   4.645   0.757   3.803  0.2848  0.1091 -0.1975
   33MOL   H43824822   4.859   0.851   3.699 -2.9785  0.0823  0.2808
   33MOL   H43924823   4.960   0.738   3.787 -0.1464  1.3686  1.3592
   33MOL   H44024824   4.759   0.650   3.582  0.9191 -1.9211 -0.0744
   33MOL   H44124825   4.838   0.551   3.686  0.5021 -2.6384 -3.9429
   33MOL   H44224826   4.972   0.571   3.462 -1.0670  1.7733 -1.5059
   33MOL   H44324827   5.070   0.625   3.599  0.9465 -0.7053 -1.5678
   33MOL   H44424828   5.202   0.792   3.554  0.2285  1.0212  1.5482
   33MOL   H44524829   5.210   0.930   3.350 -0.1667  0.3945  0.1065
   33MOL   H44624830   5.073   1.025   3.412  0.7148  0.6734 -1.0810
   33MOL   H44724831   5.188   1.103   3.597  2.3185 -0.9735  0.9776
   33MOL   H44824832   5.333   1.005   3.560  0.7445  0.4322  0.1049
   33MOL   H44924833   5.235   1.243   3.410 -2.2432 -1.2870  1.9838
   33MOL   H45024834   5.347   1.139   3.338 -1.8473 -0.3663 -0.0916
   33MOL   H45124835   5.411   1.266   3.609  0.2580  1.8196 -0.5826
   33MOL   H45224836   5.519   1.195   3.478 -0.3103 -0.3789 -0.8953
   33MOL   H45324837   5.427   1.381   3.334  2.1166 -0.0445 -0.2118
   33MOL   H45424838   5.350   1.446   3.471 -0.2019 -1.5505  2.0212
   33MOL   H45524839   5.651   1.419   3.477 -0.5059  1.2852 -0.3741
   33MOL   H45624840   5.560   1.486   3.603 -1.5490  0.0797 -0.1511
   33MOL   H45724841   5.664   1.597   3.382  1.0867  1.7381  1.2404
   33MOL   C45824842   5.484   1.687   3.410  0.2181 -0.6610  0.7658
   33MOL   O45924843   5.367   1.680   3.435  0.6528 -0.7451 -0.1069
   33MOL   C46024844   5.533   1.813   3.344  0.0202 -0.2907  0.4047
   33MOL   C46124845   5.433   1.877   3.240 -0.5137  0.0571  0.4638
   33MOL   C46224846   5.445   1.821   3.103  0.0538 -0.0512  1.0467
   33MOL   C46324847   5.400   1.676   3.064  0.1244  0.4253  0.4510
   33MOL   C46424848   5.249   1.646   3.099 -0.4446  0.6583  0.3699
   33MOL   O46524849   5.175   1.636   2.998 -0.1147 -0.4428  0.7396
   33MOL   N46624850   5.209   1.615   3.223 -0.0415 -0.0776 -0.2678
   33MOL   C46724851   5.068   1.581   3.260 -0.0844 -0.1696  0.4169
   33MOL   C46824852   5.053   1.522   3.397 -0.2620  0.2408  1.1042
   33MOL   C46924853   4.918   1.445   3.417 -0.5125  0.4301 -0.6090
   33MOL   C47024854   4.894   1.409   3.563 -0.3641  1.1193  0.7277
   33MOL   C47124855   4.991   1.305   3.622 -0.3189  0.0192 -0.0852
   33MOL   C47224856   4.960   1.290   3.779 -0.6281  0.4915  0.0077
   33MOL   N47324857   5.020   1.169   3.847 -0.3818 -0.0528  0.0211
   33MOL   H47424858   5.530   1.885   3.427  2.7088  0.9837 -0.5237
   33MOL   H47524859   5.636   1.807   3.310  0.5268  2.9139  1.1692
   33MOL   H47624860   5.327   1.867   3.264 -0.9729  0.9057 -1.0920
   33MOL   H47724861   5.454   1.982   3.220 -0.8833 -0.0984 -0.8204
   33MOL   H47824862   5.545   1.838   3.062 -0.8641  1.2628 -0.7014
   33MOL   H47924863   5.391   1.892   3.040  1.3929 -0.2599 -0.3814
   33MOL   H48024864   5.458   1.603   3.122 -2.2544 -1.5791  0.3689
   33MOL   H48124865   5.415   1.652   2.959 -0.7221 -0.1226  0.4541
   33MOL   H48224866   5.271   1.627   3.301  1.9101  0.5434 -1.8731
   33MOL   H48324867   5.016   1.676   3.247 -1.6781 -1.2022 -0.8903
   33MOL   H48424868   5.020   1.516   3.187 -1.4909  1.8967 -0.5346
   33MOL   H48524869   5.129   1.445   3.411 -2.1339 -2.0087 -0.7162
   33MOL   H48624870   5.061   1.600   3.473 -0.8769  0.5089  0.8990
   33MOL   H48724871   4.907   1.357   3.353  0.5739  0.3538 -0.7058
   33MOL   H48824872   4.838   1.509   3.381 -0.4639 -0.4998 -2.4451
   33MOL   H48924873   4.904   1.498   3.625  0.1861  0.4688  1.5875
   33MOL   H49024874   4.791   1.373   3.573  0.4011 -1.3343  0.1282
   33MOL   H49124875   4.971   1.207   3.579  1.7376 -0.7309  0.6279
   33MOL   H49224876   5.096   1.330   3.611 -0.1492 -0.2811  0.8604
   33MOL   H49324877   4.857   1.308   3.808 -0.0232  3.4531  0.5517
   33MOL   H49424878   5.020   1.370   3.824 -0.5107  0.0986  0.5623
   33MOL   H49524879   4.961   1.088   3.840 -0.5722 -0.0638  1.5919
   33MOL   C49624880   5.145   1.161   3.881 -0.3646  0.3128 -0.4493
   33MOL   O49724881   5.230   1.248   3.883  0.1677 -0.1563 -0.8716
   33MOL   C49824882   5.184   1.024   3.938  0.1916 -0.4355  1.2107
   33MOL   C49924883   5.294   0.952   3.854  0.2645 -0.7011 -0.1395
   33MOL   C50024884   5.362   0.823   3.917 -0.0908  0.1965 -0.3923
   33MOL   C50124885   5.440   0.845   4.050 -0.3266  0.7930 -0.1058
   33MOL   C50224886   5.471   0.704   4.115 -0.1405  0.2999 -0.2117
   33MOL   O50324887   5.511   0.608   4.042  0.2358 -0.1889 -0.3340
   33MOL   N50424888   5.451   0.689   4.245 -0.0567 -0.1293  0.2486
   33MOL   C50524889   5.474   0.561   4.324  0.2519  0.3049 -0.0453
   33MOL   C50624890   5.332   0.520   4.367  0.2758 -0.6522  0.3453
   33MOL   C50724891   5.305   0.384   4.422 -0.8575 -0.1967  0.2055
   33MOL   C50824892   5.362   0.363   4.564 -0.3039 -1.3712 -0.2901
   33MOL   C50924893   5.281   0.427   4.679 -0.0593  0.2368 -0.7032
   33MOL   C51024894   5.325   0.371   4.813  0.4464  0.8990  0.7481
   33MOL   N51124895   5.454   0.429   4.854 -0.0022  0.3652  0.5613
   33MOL   H51224896   5.227   1.042   4.037  2.3469  1.6097 -0.0474
   33MOL   H51324897   5.097   0.958   3.929 -1.6460  1.9732  0.9395
   33MOL   H51424898   5.239   0.935   3.762 -0.7922  2.0979 -0.0882
   33MOL   H51524899   5.379   1.012   3.821  0.1507 -1.6432 -2.1934
   33MOL   H51624900   5.434   0.786   3.844  0.6860  1.6699 -0.3882
   33MOL   H51724901   5.292   0.742   3.937  0.0630  0.4574  1.3028
   33MOL   H51824902   5.392   0.910   4.123  0.1500  3.3874 -2.0432
   33MOL   H51924903   5.539   0.889   4.037 -1.1718  2.7510 -0.1242
   33MOL   H52024904   5.412   0.768   4.294 -0.5502  0.2149 -0.7025
   33MOL   H52124905   5.533   0.484   4.275  0.5647  0.0981  0.6523
   33MOL   H52224906   5.527   0.593   4.414 -0.6938  1.7144  0.0397
   33MOL   H52324907   5.282   0.603   4.417 -0.7598 -0.6810 -0.6197
   33MOL   H52424908   5.261   0.520   4.285 -1.0022  0.1212  1.4384
   33MOL   H52524909   5.342   0.300   4.363 -1.3289 -0.6806  0.5991
   33MOL   H52624910   5.198   0.367   4.425 -0.9889  0.7548  1.5371
   33MOL   H52724911   5.372   0.256   4.581 -1.6686 -1.4498  0.0451
   33MOL   H52824912   5.466   0.395   4.551 -0.9068  0.1114 -1.6079
   33MOL   H52924913   5.290   0.535   4.672 -1.6899  0.2318 -4.5795
   33MOL   H53024914   5.178   0.396   4.661 -0.3219 -0.5419  2.0120
   33MOL   H53124915   5.342   0.263   4.815 -0.8297  0.6252 -1.0967
   33MOL   H53224916   5.252   0.391   4.891 -1.0382  1.8717 -0.8494
   33MOL   H53324917   5.537   0.372   4.852  0.9255  1.5013  3.7473
   33MOL   C53424918   5.471   0.552   4.894 -0.4999 -0.3358 -0.5084
   33MOL   O53524919   5.374   0.615   4.927 -0.3185  0.7734  0.5376
   33MOL   C53624920   5.610   0.613   4.914  0.1406 -0.7633  0.3958
   33MOL   C53724921   5.602   0.755   4.857 -0.9291  0.5995  0.7994
   33MOL   C53824922   5.597   0.758   4.702 -0.7520  0.0517  0.3343
   33MOL   C53924923   5.631   0.901   4.641  0.1928  0.0886 -0.3542
   33MOL   C54024924   5.619   0.901   4.487  0.1378  0.0696  0.0910
   33MOL   O54124925   5.508   0.885   4.438  0.3050  0.4207  0.1300
   33MOL   N54224926   5.734   0.905   4.423 -0.3093  0.0608 -0.3202
   33MOL   C54324927   5.749   0.885   4.281  0.1372 -0.5040 -0.3491
   33MOL   C54424928   5.881   0.959   4.233 -0.0352  0.5770 -0.6869
   33MOL   C54524929   5.886   0.982   4.081  0.4034  0.2014  0.7033
   33MOL   C54624930   5.995   1.088   4.040  0.6263 -0.3625 -0.2700
   33MOL   C54724931   5.933   1.231   4.064  0.6287  1.2000 -0.2662
   33MOL   C54824932   6.031   1.353   4.052  0.5149 -0.1242  1.0346
   33MOL   N54924933   5.952   1.474   4.076  0.6314 -0.1379 -0.2457
   33MOL   H55024934   5.627   0.609   5.021  2.6588  1.5695  0.1390
   33MOL   H55124935   5.694   0.557   4.871 -0.5942 -0.4408 -1.5262
   33MOL   H55224936   5.519   0.809   4.901 -1.1128 -0.7076  2.0900
   33MOL   H55324937   5.693   0.801   4.896  0.7503 -0.7144 -1.4407
   33MOL   H55424938   5.497   0.732   4.666 -0.7804 -2.3907  2.0752
   33MOL   H55524939   5.661   0.679   4.662  0.5918  1.1846  0.2175
   33MOL   H55624940   5.729   0.937   4.672  0.8077 -0.2250 -1.8717
   33MOL   H55724941   5.546   0.961   4.674 -0.2428 -0.7923  0.1505
   33MOL   H55824942   5.813   0.936   4.477 -1.0850  0.5297  0.5440
   33MOL   H55924943   5.740   0.779   4.255 -1.2648 -0.8482  1.4400
   33MOL   H56024944   5.666   0.940   4.235  0.6556  0.4230 -0.1899
   33MOL   H56124945   5.891   1.054   4.286  2.7585 -0.9474  1.6293
   33MOL   H56224946   5.964   0.893   4.258 -0.4716  0.9648  1.9038
   33MOL   H56324947   5.795   1.021   4.036  0.5414 -0.8478 -0.4909
   33MOL   H56424948   5.919   0.887   4.041 -0.0026 -0.0286  0.9142
   33MOL   H56524949   6.085   1.062   4.096 -0.2124 -0.8126  0.8916
   33MOL   H56624950   6.016   1.075   3.934 -1.3087 -0.6476 -0.6485
   33MOL   H56724951   5.835   1.261   4.026 -0.2766 -0.0003  1.0758
   33MOL   H56824952   5.932   1.230   4.173  2.1619  1.3837 -0.2374
   33MOL   H56924953   6.076   1.357   3.952 -0.7559  1.1760  0.4799
   33MOL   H57024954   6.124   1.338   4.107  1.4797  0.3961 -0.3972
   33MOL   H57124955   5.866   1.489   4.025  0.5917 -0.0613 -0.1577
   33MOL   C57224956   5.996   1.573   4.156 -0.3307  0.4548  0.0971
   33MOL   O57324957   6.107   1.571   4.214 -0.3738  0.3434  0.1051
   33MOL   C57424958   5.911   1.696   4.178  0.7354  0.4835 -0.3735
   33MOL   C57524959   5.928   1.767   4.309 -0.6666 -0.3191  0.4279
   33MOL   C57624960   5.814   1.847   4.381 -0.3059 -0.3142 -0.9765
   33MOL   C57724961   5.719   1.767   4.476  1.1007 -0.3020  0.3384
   33MOL   C57824962   5.617   1.677   4.415 -0.4863  0.0885  0.5035
   33MOL   O57924963   5.583   1.698   4.295  0.0822  0.7339  0.0178
   33MOL   N58024964   5.559   1.586   4.487 -0.0226  0.4063  0.0222
   33MOL   C58124965   5.452   1.489   4.447 -0.0637  0.0019 -0.2989
   33MOL   C58224966   5.507   1.347   4.449  0.4884 -0.3666  0.5493
   33MOL   C58324967   5.634   1.334   4.367 -0.2603  0.0083  0.0148
   33MOL   C58424968   5.618   1.358   4.217  0.2190  0.6202  0.5650
   33MOL   C58524969   5.529   1.247   4.165  0.5966 -0.2007  0.5365
   33MOL   C58624970   5.525   1.249   4.013 -0.7155 -0.1500 -0.0351
   33MOL   N58724971   5.496   1.376   3.953  0.6304  0.1955  0.0407
   33MOL   H58824972   5.938   1.763   4.096  0.4783  0.5845 -0.3787
   33MOL   H58924973   5.811   1.669   4.145  1.0672  1.0099 -1.8571
   33MOL   H59024974   5.965   1.696   4.383 -1.3383 -0.6583  0.4447
   33MOL   H59124975   6.009   1.839   4.299  0.2462 -1.6516 -2.4916
   33MOL   H59224976   5.752   1.892   4.304  0.6803 -0.7991 -2.0570
   33MOL   H59324977   5.858   1.923   4.447 -0.4306  1.0995 -2.4971
   33MOL   H59424978   5.669   1.847   4.531 -0.1312 -1.7820  1.4171
   33MOL   H59524979   5.776   1.712   4.551 -0.6283 -2.1033  0.3633
   33MOL   H59624980   5.614   1.579   4.571 -1.0395  0.2004  0.6843
   33MOL   H59724981   5.372   1.483   4.520  0.9041  0.3586  0.8108
   33MOL   H59824982   5.405   1.513   4.351  0.3899 -1.8143 -1.0027
   33MOL   H59924983   5.537   1.328   4.552  0.7127 -2.6826  0.0860
   33MOL   H60024984   5.436   1.270   4.419 -0.7305  0.4672  1.2040
   33MOL   H60124985   5.677   1.235   4.380 -1.7888 -0.3591  2.6767
   33MOL   H60224986   5.710   1.404   4.402 -1.0555  2.4832 -2.9861
   33MOL   H60324987   5.573   1.452   4.186  1.3575  0.6501 -1.1127
   33MOL   H60424988   5.713   1.364   4.162  0.8860 -0.3288  1.5990
   33MOL   H60524989   5.563   1.152   4.205  0.7468  0.9716  3.3852
   33MOL   H60624990   5.427   1.247   4.203 -0.2707 -0.6077 -1.7506
   33MOL   H60724991   5.442   1.189   3.976 -0.9839 -0.1914  0.6230
   33MOL   H60824992   5.614   1.215   3.961 -1.3318 -1.0617 -0.5143
   33MOL   H60924993   5.397   1.391   3.937  0.3159 -0.6910  1.0609
   33MOL   C61024994   5.576   1.472   3.913 -0.8833 -0.3124 -0.1148
   33MOL   O61124995   5.696   1.460   3.919 -0.3437 -0.2892 -0.2221
   33MOL   C61224996   5.524   1.600   3.863  0.1511  0.5332  0.2153
   33MOL   C61324997   5.530   1.701   3.976 -0.0389 -0.1302  0.3220
   33MOL   C61424998   5.530   1.854   3.932  0.6126 -0.3185 -0.0336
   33MOL   C61524999   5.538   1.949   4.047 -0.3797  0.1227  0.1587
   33MOL   C61625000   5.401   1.980   4.109  0.5623  0.3067 -0.2150
   33MOL   O61725001   5.327   2.060   4.054  0.1956  0.3936  0.5407
   33MOL   N61825002   5.365   1.909   4.217 -0.2672  0.7541 -0.4111
   33MOL   C61925003   5.253   1.935   4.309  0.0826  0.1868  0.7244
   33MOL   C62025004   5.244   1.817   4.411 -0.3440  0.1573  0.7410
   33MOL   C62125005   5.114   1.828   4.497 -0.2890  0.1131  0.3962
   33MOL   C62225006   5.110   1.709   4.585  1.1446  0.2261  0.6268
   33MOL   C62325007   5.087   1.566   4.521  0.7199  0.3325 -1.0430
   33MOL   C62425008   5.078   1.449   4.620  0.5678 -0.1975 -0.7125
   33MOL   N62525009   5.080   1.315   4.561  1.1435 -0.4861 -0.7231
   33MOL   H62625010   5.596   1.630   3.787 -0.8547  3.4156  0.3651
   33MOL   H62725011   5.424   1.591   3.821  0.4460  0.9233 -0.5988
   33MOL   H62825012   5.443   1.692   4.042 -0.2875  0.4320  0.0687
   33MOL   H62925013   5.611   1.683   4.047 -0.3245 -1.5684  0.3014
   33MOL   H63025014   5.438   1.876   3.877 -0.1993 -0.5115  1.2262
   33MOL   H63125015   5.612   1.867   3.862  2.2589 -1.6331  1.5946
   33MOL   H63225016   5.575   2.047   4.018 -0.1534 -0.5044 -1.7570
   33MOL   H63325017   5.605   1.908   4.123 -1.3448 -0.8230  0.5129
   33MOL   H63425018   5.425   1.835   4.250 -0.7764  0.6065  0.1941
   33MOL   H63525019   5.283   2.026   4.360  1.0671  0.5312 -0.4345
   33MOL   H63625020   5.160   1.946   4.254  0.0025 -3.0479  0.0698
   33MOL   H63725021   5.246   1.720   4.362  1.1170  0.7265 -0.3431
   33MOL   H63825022   5.327   1.824   4.482  0.1037  1.9119  0.0707
   33MOL   H63925023   5.031   1.833   4.427 -0.6091 -2.0529  0.6056
   33MOL   H64025024   5.111   1.923   4.552  2.8635  1.2417 -1.2584
   33MOL   H64125025   5.201   1.707   4.645  3.1983 -2.0945 -2.4091
   33MOL   H64225026   5.020   1.729   4.643  0.3930  2.1225 -1.1270
   33MOL   H64325027   5.004   1.560   4.450 -0.1950 -3.1784  0.2208
   33MOL   H64425028   5.174   1.546   4.457  2.5971  0.2857  1.4679
   33MOL   H64525029   4.994   1.464   4.688 -0.6412 -0.6377 -2.0903
   33MOL   H64625030   5.148   1.451   4.704 -1.1006  1.0793  0.6788
   33MOL   H64725031   4.992   1.282   4.524  0.9237  0.3666 -0.9740
   33MOL   C64825032   5.185   1.231   4.571 -0.2227 -0.0158  0.2710
   33MOL   O64925033   5.291   1.264   4.619 -0.1858 -0.2296 -0.1172
   33MOL   C65025034   5.166   1.093   4.510  0.0054 -0.3194  0.4159
   33MOL   C65125035   5.222   0.980   4.599  0.6715  0.3530  0.7934
   33MOL   C65225036   5.127   0.949   4.709  0.0477  0.6456  0.4119
   33MOL   C65325037   5.192   0.846   4.805 -0.5600  0.3699 -0.3050
   33MOL   C65425038   5.094   0.812   4.916  0.1728 -0.0209 -0.8639
   33MOL   O65525039   4.987   0.874   4.935 -0.1167  0.2679 -0.2577
   33MOL   N65625040   5.129   0.711   5.006 -0.2724 -0.2694  0.5659
   33MOL   C65725041   5.071   0.693   5.135  0.3528  1.0303  0.1741
   33MOL   C65825042   5.000   0.556   5.146  0.2632 -0.4286 -0.3249
   33MOL   C65925043   4.926   0.546   5.277  0.2423  0.3725  1.0333
   33MOL   C66025044   4.856   0.410   5.298 -0.3161  0.0155  0.9088
   33MOL   C66125045   4.765   0.417   5.418  0.3788 -0.2691  0.2109
   33MOL   C66225046   4.718   0.281   5.462 -0.3943  0.1467  0.3544
   33MOL   N66325047   4.635   0.295   5.579  0.4056 -0.4974 -0.5142
   33MOL   H66425048   5.070   1.074   4.462  1.4396 -0.9549 -2.2892
   33MOL   H66525049   5.223   1.107   4.418 -2.0253  1.0356 -0.6850
   33MOL   H66625050   5.241   0.891   4.538 -1.8217 -0.5799  1.3284
   33MOL   H66725051   5.323   1.007   4.631  0.2419  2.6723  0.3128
   33MOL   H66825052   5.025   0.921   4.680  0.4220  1.0409 -1.3620
   33MOL   H66925053   5.116   1.043   4.764  0.0629  1.0061 -0.1945
   33MOL   H67025054   5.292   0.870   4.839 -0.0905 -1.5613 -0.2378
   33MOL   H67125055   5.217   0.754   4.752  0.7059 -0.8330  2.3132
   33MOL   H67225056   5.217   0.666   4.987 -0.7763 -0.6286 -1.0245
   33MOL   H67325057   5.159   0.701   5.200  1.1654 -0.2264 -0.7405
   33MOL   H67425058   5.006   0.775   5.164 -0.0781 -0.3015  3.1554
   33MOL   H67525059   4.931   0.549   5.062 -1.9928  1.4071  1.2807
   33MOL   H67625060   5.063   0.473   5.116 -0.4290 -0.2113 -2.4803
   33MOL   H67725061   4.850   0.623   5.277  2.3977  2.5437 -0.2622
   33MOL   H67825062   4.992   0.561   5.363  0.4634 -1.9350  1.3103
   33MOL   H67925063   4.789   0.390   5.215 -0.9453 -1.7890  1.8452
   33MOL   H68025064   4.926   0.327   5.312  1.0845  0.7974 -1.1645
   33MOL   H68125065   4.816   0.467   5.500 -0.6389  1.8972 -0.4503
   33MOL   H68225066   4.680   0.481   5.398 -0.8781 -2.3683 -1.3279
   33MOL   H68325067   4.805   0.219   5.483 -0.9585 -0.9389 -0.4501
   33MOL   H68425068   4.657   0.227   5.389 -0.8228 -1.2918  1.7385
   33MOL   H68525069   4.534   0.285   5.573  0.2096  1.1702 -0.1632
   33MOL   C68625070   4.674   0.314   5.706 -0.1733 -0.7385 -0.3287
   33MOL   O68725071   4.794   0.301   5.733 -0.0093  0.2245  0.6130
   33MOL   C68825072   4.563   0.361   5.800 -0.2419  0.1610 -0.2992
   33MOL   C68925073   4.631   0.428   5.926 -0.7620  0.3279  0.2863
   33MOL   C69025074   4.538   0.412   6.046  0.2676  0.3272 -0.0397
   33MOL   C69125075   4.570   0.504   6.164  0.0429  0.7556 -0.0987
   33MOL   C69225076   4.671   0.449   6.268 -0.1101  0.5641 -0.4171
   33MOL   O69325077   4.685   0.329   6.275  0.3610  0.3225  0.2177
   33MOL   N69425078   4.746   0.534   6.338 -0.6456 -0.1187 -0.6421
   33MOL   C69525079   4.862   0.498   6.412  0.1819  0.5438 -0.3200
   33MOL   C69625080   4.944   0.629   6.456 -0.0493  0.0282  0.4724
   33MOL   C69725081   4.901   0.709   6.580  0.7802  0.6468 -0.1738
   33MOL   C69825082   4.990   0.841   6.592 -0.2816 -0.2476 -0.2263
   33MOL   C69925083   4.927   0.928   6.709 -0.0913 -0.3864  0.6764
   33MOL   C70025084   5.014   1.046   6.741 -0.4765  0.9725  0.2884
   33MOL   N70125085   5.144   1.005   6.798 -0.3453 -0.0562  0.0256
   33MOL   H70225086   4.493   0.430   5.754 -0.6955 -0.2242 -0.1943
   33MOL   H70325087   4.515   0.265   5.819  3.0612 -1.3853  0.5918
   33MOL   H70425088   4.718   0.368   5.953  2.2257  3.3404 -2.3029
   33MOL   H70525089   4.672   0.527   5.910 -0.1096  0.1501  0.8456
   33MOL   H70625090   4.533   0.308   6.079 -0.9333  0.6411  0.8134
   33MOL   H70725091   4.439   0.436   6.005 -0.4928 -1.6007  0.5963
   33MOL   H70825092   4.480   0.506   6.225 -0.0872 -0.3141 -0.2393
   33MOL   H70925093   4.591   0.609   6.144 -0.2712  0.5193 -1.6972
   33MOL   H71025094   4.742   0.631   6.310 -0.0528  0.0596 -0.1207
   33MOL   H71125095   4.842   0.432   6.496 -2.1949 -0.4342 -1.5987
   33MOL   H71225096   4.929   0.433   6.356 -0.7241 -0.6210 -0.0796
   33MOL   H71325097   5.046   0.598   6.478 -0.2517 -0.4515  0.7292
   33MOL   H71425098   4.939   0.695   6.369 -3.8660 -3.0212 -1.8199
   33MOL   H71525099   4.911   0.642   6.665  1.0651 -0.0414 -0.7430
   33MOL   H71625100   4.794   0.733   6.582  0.7844  0.5834  0.8587
   33MOL   H71725101   5.089   0.799   6.610  0.0775  0.8286  0.3535
   33MOL   H71825102   4.996   0.899   6.500  1.5701 -2.1477 -1.3326
   33MOL   H71925103   4.828   0.960   6.678  0.6664  0.3244 -1.1216
   33MOL   H72025104   4.922   0.865   6.797 -3.6299 -0.8834  0.1776
   33MOL   H72125105   4.960   1.104   6.816 -0.5476  1.6333 -0.2682
   33MOL   H72225106   5.031   1.102   6.649 -1.8670 -0.8249 -1.1010
   33MOL   H72325107   5.214   0.960   6.741 -0.7557  0.4648 -0.9084
   33MOL   C72425108   5.174   1.023   6.927 -0.7127 -0.0482  0.2343
   33MOL   O72525109   5.102   1.081   7.007 -0.4471  0.4690 -0.2542
   33MOL   C72625110   5.318   0.979   6.975 -0.9207  0.5743 -0.4055
   33MOL   C72725111   5.321   0.908   7.114 -0.1616  0.6070 -0.0986
   33MOL   C72825112   5.318   1.011   7.231  0.3579 -0.5069 -0.2955
   33MOL   C72925113   5.299   0.944   7.367 -0.6626  0.1840  0.2719
   33MOL   C73025114   5.399   0.844   7.417  0.1876  0.7759  0.1721
   33MOL   O73125115   5.518   0.869   7.440  0.4310 -0.1254  0.4246
   33MOL   N73225116   5.351   0.722   7.434 -0.0376  0.3980  1.2039
   33MOL   C73325117   5.425   0.600   7.473  0.7720  0.6435  0.0366
   33MOL   C73425118   5.333   0.479   7.496 -0.8793 -0.1804  0.5121
   33MOL   C73525119   5.284   0.417   7.360  0.2174  1.5331 -0.3247
   33MOL   C73625120   5.221   0.273   7.396 -0.4292 -0.0735  0.4853
   33MOL   C73725121   5.123   0.223   7.289  0.1546 -0.4291  0.0246
   33MOL   C73825122   5.110   0.061   7.284  0.5768  0.9211  0.3042
   33MOL   N73925123   5.016   0.022   7.178 -0.3775  0.5061  0.0443
   33MOL   H74025124   5.363   0.915   6.898  1.9463 -0.7785  2.2737
   33MOL   H74125125   5.375   1.072   6.973  0.2364 -0.1377 -1.9594
   33MOL   H74225126   5.237   0.839   7.126  0.6675 -0.3577  0.2066
   33MOL   H74325127   5.408   0.844   7.123  0.2136  1.3154  1.5700
   33MOL   H74425128   5.240   1.086   7.216  1.0004  0.6046  1.6865
   33MOL   H74525129   5.414   1.062   7.226 -0.8096  1.9689  1.4366
   33MOL   H74625130   5.203   0.894   7.357 -2.5077  3.5019  0.7120
   33MOL   H74725131   5.273   1.009   7.451  1.6774 -1.5493  2.4047
   33MOL   H74825132   5.252   0.707   7.420 -0.0409  0.1589  1.4836
   33MOL   H74925133   5.488   0.565   7.392 -1.1391  0.3136 -1.3567
   33MOL   H75025134   5.477   0.622   7.566 -1.0061 -0.0837  1.2433
   33MOL   H75125135   5.394   0.397   7.535 -2.0636 -1.2766  0.0795
   33MOL   H75225136   5.258   0.498   7.572 -0.3907  0.3019  0.8770
   33MOL   H75325137   5.357   0.411   7.280  0.5866  1.4223  0.0166
   33MOL   H75425138   5.208   0.485   7.322 -0.7005  1.6596  1.6485
   33MOL   H75525139   5.302   0.201   7.409  0.7043  0.7010 -1.9289
   33MOL   H75625140   5.174   0.264   7.494  0.5878  0.2783  1.0087
   33MOL   H75725141   5.030   0.278   7.304  0.2770 -1.0102  3.2051
   33MOL   H75825142   5.162   0.254   7.192  0.2821 -0.7459 -0.0229
   33MOL   H75925143   5.067   0.022   7.377  2.4238  2.0037  1.6551
   33MOL   H76025144   5.197   0.001   7.257 -0.2653 -0.7379  1.2013
   33MOL   H76125145   4.945   0.094   7.171 -1.0319 -0.2738 -1.6015
   33MOL   H76225146   4.965   7.643   7.176  1.6418 -0.7507  1.1495
   34MOL     C125147   3.793   4.416   1.500 -0.3963 -0.4339 -0.8988
   34MOL     O225148   3.714   4.419   1.402  0.0419  0.2786  0.1171
   34MOL     C325149   3.890   4.298   1.519 -0.5481  0.1393 -0.7692
   34MOL     C425150   3.821   4.158   1.528 -0.8950 -0.3197  0.2514
   34MOL     C525151   3.758   4.135   1.661  0.1328  0.1073 -0.0051
   34MOL     C625152   3.685   3.998   1.676 -0.3129  0.5230  0.1851
   34MOL     C725153   3.783   3.886   1.690  0.2855  0.6309 -0.2662
   34MOL     O825154   3.854   3.878   1.793 -0.4107 -0.1538 -0.2775
   34MOL     N925155   3.766   3.789   1.598 -0.1850  0.7175 -0.5096
   34MOL    C1025156   3.841   3.667   1.608 -0.5188 -0.2159 -0.1284
   34MOL    C1125157   3.779   3.556   1.509 -0.3688  0.2367 -0.7153
   34MOL    C1225158   3.858   3.430   1.517 -1.2178  0.5178 -0.2332
   34MOL    C1325159   3.787   3.305   1.457  0.1685 -0.0250  0.3849
   34MOL    C1425160   3.753   3.316   1.310  0.1847  0.3610 -0.1959
   34MOL    C1525161   3.854   3.375   1.214 -0.3117 -0.2022  0.5581
   34MOL    N1625162   3.812   3.371   1.074 -0.0332 -0.5268  0.2184
   34MOL    H1725163   3.942   4.293   1.423 -1.3715 -2.2466 -1.1327
   34MOL    H1825164   3.957   4.327   1.599 -1.3282  3.5551 -1.2756
   34MOL    H1925165   3.746   4.145   1.450 -0.6056 -1.6634  0.1852
   34MOL    H2025166   3.905   4.092   1.510 -1.8731 -1.2218 -1.0579
   34MOL    H2125167   3.687   4.215   1.683  1.7947  1.9747 -1.2628
   34MOL    H2225168   3.829   4.145   1.743 -1.7999 -2.4854  2.0921
   34MOL    H2325169   3.629   3.971   1.587  1.7725  0.0939 -1.0257
   34MOL    H2425170   3.626   3.998   1.768  0.8491  3.2281  0.9757
   34MOL    H2525171   3.699   3.805   1.524 -0.2259  1.2743 -0.3562
   34MOL    H2625172   3.945   3.675   1.578 -0.7805 -0.5262 -1.1192
   34MOL    H2725173   3.819   3.633   1.709 -0.8303  0.8127  0.1524
   34MOL    H2825174   3.674   3.544   1.535 -0.5700  2.1074 -0.5546
   34MOL    H2925175   3.770   3.589   1.406  0.8089  0.8606 -0.6337
   34MOL    H3025176   3.884   3.408   1.621 -0.5902  0.4193 -0.4082
   34MOL    H3125177   3.952   3.453   1.466 -0.9925  0.5644  0.2029
   34MOL    H3225178   3.847   3.215   1.462 -1.8296 -1.5471 -1.9299
   34MOL    H3325179   3.695   3.287   1.512 -0.7142 -0.0951 -1.0781
   34MOL    H3425180   3.725   3.216   1.277  0.6777  0.6347 -1.4823
   34MOL    H3525181   3.659   3.371   1.306 -0.1715 -0.1700  0.6387
   34MOL    H3625182   3.949   3.320   1.214 -0.5314 -0.6319 -0.8942
   34MOL    H3725183   3.874   3.478   1.241 -1.2816 -0.7401  3.4600
   34MOL    H3825184   3.737   3.312   1.042 -2.5088  1.7947  1.6086
   34MOL    H3925185   3.793   4.488   1.582 -0.5592  1.1125 -2.2240
   34MOL    C4025186   3.871   3.441   0.976 -0.1699 -0.1936 -0.7491
   34MOL    O4125187   3.970   3.515   0.987 -0.0773 -0.7215  0.4096
   34MOL    C4225188   3.794   3.436   0.846 -0.0435 -0.2209 -0.1457
   34MOL    C4325189   3.821   3.570   0.760 -0.4125  0.0590  0.6236
   34MOL    C4425190   3.763   3.695   0.824 -0.6141 -0.1527  0.1246
   34MOL    C4525191   3.777   3.822   0.738 -0.4356 -0.1963  0.0422
   34MOL    C4625192   3.666   3.922   0.749 -0.2262  0.5531  0.0587
   34MOL    O4725193   3.616   3.940   0.861 -0.0885 -0.5394  0.0366
   34MOL    N4825194   3.621   3.982   0.641  0.1966 -0.2702  0.8342
   34MOL    C4925195   3.531   4.095   0.649  0.3008 -0.5964  0.5763
   34MOL    C5025196   3.604   4.232   0.654  0.4146  0.3315  0.0406
   34MOL    C5125197   3.697   4.246   0.532 -0.2041 -0.2318  0.4337
   34MOL    C5225198   3.757   4.385   0.527  0.5235  0.3497 -0.0090
   34MOL    C5325199   3.837   4.401   0.395  0.1959  0.0013 -0.6156
   34MOL    C5425200   3.918   4.526   0.407 -0.0830  0.1442  0.2808
   34MOL    N5525201   3.997   4.561   0.290  0.1911 -0.0398  0.0552
   34MOL    H5625202   3.818   3.348   0.787 -0.1034 -0.3704  0.0542
   34MOL    H5725203   3.689   3.416   0.866 -0.5907  1.2026 -1.4353
   34MOL    H5825204   3.927   3.584   0.743 -0.8739  0.0369 -2.5594
   34MOL    H5925205   3.771   3.564   0.663  0.1990  0.3619  0.2914
   34MOL    H6025206   3.820   3.720   0.914 -1.7328  0.1409  0.7647
   34MOL    H6125207   3.659   3.673   0.850 -1.5340  2.7050 -0.9682
   34MOL    H6225208   3.779   3.798   0.632  1.8781  0.1643 -0.0212
   34MOL    H6325209   3.871   3.861   0.775 -0.3702 -1.4655  1.2686
   34MOL    H6425210   3.659   3.960   0.550  0.9509  0.3501  1.0034
   34MOL    H6525211   3.463   4.098   0.564 -0.8079 -0.3920  1.4486
   34MOL    H6625212   3.463   4.086   0.734  0.2802  1.8592  0.8481
   34MOL    H6725213   3.542   4.321   0.649  1.7284  1.3052  0.8012
   34MOL    H6825214   3.677   4.238   0.734  0.5506  1.4550 -0.1606
   34MOL    H6925215   3.646   4.230   0.437 -0.8926 -0.0086  0.7615
   34MOL    H7025216   3.781   4.177   0.543 -1.0133 -0.9530  2.4929
   34MOL    H7125217   3.678   4.458   0.516 -2.0581 -1.7710  3.5311
   34MOL    H7225218   3.797   4.419   0.622 -1.1082 -0.0880  0.8515
   34MOL    H7325219   3.898   4.316   0.364 -0.4689 -0.1716 -1.4705
   34MOL    H7425220   3.778   4.409   0.304 -2.4811 -2.6299  0.8284
   34MOL    H7525221   3.988   4.527   0.491 -0.3628  0.0954  0.5183
   34MOL    H7625222   3.859   4.614   0.433 -1.1215 -0.6254  0.5435
   34MOL    H7725223   3.950   4.612   0.216  0.7294  0.5494  0.1112
   34MOL    C7825224   4.128   4.548   0.279  0.5543 -0.3062 -0.2357
   34MOL    O7925225   4.198   4.488   0.362 -0.1483 -0.7151 -0.3112
   34MOL    C8025226   4.196   4.608   0.151 -0.2607 -0.2742  0.3503
   34MOL    C8125227   4.309   4.517   0.098 -0.1168 -0.8351  0.0007
   34MOL    C8225228   4.373   4.592   7.693 -0.1594 -0.3729  0.0418
   34MOL    C8325229   4.484   4.529   7.608 -0.3684  0.1844  0.2424
   34MOL    C8425230   4.612   4.493   7.680 -0.1758 -0.0468  0.1469
   34MOL    O8525231   4.683   4.588   0.001  0.6374 -0.3576  0.5160
   34MOL    N8625232   4.633   4.357   7.701 -0.0555 -0.2001 -0.2506
   34MOL    C8725233   4.749   4.290   0.051 -0.1616  0.0367  0.8192
   34MOL    C8825234   4.717   4.218   0.173  0.4337  0.2143  0.9148
   34MOL    C8925235   4.746   4.286   0.303 -0.2733  0.4552  0.6614
   34MOL    C9025236   4.682   4.231   0.431  0.1390 -0.4177  0.1291
   34MOL    C9125237   4.541   4.272   0.455 -1.3522  0.4221  0.0887
   34MOL    C9225238   4.435   4.199   0.367  0.4219  0.6773 -0.2168
   34MOL    N9325239   4.304   4.221   0.433  0.6387 -0.0997 -0.0174
   34MOL    H9425240   4.130   4.650   0.076 -0.6689 -1.0587  0.2580
   34MOL    H9525241   4.255   4.694   0.181  1.6363 -1.0615 -1.0478
   34MOL    H9625242   4.378   4.487   0.176  0.1089 -1.4925 -0.4478
   34MOL    H9725243   4.292   4.416   0.061 -1.8954 -0.4546 -0.2918
   34MOL    H9825244   4.415   4.679   0.034 -0.2791  0.2880 -1.0053
   34MOL    H9925245   4.300   4.623   7.618  0.9762  0.8373 -0.5785
   34MOL   H10025246   4.502   4.595   7.524 -2.3409 -0.1782 -0.4742
   34MOL   H10125247   4.440   4.442   7.558  1.2110 -0.1212 -0.6501
   34MOL   H10225248   4.558   4.301   7.663 -0.6210  0.4313 -0.0693
   34MOL   H10325249   4.774   4.221   7.678 -1.9338  1.3569 -0.9064
   34MOL   H10425250   4.832   4.360   0.061 -0.2555  0.2281  0.2772
   34MOL   H10525251   4.617   4.174   0.176  0.1822  0.6619 -0.5911
   34MOL   H10625252   4.785   4.133   0.173 -0.6922 -0.7047  1.1482
   34MOL   H10725253   4.700   4.384   0.301  0.1569  0.6548  0.4697
   34MOL   H10825254   4.853   4.306   0.305  0.2640 -2.1448 -0.0751
   34MOL   H10925255   4.675   4.123   0.445  0.0212 -0.4294 -0.0227
   34MOL   H11025256   4.749   4.257   0.513  0.5620 -3.6512  0.8686
   34MOL   H11125257   4.525   4.257   0.562  0.3226  1.4768  0.5166
   34MOL   H11225258   4.522   4.379   0.441 -2.0301  0.1578 -1.0789
   34MOL   H11325259   4.450   4.092   0.353  0.1110  0.6417 -0.2948
   34MOL   H11425260   4.420   4.240   0.267 -1.1919 -1.8512 -1.0446
   34MOL   H11525261   4.250   4.302   0.408 -1.6876 -1.4575  0.4515
   34MOL   C11625262   4.247   4.134   0.519  0.0750 -0.0191  0.1190
   34MOL   O11725263   4.318   4.041   0.561 -0.2757  0.0326 -0.2987
   34MOL   C11825264   4.103   4.164   0.568 -0.5974 -0.5495  0.1326
   34MOL   C11925265   4.066   4.168   0.715 -0.7013 -0.3665  0.3185
   34MOL   C12025266   4.166   4.232   0.817 -0.0870  0.2870  0.4498
   34MOL   C12125267   4.229   4.368   0.785  0.4899 -0.2787 -0.2357
   34MOL   C12225268   4.266   4.427   0.916  0.0170  0.0035  0.2731
   34MOL   O12325269   4.363   4.388   0.978 -0.0294  0.1523  0.0327
   34MOL   N12425270   4.185   4.520   0.975 -0.7478  0.1962 -0.2319
   34MOL   C12525271   4.205   4.585   1.101  0.0526 -0.3623 -0.4942
   34MOL   C12625272   4.064   4.624   1.142 -0.7037  0.1658 -0.2055
   34MOL   C12725273   4.056   4.666   1.295  0.2945 -0.0041  0.0937
   34MOL   C12825274   3.913   4.721   1.322 -0.2082  0.8794  0.1272
   34MOL   C12925275   3.907   4.806   1.442  0.5726 -0.7974 -0.0212
   34MOL   C13025276   3.765   4.861   1.471 -0.2603  0.1436 -0.2274
   34MOL   N13125277   3.761   4.950   1.584  0.2567  0.4864 -0.8319
   34MOL   H13225278   4.079   4.264   0.530  0.0298  0.1283  1.5149
   34MOL   H13325279   4.040   4.091   0.516 -1.9924  0.5033  0.3146
   34MOL   H13425280   3.971   4.218   0.732 -1.7218 -1.9167 -0.6268
   34MOL   H13525281   4.064   4.064   0.749  2.1080 -0.8128 -0.7452
   34MOL   H13625282   4.254   4.170   0.830 -0.8007 -0.9947 -0.6362
   34MOL   H13725283   4.115   4.227   0.913  0.4315  0.2588  0.7252
   34MOL   H13825284   4.158   4.433   0.734 -1.3185 -1.3434  0.9114
   34MOL   H13925285   4.317   4.345   0.725  0.0699 -2.4913 -0.0410
   34MOL   H14025286   4.098   4.537   0.926 -0.7098 -1.6511 -1.0081
   34MOL   H14125287   4.252   4.514   1.168 -0.7747 -1.4988 -1.1154
   34MOL   H14225288   4.268   4.672   1.081  1.0336 -1.0739 -0.5320
   34MOL   H14325289   4.037   4.710   1.081 -1.9380 -0.4766 -0.5907
   34MOL   H14425290   3.997   4.541   1.119 -1.1080  0.8378 -1.5024
   34MOL   H14525291   4.123   4.751   1.312 -0.8606  1.1985 -1.1603
   34MOL   H14625292   4.081   4.592   1.371  1.6674  0.7982  0.4492
   34MOL   H14725293   3.877   4.772   1.233 -0.7306 -0.0288 -0.1914
   34MOL   H14825294   3.839   4.643   1.336 -2.1569  2.4395 -1.2652
   34MOL   H14925295   3.948   4.755   1.530 -0.8360 -0.6746  0.7196
   34MOL   H15025296   3.986   4.881   1.439  0.4095 -0.6583 -1.0056
   34MOL   H15125297   3.705   4.771   1.481  0.5544 -0.3107  0.5829
   34MOL   H15225298   3.730   4.905   1.377 -0.0416  1.0523  0.1064
   34MOL   H15325299   3.709   4.926   1.667  1.7048  1.0736  0.2537
   34MOL   C15425300   3.799   5.074   1.584 -0.7438  0.1076 -0.2686
   34MOL   O15525301   3.865   5.121   1.489 -0.1519 -0.1036  0.3050
   34MOL   C15625302   3.787   5.147   1.717  0.0417 -0.6541 -0.2784
   34MOL   C15725303   3.682   5.264   1.702  0.0956 -0.3413  0.8127
   34MOL   C15825304   3.645   5.331   1.836  0.0839 -0.3280  0.3681
   34MOL   C15925305   3.762   5.414   1.895 -0.4713 -0.2778  0.1170
   34MOL   C16025306   3.732   5.461   2.032 -0.3740  0.5472 -0.6385
   34MOL   O16125307   3.623   5.497   2.069  0.1876  0.5047  0.2473
   34MOL   N16225308   3.831   5.446   2.121  0.1615 -0.2223 -0.6587
   34MOL   C16325309   3.834   5.471   2.259  0.9535  0.2960 -0.4734
   34MOL   C16425310   3.974   5.499   2.307 -0.6794  0.2872 -0.0881
   34MOL   C16525311   4.059   5.599   2.226 -0.6214  0.1007 -0.1661
   34MOL   C16625312   4.217   5.564   2.230  0.5023  0.4724  0.1122
   34MOL   C16725313   4.299   5.668   2.163 -0.2428  0.8617  0.5583
   34MOL   C16825314   4.277   5.672   2.013 -0.1018  0.0703  0.3790
   34MOL   N16925315   4.361   5.768   1.942 -0.4143  0.0294 -0.7039
   34MOL   H17025316   3.762   5.076   1.797 -0.8218  1.3707  1.2924
   34MOL   H17125317   3.883   5.189   1.746 -0.6326 -0.8445  2.4120
   34MOL   H17225318   3.711   5.330   1.620 -1.0616 -1.5285 -0.5786
   34MOL   H17325319   3.591   5.214   1.669  0.0419 -0.0328  0.4878
   34MOL   H17425320   3.611   5.253   1.904  1.6406 -2.4655 -1.2484
   34MOL   H17525321   3.560   5.399   1.828  0.7496  0.4333 -0.3134
   34MOL   H17625322   3.797   5.499   1.837  4.1627 -1.8805  0.3155
   34MOL   H17725323   3.850   5.350   1.889 -0.7527 -0.4470 -2.8132
   34MOL   H17825324   3.919   5.416   2.080 -0.3366 -1.7167 -0.6806
   34MOL   H17925325   3.772   5.559   2.280  0.8741  0.4946 -1.5344
   34MOL   H18025326   3.797   5.378   2.303  2.1237 -0.1522 -0.4241
   34MOL   H18125327   3.984   5.535   2.410  3.3361  1.6219 -0.8672
   34MOL   H18225328   4.014   5.398   2.303 -2.4962 -0.5433  1.6989
   34MOL   H18325329   4.047   5.704   2.253  0.3740  0.9711 -2.9133
   34MOL   H18425330   4.037   5.586   2.120 -0.1945  1.4328 -0.4273
   34MOL   H18525331   4.259   5.548   2.330  2.1814  1.2087 -0.4607
   34MOL   H18625332   4.239   5.467   2.188  0.4849  0.9818 -1.0893
   34MOL   H18725333   4.279   5.766   2.208 -0.0119  1.8294 -1.3962
   34MOL   H18825334   4.402   5.646   2.190 -0.1377  1.8317  1.0104
   34MOL   H18925335   4.175   5.705   1.997  1.2616  3.8886 -1.0459
   34MOL   H19025336   4.294   5.573   1.970 -1.3322 -0.3227  0.7769
   34MOL   H19125337   4.443   5.724   1.901 -1.0312 -1.4610 -0.3834
   34MOL   C19225338   4.342   5.898   1.911  0.0099  0.2031 -0.6800
   34MOL   O19325339   4.263   5.977   1.958 -0.3554 -0.0657 -0.0153
   34MOL   C19425340   4.441   5.950   1.804  0.1865 -0.3499  0.2919
   34MOL   C19525341   4.372   5.935   1.667  0.4626 -0.4604 -0.2037
   34MOL   C19625342   4.465   5.960   1.547 -1.0222  0.3762 -0.5753
   34MOL   C19725343   4.490   6.108   1.536  0.2388 -0.0368  0.5399
   34MOL   C19825344   4.511   6.166   1.395 -0.2195 -0.2573  0.0335
   34MOL   O19925345   4.518   6.088   1.299  0.3093 -0.7671  0.0324
   34MOL   N20025346   4.519   6.299   1.381  0.0680  0.0206 -0.1983
   34MOL   C20125347   4.550   6.355   1.249 -0.3119  0.0116 -0.2900
   34MOL   C20225348   4.681   6.434   1.257  0.3060 -0.5514 -0.0671
   34MOL   C20325349   4.699   6.523   1.134 -0.0241 -0.0151  0.0142
   34MOL   C20425350   4.831   6.603   1.124  0.1076  0.5462 -0.4462
   34MOL   C20525351   4.838   6.676   0.990 -0.1605 -0.3392 -0.1638
   34MOL   C20625352   4.958   6.641   0.900 -0.9264 -0.2061 -0.3637
   34MOL   N20725353   5.090   6.658   0.972  0.7142 -0.3778 -0.1624
   34MOL   H20825354   4.459   6.056   1.821  0.3618 -0.3750  0.2692
   34MOL   H20925355   4.531   5.888   1.792  1.4060  1.5126 -0.4373
   34MOL   H21025356   4.328   5.837   1.646  0.8081 -0.8196  0.7126
   34MOL   H21125357   4.291   6.007   1.677 -2.0114 -2.7478 -2.7562
   34MOL   H21225358   4.416   5.929   1.455 -1.0182  0.3194 -0.5582
   34MOL   H21325359   4.553   5.905   1.580 -1.3642 -0.1039 -0.4536
   34MOL   H21425360   4.581   6.145   1.584  1.5590 -1.1477 -1.0420
   34MOL   H21525361   4.403   6.162   1.573 -1.0247 -0.7896 -1.2207
   34MOL   H21625362   4.521   6.363   1.458  0.6085 -0.1222 -0.0924
   34MOL   H21725363   4.544   6.274   1.176 -1.0925 -0.2326  0.0408
   34MOL   H21825364   4.467   6.422   1.226  1.3426  2.0741 -0.3775
   34MOL   H21925365   4.702   6.479   1.354 -0.1462 -0.6801  0.0951
   34MOL   H22025366   4.764   6.363   1.249 -0.9623 -1.9221 -1.6018
   34MOL   H22125367   4.611   6.587   1.133 -0.5364 -0.7201 -0.9386
   34MOL   H22225368   4.700   6.465   1.042 -0.3796 -0.6402  0.3978
   34MOL   H22325369   4.839   6.680   1.200 -2.6734 -0.4122  0.8844
   34MOL   H22425370   4.913   6.533   1.142  1.8426  2.6421  0.0868
   34MOL   H22525371   4.750   6.657   0.929 -0.6588 -1.2388  0.8155
   34MOL   H22625372   4.843   6.783   1.008  0.0484 -0.4784  0.6333
   34MOL   H22725373   4.959   6.703   0.811  1.4342 -2.4771 -1.9784
   34MOL   H22825374   4.948   6.536   0.872  0.6867 -0.2270 -0.9302
   34MOL   H22925375   5.135   6.748   0.985 -0.0314 -0.2636  1.7103
   34MOL   C23025376   5.164   6.563   1.031  0.2856  0.6482  0.2953
   34MOL   O23125377   5.139   6.444   1.014  0.1125 -0.7142 -0.4718
   34MOL   C23225378   5.289   6.606   1.104 -0.1047 -0.1296  0.1823
   34MOL   C23325379   5.342   6.519   1.228  0.4082  0.2801  0.9051
   34MOL   C23425380   5.252   6.527   1.345  0.1085  1.0646  0.7486
   34MOL   C23525381   5.274   6.421   1.459  0.1431  0.0019  0.7210
   34MOL   C23625382   5.424   6.402   1.497  0.5703  0.6873 -0.0997
   34MOL   O23725383   5.494   6.494   1.538 -0.2144 -0.4187 -0.2479
   34MOL   N23825384   5.476   6.280   1.470  0.1718 -0.4298  0.5955
   34MOL   C23925385   5.615   6.251   1.463 -0.2803  0.8389 -0.7083
   34MOL   C24025386   5.698   6.306   1.342 -0.3552  0.9807 -0.1392
   34MOL   C24125387   5.661   6.243   1.202  0.1052  0.0332 -0.1267
   34MOL   C24225388   5.722   6.318   1.076  0.3218 -0.0463 -0.5672
   34MOL   C24325389   5.664   6.268   0.952  0.2898  0.2789 -0.3038
   34MOL   C24425390   5.709   6.347   0.831  0.7204 -0.0914  0.2048
   34MOL   N24525391   5.672   6.284   0.704 -0.0312 -0.3091  0.0198
   34MOL   H24625392   5.372   6.603   1.035 -0.5174  0.3052 -0.3361
   34MOL   H24725393   5.274   6.707   1.144  1.1241  0.4788 -0.8769
   34MOL   H24825394   5.363   6.413   1.215  3.3106  1.1213 -2.0265
   34MOL   H24925395   5.433   6.564   1.267  1.3933 -0.6120 -0.3041
   34MOL   H25025396   5.150   6.516   1.309  0.7143  1.7041 -1.2267
   34MOL   H25125397   5.264   6.625   1.391  0.3694  0.5503  1.8189
   34MOL   H25225398   5.239   6.326   1.420  0.0701 -0.4426  1.8494
   34MOL   H25325399   5.217   6.440   1.550 -2.0623 -0.5233 -0.5243
   34MOL   H25425400   5.408   6.221   1.425  0.5977 -0.5590  0.1107
   34MOL   H25525401   5.675   6.278   1.550  0.5173  2.9634 -1.8825
   34MOL   H25625402   5.617   6.142   1.469  2.9672  0.9843  2.1447
   34MOL   H25725403   5.679   6.412   1.329  1.2480  1.2787 -0.2271
   34MOL   H25825404   5.806   6.297   1.353 -0.7761 -2.0442  2.0852
   34MOL   H25925405   5.554   6.225   1.201  0.1595 -0.2967 -0.0418
   34MOL   H26025406   5.722   6.152   1.197 -1.4474 -1.0950  0.9987
   34MOL   H26125407   5.703   6.426   1.078 -1.5825 -0.3037 -2.9183
   34MOL   H26225408   5.830   6.315   1.068  0.4825 -3.7143  1.7465
   34MOL   H26325409   5.683   6.161   0.952 -0.4288  0.1326  1.6579
   34MOL   H26425410   5.555   6.272   0.960  0.2363  4.1598 -2.0545
   34MOL   H26525411   5.815   6.373   0.833  0.8474 -0.6837  1.4894
   34MOL   H26625412   5.657   6.443   0.833  0.5894 -0.1714  0.6179
   34MOL   H26725413   5.654   6.185   0.703  1.9014 -0.6908  0.8734
   34MOL   C26825414   5.654   6.347   0.588  0.5047 -0.6319  0.7932
   34MOL   O26925415   5.673   6.468   0.578 -0.0182 -0.2494  0.5499
   34MOL   C27025416   5.634   6.261   0.462  0.3387 -0.2451  0.4896
   34MOL   C27125417   5.483   6.223   0.434  0.0543 -0.2851  0.4445
   34MOL   C27225418   5.414   6.149   0.546  0.4201  0.3452 -0.1277
   34MOL   C27325419   5.267   6.114   0.514  0.4056 -0.7103  0.3649
   34MOL   C27425420   5.210   6.022   0.619  0.3509  0.4740  0.2410
   34MOL   O27525421   5.194   5.899   0.596  0.3027  0.5479 -0.2847
   34MOL   N27625422   5.177   6.087   0.731  0.1840  0.7565 -0.3644
   34MOL   C27725423   5.121   6.029   0.847  0.1702  0.5378  0.4314
   34MOL   C27825424   5.114   6.128   0.956  0.2112  0.2893  0.1810
   34MOL   C27925425   5.038   6.071   1.078 -0.0013  0.0250 -0.8055
   34MOL   C28025426   5.005   6.163   1.193  0.1832  0.4733  0.1370
   34MOL   C28125427   4.926   6.098   1.306 -0.9767 -0.7854  0.4708
   34MOL   C28225428   4.944   6.163   1.445 -0.3080 -1.0074  0.9352
   34MOL   N28325429   4.911   6.068   1.537  0.1746  0.2097 -0.3254
   34MOL   H28425430   5.674   6.314   0.376 -1.3001 -1.6242 -1.1767
   34MOL   H28525431   5.686   6.167   0.480 -2.1450 -1.5788  1.0156
   34MOL   H28625432   5.418   6.311   0.425  0.0604 -0.0377  2.6211
   34MOL   H28725433   5.478   6.163   0.343  0.9162  1.0771 -0.5308
   34MOL   H28825434   5.426   6.207   0.637  0.3897 -0.5624  0.4658
   34MOL   H28925435   5.469   6.058   0.568 -2.0018 -1.6044 -1.8287
   34MOL   H29025436   5.262   6.072   0.413  2.8544  1.0921 -0.5432
   34MOL   H29125437   5.214   6.209   0.513  2.7814  0.6382  0.3450
   34MOL   H29225438   5.212   6.181   0.745 -2.3636  1.3714  2.2696
   34MOL   H29325439   5.020   5.996   0.822  0.0968  0.2321  1.1247
   34MOL   H29425440   5.178   5.938   0.866 -1.4164 -0.4114  0.7534
   34MOL   H29525441   5.214   6.166   0.975  0.4540 -0.4741  0.4117
   34MOL   H29625442   5.052   6.208   0.915  0.0303  1.9278  3.4330
   34MOL   H29725443   5.099   5.987   1.110  0.1962 -0.1466 -1.6193
   34MOL   H29825444   4.947   6.021   1.046 -0.3462 -1.1317  1.9395
   34MOL   H29925445   5.102   6.197   1.231  0.4965 -1.3219  0.9899
   34MOL   H30025446   4.961   6.258   1.163 -0.5159  0.2900  0.5688
   34MOL   H30125447   4.821   6.094   1.279 -1.0607  1.2306  0.4769
   34MOL   H30225448   4.952   5.992   1.312  0.6819 -0.4456 -0.5152
   34MOL   H30325449   4.891   6.259   1.444  2.8639  0.8400 -0.8385
   34MOL   H30425450   5.048   6.197   1.440 -0.7868  0.3301 -0.6180
   34MOL   H30525451   4.894   5.977   1.496  0.6570 -0.1599  0.2890
   34MOL   C30625452   4.896   6.076   1.665  0.5274  0.1386  0.2782
   34MOL   O30725453   4.941   6.166   1.731 -0.4354  0.0824  0.0687
   34MOL   C30825454   4.810   5.967   1.732  0.2962  0.4834 -0.1391
   34MOL   C30925455   4.880   5.902   1.856 -0.3841  0.3962  0.8104
   34MOL   C31025456   5.020   5.840   1.821  0.0707  0.4589  0.1887
   34MOL   C31125457   5.075   5.762   1.942  0.4471 -0.1947 -0.6826
   34MOL   C31225458   5.225   5.717   1.929  0.3984 -0.3928  0.3303
   34MOL   O31325459   5.257   5.639   1.838 -0.1566 -0.3177  0.5276
   34MOL   N31425460   5.323   5.769   2.006  0.2128  0.1010 -0.3382
   34MOL   C31525461   5.455   5.712   2.035  0.2100  0.6562 -0.8732
   34MOL   C31625462   5.483   5.698   2.177 -0.0906  0.4962 -0.7706
   34MOL   C31725463   5.614   5.634   2.209 -0.0947  1.0367 -0.0684
   34MOL   C31825464   5.639   5.595   2.357 -0.2673  0.9751 -0.0054
   34MOL   C31925465   5.781   5.538   2.384  0.1131  0.2554  0.6235
   34MOL   C32025466   5.806   5.524   2.537  0.5033  0.0301  0.4924
   34MOL   N32125467   5.940   5.470   2.557 -0.3183  0.3014 -0.2825
   34MOL   H32225468   4.719   6.019   1.760 -1.1517 -1.2800 -1.4027
   34MOL   H32325469   4.771   5.887   1.669 -3.2029  0.3975  1.9875
   34MOL   H32425470   4.882   5.980   1.932 -1.3328 -0.7128  1.9956
   34MOL   H32525471   4.824   5.815   1.890 -0.2848 -0.2374 -0.6248
   34MOL   H32625472   5.097   5.913   1.795  0.6470 -0.2506 -0.1432
   34MOL   H32725473   5.012   5.771   1.736 -1.3329  0.1335  0.5749
   34MOL   H32825474   5.018   5.676   1.976  1.0525 -0.1285  0.5398
   34MOL   H32925475   5.071   5.832   2.026 -2.1342 -2.1330  0.8835
   34MOL   H33025476   5.302   5.850   2.062 -0.6334  0.1548 -0.7225
   34MOL   H33125477   5.472   5.621   1.979  2.5851  0.3331  0.3298
   34MOL   H33225478   5.527   5.779   1.989  1.8902 -0.8758 -0.4938
   34MOL   H33325479   5.478   5.799   2.217  0.5436 -0.3941  1.6079
   34MOL   H33425480   5.402   5.633   2.209 -0.3939  1.7614  1.1162
   34MOL   H33525481   5.706   5.692   2.197  2.3636 -2.4147  1.2311
   34MOL   H33625482   5.623   5.545   2.148 -0.6946 -0.4855  2.0278
   34MOL   H33725483   5.621   5.677   2.427  0.9452  0.3212  1.0847
   34MOL   H33825484   5.568   5.520   2.391 -0.4471  0.8442 -0.6658
   34MOL   H33925485   5.806   5.442   2.338 -0.3412  0.8197 -0.8370
   34MOL   H34025486   5.860   5.601   2.344  0.5147 -0.6415  0.0014
   34MOL   H34125487   5.729   5.450   2.562 -1.0807  1.0979 -1.0923
   34MOL   H34225488   5.791   5.619   2.587  3.1218 -0.2842  1.9740
   34MOL   H34325489   6.000   5.459   2.477  0.4501 -0.4738  0.3948
   34MOL   C34425490   6.009   5.482   2.672  0.0977 -0.1102 -0.0788
   34MOL   O34525491   5.969   5.538   2.772 -0.1237  0.0412 -0.3854
   34MOL   C34625492   6.140   5.409   2.680  0.6152 -0.2339 -0.2084
   34MOL   C34725493   6.258   5.502   2.680 -0.6713  0.0997  0.0338
   34MOL   C34825494   6.290   5.581   2.552  0.1837 -0.5210 -0.4816
   34MOL   C34925495   6.320   5.504   2.423 -0.1298  0.1060  0.0565
   34MOL   C35025496   6.211   5.433   2.351  0.3279 -0.4474  0.2302
   34MOL   O35125497   6.114   5.490   2.306  0.3684 -0.1530 -0.5589
   34MOL   N35225498   6.227   5.305   2.334 -0.4685  0.4388  0.1088
   34MOL   C35325499   6.141   5.216   2.259  0.0488  0.2293 -0.0702
   34MOL   C35425500   6.021   5.170   2.338 -0.0798  0.3777  0.2636
   34MOL   C35525501   5.915   5.097   2.256 -0.1339 -0.1014 -0.4308
   34MOL   C35625502   5.794   5.058   2.321  0.1301 -0.0841  0.3229
   34MOL   C35725503   5.678   5.003   2.230  0.0341  0.2660 -0.1640
   34MOL   C35825504   5.555   4.988   2.319 -0.6333 -0.7702 -0.1539
   34MOL   N35925505   5.572   4.864   2.395 -0.3396  0.0368 -0.1025
   34MOL   H36025506   6.139   5.355   2.775  1.7718  0.3404  0.1421
   34MOL   H36125507   6.151   5.341   2.595  1.5176 -3.0066  2.0220
   34MOL   H36225508   6.258   5.573   2.762 -0.8652  1.6213 -1.2552
   34MOL   H36325509   6.346   5.444   2.708 -1.1727 -1.7277 -2.0435
   34MOL   H36425510   6.369   5.653   2.571 -0.8188 -0.0139  1.9412
   34MOL   H36525511   6.213   5.655   2.534 -1.4795 -1.1335  3.4843
   34MOL   H36625512   6.399   5.433   2.448  1.6015  1.1472 -2.1919
   34MOL   H36725513   6.363   5.576   2.353  0.2310 -0.3328 -0.1747
   34MOL   H36825514   6.314   5.258   2.352 -1.7142 -1.4416  1.5097
   34MOL   H36925515   6.119   5.269   2.167  0.6039  0.7289  0.0843
   34MOL   H37025516   6.192   5.125   2.228 -2.9615 -2.3254  2.0683
   34MOL   H37125517   6.056   5.099   2.413  1.5256 -0.0064 -0.8220
   34MOL   H37225518   5.971   5.251   2.391 -2.3081  0.9614 -2.6025
   34MOL   H37325519   5.968   5.016   2.206  0.7496  0.9671 -1.2736
   34MOL   H37425520   5.883   5.159   2.171 -1.4050 -0.2112 -0.0393
   34MOL   H37525521   5.802   4.980   2.396 -1.9658 -1.8760 -1.2315
   34MOL   H37625522   5.753   5.150   2.363 -0.6896  0.1137 -0.8735
   34MOL   H37725523   5.662   5.076   2.151 -1.6047 -0.2405 -0.3242
   34MOL   H37825524   5.709   4.906   2.190  0.1706  0.9249 -1.6633
   34MOL   H37925525   5.471   4.994   2.251 -0.4788  0.7386 -0.2166
   34MOL   H38025526   5.544   5.069   2.391  0.5661 -0.9581  0.2582
   34MOL   H38125527   5.611   4.783   2.348  2.6657  1.6522 -0.5146
   34MOL   C38225528   5.561   4.859   2.525 -0.0625 -0.0867 -0.4913
   34MOL   O38325529   5.522   4.957   2.595 -0.1393 -0.1756  0.0535
   34MOL   C38425530   5.602   4.729   2.590 -0.6802 -0.0952 -0.6821
   34MOL   C38525531   5.483   4.682   2.672 -0.3568 -0.5130 -0.9854
   34MOL   C38625532   5.513   4.547   2.734  0.2366  0.3554 -0.2332
   34MOL   C38725533   5.396   4.491   2.806  0.8728 -0.0840  0.3480
   34MOL   C38825534   5.279   4.444   2.715 -0.3804  0.1791  0.3889
   34MOL   O38925535   5.301   4.392   2.604 -0.2014 -0.3847  0.0487
   34MOL   N39025536   5.157   4.460   2.760 -0.2065  0.4027  0.8856
   34MOL   C39125537   5.027   4.427   2.690  0.5093  0.1848 -0.4454
   34MOL   C39225538   4.964   4.557   2.648  0.4193 -0.0929 -0.5356
   34MOL   C39325539   5.053   4.638   2.543 -0.8030 -0.5964 -0.3546
   34MOL   C39425540   5.010   4.777   2.494  0.5398 -0.0020  0.0294
   34MOL   C39525541   5.095   4.845   2.385  0.4463  0.0761  0.0813
   34MOL   C39625542   5.132   4.746   2.279  0.5179 -0.0856  0.6858
   34MOL   N39725543   5.210   4.818   2.170  0.3011 -0.1733  0.4173
   34MOL   H39825544   5.646   4.658   2.520  1.2980  1.6970 -1.3365
   34MOL   H39925545   5.687   4.740   2.658 -1.8170 -0.5205  0.8314
   34MOL   H40025546   5.466   4.753   2.753 -0.4937 -0.4470 -1.0709
   34MOL   H40125547   5.388   4.700   2.622  0.5857  2.0318 -1.9415
   34MOL   H40225548   5.597   4.566   2.800  0.1368 -0.5869  0.1642
   34MOL   H40325549   5.549   4.474   2.661  2.9191  0.1293  1.2706
   34MOL   H40425550   5.351   4.556   2.882  0.0339 -0.5140  0.2278
   34MOL   H40525551   5.424   4.406   2.868  1.8199 -0.0635 -0.0507
   34MOL   H40625552   5.145   4.501   2.851 -0.1113 -0.3925  1.2594
   34MOL   H40725553   5.041   4.363   2.604 -0.6366 -1.3746  0.4968
   34MOL   H40825554   4.966   4.382   2.768  1.3485 -0.8510 -0.3806
   34MOL   H40925555   4.864   4.544   2.605 -0.5476  0.0379  1.6206
   34MOL   H41025556   4.952   4.613   2.741 -1.5887 -3.2620  1.2115
   34MOL   H41125557   5.052   4.560   2.467  1.0895 -1.8638  0.8957
   34MOL   H41225558   5.148   4.657   2.592 -0.5936 -2.8419  0.1287
   34MOL   H41325559   4.907   4.776   2.459  0.5780  0.6211 -0.1065
   34MOL   H41425560   5.002   4.841   2.582  1.7323  0.8736 -0.4950
   34MOL   H41525561   5.028   4.924   2.350 -0.9961 -1.8791 -1.7615
   34MOL   H41625562   5.189   4.885   2.421  0.6267 -0.7509  0.5432
   34MOL   H41725563   5.043   4.702   2.235  0.5645  0.7310 -0.2303
   34MOL   H41825564   5.193   4.667   2.323  1.4919  0.8726  1.0888
   34MOL   H41925565   5.185   4.913   2.147 -3.4225 -1.4039 -1.0341
   34MOL   C42025566   5.314   4.766   2.104  0.1552  0.5984  0.2672
   34MOL   O42125567   5.341   4.645   2.124 -1.0079  0.5379 -0.0620
   34MOL   C42225568   5.388   4.858   2.014 -0.8287  0.0257 -0.3023
   34MOL   C42325569   5.405   4.801   1.875  0.1326  0.3655  0.2950
   34MOL   C42425570   5.287   4.784   1.784  0.2122  0.1108  0.2231
   34MOL   C42525571   5.324   4.762   1.638  0.0187  0.6685 -0.1626
   34MOL   C42625572   5.212   4.690   1.563  0.0341  0.5640  0.0298
   34MOL   O42725573   5.207   4.566   1.557 -0.5294  0.3436 -0.2499
   34MOL   N42825574   5.142   4.770   1.484  0.2191 -0.1092 -0.1576
   34MOL   C42925575   5.047   4.724   1.381  0.0863 -0.4415  0.0467
   34MOL   C43025576   5.057   4.808   1.254 -0.2406  0.6844 -0.4763
   34MOL   C43125577   5.190   4.794   1.176  0.1228 -0.7269 -0.3964
   34MOL   C43225578   5.182   4.852   1.028 -0.2286  0.0066  0.3196
   34MOL   C43325579   5.326   4.838   0.968 -0.3855  0.5252 -0.4225
   34MOL   C43425580   5.336   4.873   0.824 -0.2712  0.9830  1.1077
   34MOL   N43525581   5.477   4.855   0.793  0.5659  0.2682  0.1885
   34MOL   H43625582   5.342   4.956   2.013  2.1815  1.4906  0.3122
   34MOL   H43725583   5.486   4.884   2.054 -2.2765  2.7418  1.6054
   34MOL   H43825584   5.489   4.853   1.829 -0.2842 -1.0616 -2.1810
   34MOL   H43925585   5.440   4.698   1.879  1.4002  0.7634 -0.0650
   34MOL   H44025586   5.227   4.874   1.776  3.5158  2.4824  1.1587
   34MOL   H44125587   5.226   4.698   1.811  1.5198 -0.2724  2.0602
   34MOL   H44225588   5.417   4.705   1.632  1.1845  2.2389  2.3939
   34MOL   H44325589   5.343   4.863   1.603  2.6618  1.3605  3.0054
   34MOL   H44425590   5.160   4.869   1.486  1.2381 -0.2068 -2.7398
   34MOL   H44525591   5.056   4.616   1.370 -0.8386 -0.3813 -1.3658
   34MOL   H44625592   4.947   4.740   1.422  0.0171 -0.0298 -0.2812
   34MOL   H44725593   4.970   4.787   1.192 -1.9266  0.4428  1.8879
   34MOL   H44825594   5.033   4.911   1.278  0.4527  0.3242  1.8507
   34MOL   H44925595   5.221   4.690   1.170  0.1581 -0.6374 -2.4323
   34MOL   H45025596   5.272   4.840   1.231  0.1528  0.7189 -1.6082
   34MOL   H45125597   5.104   4.798   0.973  1.7023 -0.8714 -1.6431
   34MOL   H45225598   5.145   4.954   1.018 -1.6981 -0.6574 -1.4464
   34MOL   H45325599   5.390   4.905   1.026  0.3511 -1.3030  0.9177
   34MOL   H45425600   5.364   4.737   0.981  0.4048  0.8463 -0.2393
   34MOL   H45525601   5.312   4.977   0.801 -2.5962  0.1700 -0.3379
   34MOL   H45625602   5.282   4.807   0.756  0.0593 -0.7801  2.5232
   34MOL   H45725603   5.526   4.776   0.832 -1.6753 -0.3454  1.8578
   34MOL   C45825604   5.547   4.935   0.709  1.0319  0.5881 -0.4660
   34MOL   O45925605   5.493   5.026   0.642 -0.8122 -0.2882  0.3322
   34MOL   C46025606   5.697   4.911   0.693  0.1788 -0.4396 -0.2691
   34MOL   C46125607   5.784   5.033   0.747  0.2256 -0.7770 -0.8555
   34MOL   C46225608   5.745   5.099   0.884  0.2329 -0.5597 -0.3790
   34MOL   C46325609   5.766   5.019   1.018  0.1678  0.2470  0.0980
   34MOL   C46425610   5.700   5.084   1.141 -0.1633  0.2484 -0.0378
   34MOL   O46525611   5.691   5.209   1.142  0.3701 -0.2131 -0.3076
   34MOL   N46625612   5.640   4.997   1.231 -0.1922 -0.1112 -0.5531
   34MOL   C46725613   5.571   5.027   1.357  0.2953 -1.2321  0.1207
   34MOL   C46825614   5.668   5.023   1.478  0.1353  1.2323  0.5689
   34MOL   C46925615   5.622   5.081   1.613 -0.0446 -0.4364  0.1389
   34MOL   C47025616   5.712   5.030   1.722  0.0463 -0.3430 -0.2631
   34MOL   C47125617   5.675   5.092   1.861  0.6242  0.0984  0.3335
   34MOL   C47225618   5.674   5.242   1.884  0.7153 -0.6352  0.3147
   34MOL   N47325619   5.536   5.297   1.878  0.6440 -0.0650 -0.6378
   34MOL   H47425620   5.728   4.824   0.751 -1.4004 -1.1431 -0.4629
   34MOL   H47525621   5.731   4.897   0.590  2.1918  0.6675  0.2249
   34MOL   H47625622   5.889   5.003   0.756  1.1549  2.3555 -0.5751
   34MOL   H47725623   5.777   5.110   0.670  0.5012 -1.2999 -1.4045
   34MOL   H47825624   5.643   5.132   0.867  1.1756  2.5586 -0.1713
   34MOL   H47925625   5.796   5.193   0.904 -0.1904 -0.8474  2.2959
   34MOL   H48025626   5.869   4.996   1.043  0.0684  0.5885  0.8553
   34MOL   H48125627   5.712   4.926   1.001 -2.8794  2.3045 -2.0616
   34MOL   H48225628   5.657   4.898   1.220 -1.0209 -0.4231  0.8580
   34MOL   H48325629   5.528   5.127   1.357  0.9668 -0.9299  0.6292
   34MOL   H48425630   5.483   4.964   1.366 -1.0056  0.7009  1.0482
   34MOL   H48525631   5.705   4.921   1.481  0.0649  1.1567 -0.6654
   34MOL   H48625632   5.760   5.069   1.443  0.5636  0.1361  0.2235
   34MOL   H48725633   5.521   5.047   1.639  0.8300 -3.5491 -0.2532
   34MOL   H48825634   5.628   5.189   1.611  2.1211 -0.5734 -2.8384
   34MOL   H48925635   5.701   4.922   1.728 -1.8412 -0.1346  0.1033
   34MOL   H49025636   5.814   5.050   1.689 -0.3342 -1.7045 -2.3356
   34MOL   H49125637   5.578   5.045   1.877  0.6797 -0.8946 -2.0582
   34MOL   H49225638   5.736   5.040   1.935 -0.9543 -0.3448  1.3412
   34MOL   H49325639   5.746   5.297   1.824 -0.5345 -0.4647 -1.0478
   34MOL   H49425640   5.717   5.275   1.979 -3.7016  0.8471  1.9581
   34MOL   H49525641   5.519   5.376   1.817  2.2794  0.1990 -0.7850
   34MOL   C49625642   5.447   5.273   1.972 -0.2006  0.1310  0.0531
   34MOL   O49725643   5.465   5.204   2.074  0.6475 -0.0894  0.2400
   34MOL   C49825644   5.320   5.352   1.976  0.4481 -0.0891  0.2411
   34MOL   C49925645   5.204   5.257   2.003  0.3092 -0.6821  0.1746
   34MOL   C50025646   5.142   5.258   2.137 -0.6613  0.2948 -0.0660
   34MOL   C50125647   5.030   5.154   2.136  0.0942  0.2126  0.3294
   34MOL   C50225648   4.907   5.193   2.058  0.0463  0.2978 -0.0560
   34MOL   O50325649   4.911   5.268   1.957 -0.0236 -0.4927 -0.4286
   34MOL   N50425650   4.788   5.139   2.105  0.1621 -0.7771  0.0722
   34MOL   C50525651   4.655   5.152   2.050  0.7887  0.1353  0.6402
   34MOL   C50625652   4.568   5.040   2.101  0.5081  0.1069  0.3178
   34MOL   C50725653   4.421   5.050   2.047  0.0129  0.3407 -0.1077
   34MOL   C50825654   4.329   4.939   2.103  0.6415  0.0859  0.3906
   34MOL   C50925655   4.279   4.962   2.251 -0.7122 -0.0637  0.1084
   34MOL   C51025656   4.186   4.849   2.304 -0.3238  0.3825  0.3835
   34MOL   N51125657   4.148   4.880   2.438  0.1364  0.1311  0.3691
   34MOL   H51225658   5.326   5.426   2.055  2.8511 -0.4153  0.4024
   34MOL   H51325659   5.303   5.392   1.875  1.6592 -1.7421 -0.6476
   34MOL   H51425660   5.136   5.302   1.930  0.4181  0.6094  0.8510
   34MOL   H51525661   5.231   5.160   1.961  1.1418  1.1902 -3.8624
   34MOL   H51625662   5.114   5.356   2.179 -0.9489 -1.4996  4.2507
   34MOL   H51725663   5.226   5.222   2.196 -0.9673 -2.1470 -1.0739
   34MOL   H51825664   4.987   5.125   2.232  0.6740  1.7680  1.0878
   34MOL   H51925665   5.067   5.061   2.094  0.3814  0.4592  0.0273
   34MOL   H52025666   4.805   5.100   2.197 -3.2516 -2.0754  0.2258
   34MOL   H52125667   4.619   5.252   2.075 -0.4479 -0.2633  0.4647
   34MOL   H52225668   4.666   5.138   1.942  0.4261 -0.7826  0.7194
   34MOL   H52325669   4.609   4.947   2.061 -1.2322 -1.8643  2.9660
   34MOL   H52425670   4.576   5.044   2.209  0.4831 -1.9015  0.4294
   34MOL   H52525671   4.420   5.040   1.938  3.0377 -0.0091 -0.1397
   34MOL   H52625672   4.383   5.149   2.072  0.1471 -0.1803  2.2559
   34MOL   H52725673   4.247   4.919   2.034  0.4115  0.1231  0.6536
   34MOL   H52825674   4.373   4.840   2.094 -0.9051 -0.7574  1.8024
   34MOL   H52925675   4.371   4.958   2.309 -0.7385  1.6896  0.3008
   34MOL   H53025676   4.240   5.063   2.265  0.8981  0.5244  0.4388
   34MOL   H53125677   4.237   4.754   2.290 -1.2717  0.1580 -1.7898
   34MOL   H53225678   4.098   4.852   2.240  0.2560  0.9692 -0.4139
   34MOL   H53325679   4.176   4.974   2.461 -1.0960  0.3045  1.1966
   34MOL   C53425680   4.092   4.802   2.538  0.0896  0.4891  0.2616
   34MOL   O53525681   4.057   4.683   2.519 -0.6501 -0.1756  0.4324
   34MOL   C53625682   4.082   4.864   2.677 -0.3319  0.2335 -0.0050
   34MOL   C53725683   3.986   4.812   2.787 -0.0322  0.3037 -0.0582
   34MOL   C53825684   4.029   4.681   2.859  0.0397 -0.3960  0.6297
   34MOL   C53925685   4.161   4.699   2.948  0.3794 -0.0742  0.3470
   34MOL   C54025686   4.287   4.639   2.876  0.6147  0.1506  0.5208
   34MOL   O54125687   4.280   4.518   2.834  0.4677 -0.6410 -0.0828
   34MOL   N54225688   4.391   4.719   2.851 -0.3739 -0.1439  0.0707
   34MOL   C54325689   4.502   4.681   2.753 -0.3079  0.0642 -0.3080
   34MOL   C54425690   4.482   4.712   2.609 -0.1295 -0.1490  0.0108
   34MOL   C54525691   4.612   4.698   2.523  1.0399 -0.4091 -0.5978
   34MOL   C54625692   4.583   4.715   2.372 -0.1211 -0.2119 -0.0545
   34MOL   C54725693   4.705   4.674   2.282 -0.2308  0.5573 -0.4321
   34MOL   C54825694   4.663   4.647   2.133 -0.5590  0.0346  0.7824
   34MOL   N54925695   4.759   4.588   2.043  0.5303  0.2578  0.1671
   34MOL   H55025696   4.180   4.869   2.726 -0.2791  0.4231 -0.1256
   34MOL   H55125697   4.063   4.968   2.649 -0.2380 -0.2140 -1.8219
   34MOL   H55225698   3.963   4.886   2.863 -0.4575  0.9965 -0.8627
   34MOL   H55325699   3.896   4.780   2.736  1.3591  0.1142 -2.4879
   34MOL   H55425700   4.046   4.599   2.790 -0.0761 -0.6479  0.9002
   34MOL   H55525701   3.951   4.652   2.929  0.9724  1.6641  2.5776
   34MOL   H55625702   4.144   4.640   3.037 -0.4218 -1.8556 -0.9628
   34MOL   H55725703   4.176   4.805   2.971 -0.2768  0.3902 -1.2122
   34MOL   H55825704   4.398   4.813   2.886  1.4080  0.1600 -1.0060
   34MOL   H55925705   4.590   4.740   2.778 -0.1990  0.2919 -1.2076
   34MOL   H56025706   4.516   4.575   2.772 -0.8725  0.0785  0.2255
   34MOL   H56125707   4.406   4.640   2.580  0.1523 -0.1869 -0.6318
   34MOL   H56225708   4.433   4.809   2.600 -0.1518  0.3745  4.4652
   34MOL   H56325709   4.646   4.596   2.536  2.8386  0.3412  0.8629
   34MOL   H56425710   4.700   4.748   2.564  1.6674 -0.3244 -2.0350
   34MOL   H56525711   4.499   4.656   2.335 -0.8472  1.4924 -1.1640
   34MOL   H56625712   4.560   4.819   2.350 -1.0454 -0.2820  0.5202
   34MOL   H56725713   4.787   4.747   2.287 -1.5226  2.0073  0.2746
   34MOL   H56825714   4.749   4.582   2.319  0.5315  1.2563  0.4580
   34MOL   H56925715   4.611   4.728   2.083  0.4097  0.4090  0.3755
   34MOL   H57025716   4.587   4.569   2.140 -0.9084  0.2466 -0.5697
   34MOL   H57125717   4.746   4.495   2.006  0.3062  1.3497 -2.5974
   34MOL   C57225718   4.862   4.650   1.989 -0.4777 -0.7131  0.0076
   34MOL   O57325719   4.880   4.769   2.008 -0.9612 -0.1558 -0.0298
   34MOL   C57425720   4.963   4.566   1.906 -0.3633  0.4991 -0.1867
   34MOL   C57525721   4.940   4.575   1.754  0.9079 -0.1583 -0.1521
   34MOL   C57625722   4.797   4.519   1.707 -0.4098 -0.0746  0.0445
   34MOL   C57725723   4.774   4.361   1.700  0.8962 -0.6864  0.1693
   34MOL   C57825724   4.758   4.297   1.834  0.0261 -0.6237  0.1694
   34MOL   O57925725   4.688   4.358   1.915  0.3063 -0.0514 -0.2876
   34MOL   N58025726   4.829   4.184   1.859 -0.1439 -0.0255 -0.1368
   34MOL   C58125727   4.808   4.100   1.978 -0.6793 -0.0463 -0.1214
   34MOL   C58225728   4.697   3.993   1.952  0.4263 -0.5561 -0.2311
   34MOL   C58325729   4.672   3.914   2.082 -0.3478  0.5138 -0.2051
   34MOL   C58425730   4.548   3.817   2.081  0.1424  0.2007 -0.1068
   34MOL   C58525731   4.512   3.757   2.214 -0.3546  0.3370 -0.5998
   34MOL   C58625732   4.408   3.648   2.212  0.3149 -0.1785 -0.6698
   34MOL   N58725733   4.393   3.577   2.340  0.1293 -0.5196  0.0002
   34MOL   H58825734   5.059   4.608   1.934  0.4700 -2.0878  1.0489
   34MOL   H58925735   4.971   4.461   1.937  1.4936  0.6822  0.0195
   34MOL   H59025736   4.951   4.678   1.720 -1.8643 -0.3943 -1.9362
   34MOL   H59125737   5.011   4.515   1.697  1.4170  2.0820 -1.9083
   34MOL   H59225738   4.796   4.554   1.604  0.3893  0.8104  0.3329
   34MOL   H59325739   4.713   4.580   1.742 -1.1189  0.5686 -2.7161
   34MOL   H59425740   4.857   4.313   1.648 -1.0586 -2.0212 -1.7997
   34MOL   H59525741   4.683   4.344   1.642  1.5292 -0.0705 -1.0174
   34MOL   H59625742   4.889   4.145   1.787 -1.8233  0.0644 -1.6282
   34MOL   H59725743   4.904   4.070   2.021  1.7416  1.2963 -4.2964
   34MOL   H59825744   4.769   4.161   2.060  2.6474 -1.0152  2.2930
   34MOL   H59925745   4.608   4.049   1.923 -0.0226  0.0100  2.1332
   34MOL   H60025746   4.734   3.928   1.873 -3.2285 -2.7508 -0.2385
   34MOL   H60125747   4.647   3.987   2.159 -1.1110 -0.5785  0.5929
   34MOL   H60225748   4.757   3.870   2.135 -1.4379  0.9640  1.9915
   34MOL   H60325749   4.451   3.851   2.046 -0.1729 -1.7636 -1.2660
   34MOL   H60425750   4.567   3.736   2.010  2.3706 -1.2485  2.0452
   34MOL   H60525751   4.608   3.718   2.249 -0.2091  0.6096 -0.6955
   34MOL   H60625752   4.492   3.830   2.292  1.9145  1.3806 -0.9568
   34MOL   H60725753   4.420   3.579   2.129  1.6560 -0.3707 -0.3338
   34MOL   H60825754   4.308   3.684   2.189 -0.2497 -1.0566  0.3533
   34MOL   H60925755   4.323   3.613   2.403  1.0848  0.2779  0.6170
   34MOL   C61025756   4.448   3.460   2.372  0.1219 -0.0100 -0.4464
   34MOL   O61125757   4.510   3.405   2.285  0.0433 -0.0479  0.2817
   34MOL   C61225758   4.416   3.399   2.507 -0.5627 -0.0343  0.1960
   34MOL   C61325759   4.394   3.247   2.502 -0.0575 -0.1623 -0.1779
   34MOL   C61425760   4.256   3.196   2.446  0.7334 -0.1135  0.4299
   34MOL   C61525761   4.249   3.042   2.451  0.6169  0.0237  0.4036
   34MOL   C61625762   4.115   2.984   2.391 -0.1348 -0.7650 -0.5600
   34MOL   O61725763   4.009   3.041   2.409 -0.3930  0.0951 -0.1760
   34MOL   N61825764   4.123   2.873   2.323 -0.3634  0.7590  0.0451
   34MOL   C61925765   4.009   2.802   2.258 -0.3259  0.2710  0.5641
   34MOL   C62025766   4.054   2.674   2.186 -0.1231  0.6249 -0.2194
   34MOL   C62125767   3.941   2.584   2.116 -0.8051 -0.5366  0.4455
   34MOL   C62225768   3.836   2.540   2.213 -0.4825  0.2818  0.0708
   34MOL   C62325769   3.885   2.428   2.301 -0.2145 -0.2356 -0.1796
   34MOL   C62425770   3.809   2.410   2.435 -0.1743  0.0483 -0.1822
   34MOL   N62525771   3.859   2.296   2.506 -0.2589 -0.4087 -0.0397
   34MOL   H62625772   4.495   3.413   2.581 -0.6883  1.3019  0.0890
   34MOL   H62725773   4.334   3.458   2.549 -0.7849  0.6033 -1.1228
   34MOL   H62825774   4.484   3.200   2.462  0.1531 -1.4994  1.7641
   34MOL   H62925775   4.415   3.210   2.603  0.8596  1.3119  0.1784
   34MOL   H63025776   4.252   3.222   2.340  2.3246 -1.5624 -0.0074
   34MOL   H63125777   4.177   3.232   2.512 -0.5539  0.0528 -1.1625
   34MOL   H63225778   4.252   3.002   2.552  2.3083 -1.9235 -0.3764
   34MOL   H63325779   4.333   3.002   2.393 -1.7100 -1.3923 -2.1340
   34MOL   H63425780   4.214   2.828   2.318 -0.2211  1.1767 -1.6803
   34MOL   H63525781   3.927   2.783   2.327 -2.3704  0.9625 -1.6316
   34MOL   H63625782   3.971   2.865   2.177  1.5330  1.6082  0.6897
   34MOL   H63725783   4.127   2.705   2.111  0.5675  1.5995  0.8374
   34MOL   H63825784   4.111   2.613   2.256 -0.3877 -1.6909 -1.9587
   34MOL   H63925785   3.991   2.500   2.066 -1.0407 -1.2418  1.3818
   34MOL   H64025786   3.885   2.648   2.048  1.2691 -0.2640 -1.0711
   34MOL   H64125787   3.786   2.618   2.270  2.7729  1.9717  0.7285
   34MOL   H64225788   3.756   2.491   2.158  0.1916 -0.6825 -0.0680
   34MOL   H64325789   3.871   2.338   2.240  0.3200 -0.2249 -0.3237
   34MOL   H64425790   3.989   2.441   2.331 -0.4139  2.4372 -0.5284
   34MOL   H64525791   3.703   2.403   2.408  0.1572  0.9065 -1.7693
   34MOL   H64625792   3.816   2.499   2.497  0.2589 -1.0851  1.4255
   34MOL   H64725793   3.956   2.299   2.531 -0.5655 -0.5266  1.1723
   34MOL   C64825794   3.784   2.213   2.580  0.6912 -0.3449 -0.3514
   34MOL   O64925795   3.663   2.226   2.576 -0.2306 -0.5719  0.3272
   34MOL   C65025796   3.855   2.103   2.667  0.2335  0.5208  0.2373
   34MOL   C65125797   3.845   1.965   2.607 -0.3261 -0.1529  0.3236
   34MOL   C65225798   3.946   1.917   2.499  0.0933  0.3089  0.0142
   34MOL   C65325799   3.948   1.990   2.359  0.2511  1.1461 -0.6222
   34MOL   C65425800   3.810   1.974   2.284  0.1768 -0.5421  0.2787
   34MOL   O65525801   3.791   1.863   2.230 -0.0852 -0.2307  0.0477
   34MOL   N65625802   3.737   2.086   2.286 -0.2481 -0.4484  0.2078
   34MOL   C65725803   3.612   2.100   2.219  0.0096 -0.3567 -0.4745
   34MOL   C65825804   3.587   2.246   2.180  0.0442 -0.2496 -0.0389
   34MOL   C65925805   3.473   2.270   2.092  0.0798 -0.4877 -0.0665
   34MOL   C66025806   3.473   2.409   2.038 -0.4523  0.0797 -0.2375
   34MOL   C66125807   3.404   2.512   2.131 -0.1807 -0.2484  0.0233
   34MOL   C66225808   3.469   2.648   2.114 -0.4460 -0.6782 -0.0887
   34MOL   N66325809   3.397   2.756   2.179  0.4460  0.3393 -0.1464
   34MOL   H66425810   3.957   2.140   2.673 -0.1918  1.7989 -0.1930
   34MOL   H66525811   3.825   2.111   2.772 -2.0521 -0.5547 -0.3117
   34MOL   H66625812   3.860   1.892   2.687 -1.4841 -2.6543 -1.6499
   34MOL   H66725813   3.742   1.941   2.582 -0.2392 -1.1422  0.8826
   34MOL   H66825814   3.936   1.811   2.473  1.2246  0.6046 -1.7526
   34MOL   H66925815   4.046   1.935   2.536  1.1105 -1.1664 -1.9203
   34MOL   H67025816   4.026   1.959   2.289 -0.4628 -2.6503  0.1430
   34MOL   H67125817   3.960   2.098   2.369 -0.6566  1.2227 -0.3629
   34MOL   H67225818   3.766   2.160   2.348  0.0798  0.2156 -0.7248
   34MOL   H67325819   3.608   2.031   2.134  1.1343  0.5291 -1.2611
   34MOL   H67425820   3.535   2.057   2.283  1.1398 -1.1979  0.3534
   34MOL   H67525821   3.591   2.313   2.266 -0.8864 -2.5182  1.8282
   34MOL   H67625822   3.678   2.272   2.126  1.2203 -2.5515  0.7451
   34MOL   H67725823   3.379   2.252   2.143  1.0681 -0.8847  1.6406
   34MOL   H67825824   3.469   2.194   2.013 -1.0231 -0.8967  0.3786
   34MOL   H67925825   3.571   2.441   2.000  0.0088 -0.2929  0.6309
   34MOL   H68025826   3.413   2.409   1.947  0.2036 -0.1132 -0.6815
   34MOL   H68125827   3.301   2.514   2.096 -0.2756 -3.1381  0.0603
   34MOL   H68225828   3.411   2.474   2.233 -1.8377 -2.1190 -0.5317
   34MOL   H68325829   3.468   2.681   2.010 -4.6905  2.8706  0.9434
   34MOL   H68425830   3.575   2.647   2.138 -0.2198  1.4561 -0.8741
   34MOL   H68525831   3.297   2.755   2.163  0.2542  1.8180  0.9045
   34MOL   C68625832   3.436   2.821   2.288 -0.5897  0.8135 -0.4011
   34MOL   O68725833   3.551   2.820   2.335  0.1453  0.1503  0.1106
   34MOL   C68825834   3.323   2.897   2.356 -0.8428  0.1268 -0.1771
   34MOL   C68925835   3.373   3.038   2.393 -0.1860 -0.3769  0.1091
   34MOL   C69025836   3.285   3.124   2.492  0.0593  0.4476 -0.2906
   34MOL   C69125837   3.359   3.248   2.537 -0.0455 -0.3077 -0.3529
   34MOL   C69225838   3.344   3.359   2.432  0.3195 -0.2219 -0.5242
   34MOL   O69325839   3.241   3.369   2.367 -0.1433  0.2144 -0.6952
   34MOL   N69425840   3.450   3.439   2.427 -0.1275  0.2739  0.6827
   34MOL   C69525841   3.465   3.558   2.339  0.3660 -0.3664 -0.3065
   34MOL   C69625842   3.532   3.523   2.198  0.8742 -0.0953 -0.2301
   34MOL   C69725843   3.533   3.644   2.108 -0.4061  0.5664 -0.5618
   34MOL   C69825844   3.571   3.600   1.970  0.0549 -0.1873 -0.1168
   34MOL   C69925845   3.454   3.585   1.872 -0.0972  0.3263  0.4450
   34MOL   C70025846   3.506   3.526   1.734  0.2730  0.0822  0.6205
   34MOL   N70125847   3.404   3.543   1.629 -0.0168  0.2575 -0.3325
   34MOL   H70225848   3.237   2.913   2.292  0.9269  0.1690 -2.6087
   34MOL   H70325849   3.298   2.852   2.452 -1.4128  1.0419  0.1018
   34MOL   H70425850   3.470   3.024   2.440  0.1629 -1.1027 -0.8206
   34MOL   H70525851   3.397   3.094   2.302 -0.2349 -1.2487 -0.4392
   34MOL   H70625852   3.266   3.056   2.575 -0.9806  1.7152  0.5264
   34MOL   H70725853   3.188   3.145   2.447  0.8616 -1.0699 -2.8048
   34MOL   H70825854   3.466   3.245   2.558  0.0881 -0.6060 -1.0517
   34MOL   H70925855   3.313   3.290   2.626 -1.6167 -2.5218 -0.0712
   34MOL   H71025856   3.526   3.421   2.492 -0.1827 -1.9704  0.1570
   34MOL   H71125857   3.365   3.600   2.324  1.0016  0.2481 -3.1376
   34MOL   H71225858   3.513   3.643   2.387 -0.8858  0.0331  0.2599
   34MOL   H71325859   3.631   3.480   2.213  1.3485  0.5254 -1.5355
   34MOL   H71425860   3.473   3.448   2.145  1.4671  0.0864 -1.1538
   34MOL   H71525861   3.623   3.696   2.140  0.6559 -0.9850 -0.9302
   34MOL   H71625862   3.456   3.719   2.121 -1.1071 -0.2704  0.1672
   34MOL   H71725863   3.634   3.674   1.921  0.0866  1.2453  2.0372
   34MOL   H71825864   3.637   3.513   1.979 -0.3866 -0.4224  0.8425
   34MOL   H71925865   3.394   3.504   1.915 -0.9777 -0.2720 -1.8472
   34MOL   H72025866   3.399   3.677   1.857  0.0319  0.3300 -0.0146
   34MOL   H72125867   3.531   3.420   1.746  3.2271  0.6091 -0.5379
   34MOL   H72225868   3.598   3.583   1.726  1.4362 -1.3567  3.0118
   34MOL   H72325869   3.364   3.467   1.576 -1.0806  0.5958 -0.0235
   34MOL   C72425870   3.377   3.660   1.572 -0.4050  0.1979  0.2194
   34MOL   O72525871   3.433   3.759   1.612  0.2516 -0.2068  0.2356
   34MOL   C72625872   3.305   3.656   1.433  0.0998 -0.3426 -0.2940
   34MOL   C72725873   3.378   3.733   1.326 -0.1852 -0.2262  0.4047
   34MOL   C72825874   3.491   3.662   1.258 -0.0638 -0.0996 -0.3251
   34MOL   C72925875   3.574   3.749   1.156  0.5498 -0.2688  0.0485
   34MOL   C73025876   3.665   3.860   1.223 -0.1991 -0.4391 -0.2258
   34MOL   O73125877   3.699   3.854   1.339 -0.2681  0.4954  0.3311
   34MOL   N73225878   3.675   3.967   1.136  0.1773  0.4245  0.6523
   34MOL   C73325879   3.719   4.095   1.161  0.3343 -0.1966 -0.8523
   34MOL   C73425880   3.727   4.183   1.040  0.2404  0.0836  0.8123
   34MOL   C73525881   3.787   4.320   1.081  0.2049 -0.5740 -0.3020
   34MOL   C73625882   3.786   4.421   0.968 -0.2661 -0.1462  0.1996
   34MOL   C73725883   3.643   4.472   0.933  0.0682  0.1063 -0.2359
   34MOL   C73825884   3.593   4.569   1.052 -0.7195  0.5405 -0.2036
   34MOL   N73925885   3.456   4.619   1.031 -0.0421  0.2063 -0.0381
   34MOL   H74025886   3.278   3.556   1.399  0.5711 -0.8201  0.7120
   34MOL   H74125887   3.208   3.699   1.457 -0.1129 -1.2998  0.5948
   34MOL   H74225888   3.295   3.761   1.260 -1.1123 -1.3698  1.0672
   34MOL   H74325889   3.427   3.824   1.360  2.2433 -1.1680 -0.4531
   34MOL   H74425890   3.445   3.572   1.216  1.5486 -0.6852 -0.8642
   34MOL   H74525891   3.556   3.631   1.339  1.3195  1.4840 -0.7906
   34MOL   H74625892   3.500   3.799   1.094 -0.9163 -2.3883  0.0348
   34MOL   H74725893   3.631   3.682   1.091  0.7328  1.0179 -1.1456
   34MOL   H74825894   3.632   3.947   1.047 -0.4886  0.3886  0.9706
   34MOL   H74925895   3.664   4.144   1.241  2.5525  0.2026  0.4935
   34MOL   H75025896   3.817   4.081   1.206  0.0414  1.7475  0.4646
   34MOL   H75125897   3.787   4.135   0.962  1.0587 -1.2067  2.2193
   34MOL   H75225898   3.630   4.205   0.996  1.4536 -1.1840 -2.7123
   34MOL   H75325899   3.892   4.314   1.108  0.1413 -2.9045 -0.4851
   34MOL   H75425900   3.734   4.378   1.157  1.5230 -1.3480  1.2542
   34MOL   H75525901   3.839   4.511   0.997 -1.6719  0.0880  2.1630
   34MOL   H75625902   3.843   4.380   0.886 -0.3496 -0.2306  0.1833
   34MOL   H75725903   3.630   4.532   0.843 -0.9644  0.3976  0.1037
   34MOL   H75825904   3.575   4.388   0.917 -0.5009  0.4811  0.1989
   34MOL   H75925905   3.656   4.657   1.061 -1.0786  0.6539  1.3626
   34MOL   H76025906   3.591   4.531   1.154 -1.5209 -2.6408 -1.3154
   34MOL   H76125907   3.450   4.640   0.933  0.9031 -1.4930 -0.4942
   34MOL   H76225908   3.394   4.539   1.034  1.4522 -0.9516  0.7915
   35MOL     C125909   7.276   3.862   0.152  0.3684 -0.8838  0.6786
   35MOL     O225910   7.334   3.967   0.144  0.1691  0.1620  0.0027
   35MOL     C325911   7.251   3.779   0.023  0.1848 -0.0006  0.0153
   35MOL     C425912   7.170   3.652   0.024  0.2515 -0.4451  0.0415
   35MOL     C525913   7.201   3.546   0.127  0.0968  0.2717 -0.1172
   35MOL     C625914   7.351   3.502   0.144  0.0328  0.5918 -0.5793
   35MOL     C725915   7.373   3.402   0.257  0.3825  0.6273 -0.3507
   35MOL     O825916   7.276   3.345   0.314 -0.5739 -0.2151 -0.9472
   35MOL     N925917   7.497   3.387   0.290 -0.4581  0.0250  0.6189
   35MOL    C1025918   7.546   3.296   0.393  0.1449  0.3566  0.0691
   35MOL    C1125919   7.548   3.153   0.339 -0.1865 -0.4322 -0.5673
   35MOL    C1225920   7.597   3.046   0.448  0.2069  0.3217  0.0779
   35MOL    C1325921   0.027   2.980   0.439  0.2575 -0.2100 -0.4440
   35MOL    C1425922   0.043   2.878   0.557 -0.5866 -1.0497  0.5042
   35MOL    C1525923   0.176   2.803   0.541  0.7150  0.7026  0.0948
   35MOL    N1625924   0.297   2.884   0.527 -0.1734  0.0337 -0.0974
   35MOL    H1725925   7.193   3.844   7.665  0.8881 -1.2850 -1.8712
   35MOL    H1825926   7.348   3.752   7.690  0.5132 -0.8008  1.2861
   35MOL    H1925927   7.069   3.691   0.038  0.6458  0.7121 -0.3190
   35MOL    H2025928   7.170   3.611   7.631  1.2442  1.2868 -0.6754
   35MOL    H2125929   7.157   3.451   0.096 -0.2274  0.6423 -0.7932
   35MOL    H2225930   7.158   3.578   0.222  0.2330 -0.8510  0.3270
   35MOL    H2325931   7.423   3.583   0.135 -0.2990  0.8144 -1.2896
   35MOL    H2425932   7.379   3.451   0.051  3.2822  3.9331 -1.5401
   35MOL    H2525933   7.560   3.443   0.236 -0.5659 -0.7073 -0.2870
   35MOL    H2625934   7.645   3.325   0.429  0.1819  0.2247  0.0779
   35MOL    H2725935   7.481   3.298   0.481 -1.3103 -1.9077 -0.9086
   35MOL    H2825936   7.444   3.133   0.312 -0.8779  0.9223  1.0238
   35MOL    H2925937   7.611   3.133   0.253  0.7609  0.0473  0.0153
   35MOL    H3025938   7.512   2.978   0.443 -3.2488  4.4913  0.2437
   35MOL    H3125939   7.589   3.084   0.549  0.8490 -0.5006  0.4473
   35MOL    H3225940   0.035   2.921   0.348 -0.5465 -0.6719 -0.2197
   35MOL    H3325941   0.099   3.061   0.447  0.9842 -0.7021 -1.9319
   35MOL    H3425942   0.048   2.946   0.642 -1.1235  3.2326 -2.7217
   35MOL    H3525943   7.674   2.803   0.571 -0.3188 -1.3888  0.1920
   35MOL    H3625944   0.171   2.746   0.448  0.0173  1.1918 -0.1721
   35MOL    H3725945   0.184   2.718   0.609  2.6016  0.7950  0.0213
   35MOL    H3825946   0.295   2.960   0.461  1.2151  0.4141  0.2915
   35MOL    H3925947   7.248   3.812   0.244  0.9304 -0.6132  1.0007
   35MOL    C4025948   0.408   2.875   0.603 -0.5343  0.1301 -0.0704
   35MOL    O4125949   0.437   2.763   0.652  0.4245 -0.0871 -0.2891
   35MOL    C4225950   0.502   2.996   0.593  0.2047  0.5900 -0.2559
   35MOL    C4325951   0.477   3.099   0.702  0.2340  0.2147 -0.3743
   35MOL    C4425952   0.509   3.053   0.849  0.1780  0.1009  0.6395
   35MOL    C4525953   0.469   3.161   0.941  0.0118  0.0030  0.0135
   35MOL    C4625954   0.502   3.121   1.085 -0.9815 -0.9457  0.2668
   35MOL    O4725955   0.420   3.079   1.168  0.2483  0.5914  0.4501
   35MOL    N4825956   0.631   3.146   1.125  0.3036 -0.2422  0.3685
   35MOL    C4925957   0.704   3.087   1.237 -0.1166 -0.1958 -0.0391
   35MOL    C5025958   0.839   3.045   1.188 -0.4849  0.2751  0.6498
   35MOL    C5125959   0.922   2.981   1.290  0.1442 -0.0727  0.9442
   35MOL    C5225960   1.067   2.961   1.243 -0.4298  0.3747 -0.3689
   35MOL    C5325961   1.149   2.856   1.305  0.5475 -0.4817 -0.6186
   35MOL    C5425962   1.153   2.871   1.460 -0.1320  0.0704  0.4799
   35MOL    N5525963   1.234   2.780   1.529 -0.4433 -0.7280  0.0099
   35MOL    H5625964   0.604   2.957   0.595  0.5593  1.4448 -1.0741
   35MOL    H5725965   0.499   3.048   0.497  1.0650  2.4190  0.6850
   35MOL    H5825966   0.538   3.188   0.688 -1.2078  1.3152  0.1463
   35MOL    H5925967   0.368   3.107   0.701  0.1669 -0.3745  0.8046
   35MOL    H6025968   0.616   3.033   0.856 -0.2534 -2.3960  0.5104
   35MOL    H6125969   0.457   2.961   0.875 -0.4596  0.5663  1.0223
   35MOL    H6225970   0.360   3.165   0.942  0.0253  0.4905  1.4301
   35MOL    H6325971   0.512   3.259   0.923  1.1680 -0.4735  0.1484
   35MOL    H6425972   0.688   3.180   1.049 -0.2635 -2.6845 -1.2347
   35MOL    H6525973   0.732   3.166   1.307  0.7118 -1.5749  1.2109
   35MOL    H6625974   0.643   3.018   1.295 -0.4416  0.4730  0.4290
   35MOL    H6725975   0.819   2.988   1.098  0.5423 -0.6154  0.9753
   35MOL    H6825976   0.893   3.134   1.153  0.7200 -0.5496  0.3996
   35MOL    H6925977   0.877   2.885   1.316  0.6571 -0.4762  0.3590
   35MOL    H7025978   0.930   3.044   1.378 -0.4023  0.1814  0.8183
   35MOL    H7125979   1.064   2.943   1.136  0.5986  0.7129 -0.4661
   35MOL    H7225980   1.110   3.059   1.264  0.4878  0.1675 -1.2503
   35MOL    H7325981   1.109   2.759   1.277  3.0044 -1.3488 -1.2775
   35MOL    H7425982   1.248   2.864   1.259  1.0860 -1.1449  0.4091
   35MOL    H7525983   1.054   2.845   1.499  0.3389 -0.0161  1.6145
   35MOL    H7625984   1.165   2.978   1.478 -0.4204  0.3377 -0.8394
   35MOL    H7725985   1.271   2.700   1.480  1.9713  0.5165 -0.2421
   35MOL    C7825986   1.275   2.808   1.653  0.6496  0.2271 -0.6411
   35MOL    O7925987   1.220   2.891   1.723 -0.2023  0.2626  0.1256
   35MOL    C8025988   1.397   2.729   1.715  0.2993  0.2499 -0.2222
   35MOL    C8125989   1.501   2.666   1.616  0.0870  0.1851 -0.3476
   35MOL    C8225990   1.567   2.759   1.506 -0.5054  0.1211 -0.1405
   35MOL    C8325991   1.699   2.704   1.446  0.3543 -0.2094 -0.1681
   35MOL    C8425992   1.824   2.785   1.454 -0.0262 -0.4266 -0.4220
   35MOL    O8525993   1.827   2.911   1.469  0.5183  0.2231 -0.1641
   35MOL    N8625994   1.932   2.709   1.467  0.3272  0.3642  0.3459
   35MOL    C8725995   2.068   2.754   1.494  0.1646  0.1388 -0.5275
   35MOL    C8825996   2.126   2.847   1.391  0.5057  0.1589  0.1659
   35MOL    C8925997   2.275   2.863   1.407  0.0685 -0.4027  0.2247
   35MOL    C9025998   2.328   2.971   1.504  0.1052  0.1459  0.0946
   35MOL    C9125999   2.321   3.120   1.461  0.3429  0.4442  0.0679
   35MOL    C9226000   2.182   3.197   1.448 -0.0506  0.0108 -0.5109
   35MOL    N9326001   2.204   3.342   1.423  0.1358 -0.6440 -0.6549
   35MOL    H9426002   1.451   2.792   1.786  0.0553 -0.0139  0.1962
   35MOL    H9526003   1.370   2.650   1.785  1.7730  0.7029  0.8899
   35MOL    H9626004   1.577   2.623   1.682 -1.8301  0.3504  2.0364
   35MOL    H9726005   1.447   2.582   1.572 -1.6443  0.9530  0.2730
   35MOL    H9826006   1.583   2.860   1.546  0.3714  0.7048 -1.9237
   35MOL    H9926007   1.493   2.774   1.427  0.1690 -2.5892 -1.3346
   35MOL   H10026008   1.674   2.671   1.345 -0.2948  0.8268 -0.3518
   35MOL   H10126009   1.711   2.609   1.498  1.7981  0.7041  1.2193
   35MOL   H10226010   1.916   2.609   1.468  1.0571  0.2117 -1.2453
   35MOL   H10326011   2.050   2.806   1.588 -1.0653  0.8461 -1.1416
   35MOL   H10426012   2.129   2.664   1.504 -0.9332 -0.5118  0.5264
   35MOL   H10526013   2.091   2.794   1.302 -1.1506  1.7741 -0.1929
   35MOL   H10626014   2.078   2.942   1.365  2.2001  1.2874  1.0563
   35MOL   H10726015   2.323   2.882   1.310 -0.8483 -1.8892 -0.5323
   35MOL   H10826016   2.326   2.774   1.445 -1.3406 -2.6996 -2.9756
   35MOL   H10926017   2.269   2.970   1.595  1.8030 -0.1559  1.2127
   35MOL   H11026018   2.430   2.941   1.528 -0.5153 -1.8365  0.3368
   35MOL   H11126019   2.389   3.174   1.527  3.6378 -2.3059 -0.9225
   35MOL   H11226020   2.362   3.131   1.361 -1.1542  1.9784 -0.4130
   35MOL   H11326021   2.129   3.190   1.543  2.6662  1.1519  1.1464
   35MOL   H11426022   2.118   3.147   1.375 -3.0726 -0.3085  2.2571
   35MOL   H11526023   2.233   3.368   1.330  2.0688 -1.3663 -0.2701
   35MOL   C11626024   2.176   3.451   1.497 -0.7513 -1.0152  0.1376
   35MOL   O11726025   2.121   3.441   1.602 -0.1676 -0.0089 -0.1238
   35MOL   C11826026   2.210   3.590   1.444 -0.0690 -0.2369 -0.0233
   35MOL   C11926027   2.324   3.658   1.514  0.9455 -0.3252 -0.1568
   35MOL   C12026028   2.457   3.589   1.484 -0.5263  0.6888  0.1707
   35MOL   C12126029   2.581   3.650   1.554 -0.6497  0.1834 -0.4413
   35MOL   C12226030   2.580   3.645   1.709 -0.0153 -0.2048  0.1756
   35MOL   O12326031   2.567   3.541   1.776  0.1029  0.2138  0.0182
   35MOL   N12426032   2.612   3.766   1.761 -0.6308  0.0689  0.1785
   35MOL   C12526033   2.655   3.783   1.900  0.2506  0.0057 -0.1024
   35MOL   C12626034   2.566   3.885   1.970 -0.1192 -0.1951 -0.5976
   35MOL   C12726035   2.609   3.892   2.120  0.3398  0.2811 -0.6843
   35MOL   C12826036   2.508   3.965   2.222 -1.2577  0.2516 -0.2677
   35MOL   C12926037   2.364   3.905   2.227  0.2741 -0.1547  0.0938
   35MOL   C13026038   2.268   3.960   2.330 -0.2812  0.3903  0.1324
   35MOL   N13126039   2.135   3.902   2.318 -0.3266  0.1193 -0.0916
   35MOL   H13226040   2.200   3.591   1.336 -0.3660 -0.9931 -0.0077
   35MOL   H13326041   2.122   3.645   1.478  0.7297 -0.0656  1.8048
   35MOL   H13426042   2.328   3.765   1.497  0.0294 -0.1270  0.8592
   35MOL   H13526043   2.309   3.655   1.621 -0.2317  0.4729 -0.2963
   35MOL   H13626044   2.457   3.616   1.379  0.5841  0.2800  0.0508
   35MOL   H13726045   2.455   3.480   1.492 -1.2597  0.7274  0.5825
   35MOL   H13826046   2.592   3.752   1.517 -1.7902  0.3188 -0.4274
   35MOL   H13926047   2.665   3.597   1.508 -0.4731  1.5887 -1.7591
   35MOL   H14026048   2.616   3.850   1.704  0.5664 -0.7212 -0.9141
   35MOL   H14126049   2.658   3.695   1.965  0.7440  0.9356  1.1804
   35MOL   H14226050   2.753   3.828   1.881 -0.0490  1.1188  0.9078
   35MOL   H14326051   2.553   3.982   1.922 -0.8023  1.2968  2.4648
   35MOL   H14426052   2.462   3.854   1.964 -0.4037  0.6785 -0.3057
   35MOL   H14526053   2.698   3.956   2.120 -1.4548  2.9253  1.5791
   35MOL   H14626054   2.640   3.797   2.161  1.2892  1.4536  1.3852
   35MOL   H14726055   2.558   3.965   2.319 -1.8918 -0.5039  0.0614
   35MOL   H14826056   2.506   4.067   2.183  0.0944  0.4343  0.1077
   35MOL   H14926057   2.328   3.908   2.124  0.4285  3.1864  0.0741
   35MOL   H15026058   2.378   3.800   2.252 -0.9162 -0.5199 -0.7469
   35MOL   H15126059   2.255   4.068   2.326 -0.6044  0.3248 -0.8328
   35MOL   H15226060   2.310   3.935   2.427 -0.2149 -0.6989 -0.1670
   35MOL   H15326061   2.114   3.869   2.224 -2.2567  0.3891  0.2294
   35MOL   C15426062   2.034   3.918   2.406 -0.0958 -0.0014  0.2345
   35MOL   O15526063   2.041   3.967   2.519  0.0546 -0.0773 -0.0060
   35MOL   C15626064   1.901   3.863   2.354  0.4589  0.7366  0.2330
   35MOL   C15726065   1.813   3.797   2.461  0.2178  0.4594 -0.5357
   35MOL   C15826066   1.686   3.708   2.433  0.1386  0.1384 -0.3082
   35MOL   C15926067   1.571   3.774   2.350  0.5248 -0.9595 -0.3084
   35MOL   C16026068   1.512   3.897   2.422 -0.7492  0.6273 -1.2184
   35MOL   O16126069   1.439   3.880   2.524  0.4644 -0.1287  0.3550
   35MOL   N16226070   1.539   4.014   2.363 -0.4999  0.3708  0.2793
   35MOL   C16326071   1.478   4.132   2.407  0.1934  0.2131 -0.0630
   35MOL   C16426072   1.570   4.226   2.494  0.5607 -0.2790 -0.0661
   35MOL   C16526073   1.614   4.152   2.625  0.5967  0.3512 -0.7680
   35MOL   C16626074   1.708   4.234   2.711 -0.5370  0.4754 -0.7720
   35MOL   C16726075   1.770   4.158   2.828  0.2880 -0.3241 -0.1216
   35MOL   C16826076   1.834   4.256   2.931  0.3670  0.4205 -0.2697
   35MOL   N16926077   1.882   4.187   3.046 -0.2518  0.5618 -0.4324
   35MOL   H17026078   1.846   3.944   2.306  0.1591  0.2696 -0.2238
   35MOL   H17126079   1.928   3.791   2.276 -2.5267  2.0075 -2.0989
   35MOL   H17226080   1.867   3.722   2.518 -1.1595 -0.1661 -0.0416
   35MOL   H17326081   1.774   3.878   2.522  2.0249  1.4475 -0.6529
   35MOL   H17426082   1.641   3.672   2.525 -0.2585  1.0646 -0.1357
   35MOL   H17526083   1.726   3.627   2.371 -0.5340 -0.4816  0.0632
   35MOL   H17626084   1.509   3.687   2.332  1.2714 -1.4932 -0.2961
   35MOL   H17726085   1.595   3.813   2.251 -1.7180  0.7015 -0.2567
   35MOL   H17826086   1.600   4.022   2.283  0.7201  2.5071  1.3802
   35MOL   H17926087   1.459   4.195   2.320 -1.0334 -0.0977 -0.0384
   35MOL   H18026088   1.384   4.106   2.456  0.7615  0.0419  0.9504
   35MOL   H18126089   1.655   4.262   2.436  0.9380  0.4414  0.9412
   35MOL   H18226090   1.511   4.312   2.525 -0.7161 -1.0411 -0.3306
   35MOL   H18326091   1.667   4.064   2.589  0.4763  0.0638 -0.2503
   35MOL   H18426092   1.526   4.116   2.678  1.2952  0.2438  0.3318
   35MOL   H18526093   1.798   4.273   2.665  2.1373 -1.1352  2.8418
   35MOL   H18626094   1.648   4.321   2.737 -0.3818  0.9136 -1.8510
   35MOL   H18726095   1.689   4.099   2.873  0.8280 -0.6236  0.4714
   35MOL   H18826096   1.851   4.095   2.791  0.1492 -1.3270  1.2312
   35MOL   H18926097   1.766   4.329   2.974  1.3459  0.0941  1.9274
   35MOL   H19026098   1.913   4.314   2.885 -0.2512  1.1882 -0.3693
   35MOL   H19126099   1.865   4.087   3.051  0.1965  0.3547 -2.4807
   35MOL   C19226100   1.950   4.251   3.143  0.0659  0.2970 -1.1138
   35MOL   O19326101   1.978   4.370   3.137  0.0810 -0.2986  0.2815
   35MOL   C19426102   1.984   4.173   3.277 -0.1632  0.0888 -0.4274
   35MOL   C19526103   2.137   4.150   3.289  0.3049 -0.1111  0.5625
   35MOL   C19626104   2.204   4.066   3.176 -0.5683 -0.0146  0.2442
   35MOL   C19726105   2.294   3.955   3.228 -0.4179 -0.2259  0.0934
   35MOL   C19826106   2.213   3.830   3.250 -0.0780  0.2171 -0.0974
   35MOL   O19926107   2.108   3.834   3.313 -0.2093 -0.2031  0.2193
   35MOL   N20026108   2.269   3.719   3.205  0.3278 -0.0569 -0.0902
   35MOL   C20126109   2.198   3.591   3.191  0.2331 -0.0926 -0.6444
   35MOL   C20226110   2.263   3.472   3.262 -0.3827  0.7623  0.3788
   35MOL   C20326111   2.159   3.356   3.264 -0.3151  0.7280  0.4158
   35MOL   C20426112   2.214   3.213   3.293  0.0032  0.6246  0.1100
   35MOL   C20526113   2.312   3.208   3.412  0.0467 -0.2457  0.1518
   35MOL   C20626114   2.376   3.065   3.439 -0.2972 -0.1071  0.5030
   35MOL   N20726115   2.454   3.074   3.560 -0.7176 -0.5917 -0.0449
   35MOL   H20826116   1.964   4.237   3.362  1.6454 -1.8369  1.5104
   35MOL   H20926117   1.934   4.078   3.297  1.1495 -0.3683  0.7177
   35MOL   H21026118   2.179   4.248   3.312  0.8202 -0.2405  0.1640
   35MOL   H21126119   2.146   4.109   3.390 -1.2074  0.6974  1.0461
   35MOL   H21226120   2.256   4.128   3.103 -0.1465 -0.7503 -0.0848
   35MOL   H21326121   2.124   4.023   3.116  0.2768 -1.0287 -0.1574
   35MOL   H21426122   2.340   3.997   3.318  0.6261 -0.1473 -0.4689
   35MOL   H21526123   2.372   3.929   3.158 -1.3327 -0.3637 -0.8827
   35MOL   H21626124   2.363   3.729   3.170  0.0981  3.9153  0.2602
   35MOL   H21726125   2.104   3.598   3.246  0.8472 -0.3621  0.4499
   35MOL   H21826126   2.187   3.560   3.087 -0.0878  0.7721 -0.8712
   35MOL   H21926127   2.350   3.457   3.199 -1.5441  1.4592 -1.4199
   35MOL   H22026128   2.285   3.491   3.367 -1.0523  0.3252  0.6045
   35MOL   H22126129   2.108   3.354   3.168 -1.5136 -1.2776  1.0605
   35MOL   H22226130   2.086   3.378   3.341  2.1301  1.7295  2.5261
   35MOL   H22326131   2.132   3.142   3.308  0.0116  0.4834 -0.5114
   35MOL   H22426132   2.278   3.189   3.209  2.4535  0.8128  1.8664
   35MOL   H22526133   2.394   3.276   3.390  0.5198 -0.7764  0.2393
   35MOL   H22626134   2.268   3.254   3.500 -4.2841 -0.0679 -1.9527
   35MOL   H22726135   2.439   3.034   3.356 -0.6181  1.1108 -0.2086
   35MOL   H22826136   2.298   2.989   3.445 -0.3570  0.0819  2.3940
   35MOL   H22926137   2.554   3.059   3.552 -0.3935  2.2273 -2.0170
   35MOL   C23026138   2.401   3.090   3.678  0.5634  0.2243  0.1028
   35MOL   O23126139   2.281   3.108   3.689  0.0461 -0.5793  0.1955
   35MOL   C23226140   2.490   3.086   3.803  0.3440 -1.5007  0.7135
   35MOL   C23326141   2.477   3.196   3.908 -0.3344 -0.9087  0.1923
   35MOL   C23426142   2.462   3.340   3.863  0.5923 -0.7800 -0.1393
   35MOL   C23526143   2.584   3.399   3.784  0.4400  0.5049 -0.9257
   35MOL   C23626144   2.716   3.412   3.857  0.9416 -0.0984  0.0787
   35MOL   O23726145   2.718   3.401   3.981 -0.6706 -0.0340 -0.0315
   35MOL   N23826146   2.823   3.440   3.783 -0.0979 -0.7598 -0.2307
   35MOL   C23926147   2.956   3.454   3.835 -0.2648 -0.1658 -0.2611
   35MOL   C24026148   2.984   3.603   3.857  0.1771  0.1982  0.7326
   35MOL   C24126149   3.127   3.628   3.902  0.2842  0.0899 -0.2497
   35MOL   C24226150   3.172   3.564   4.034  0.8531 -0.1671  0.6689
   35MOL   C24326151   3.323   3.576   4.059 -0.6078  0.4618  0.1559
   35MOL   C24426152   3.356   3.524   4.201  0.4424  0.1594 -0.0099
   35MOL   N24526153   3.496   3.509   4.212 -0.3178  0.0289 -0.2706
   35MOL   H24626154   2.467   2.991   3.853 -1.8884 -1.7294 -0.6575
   35MOL   H24726155   2.590   3.075   3.762  0.5772  1.6878  0.3291
   35MOL   H24826156   2.389   3.188   3.971 -0.1463 -1.1878  0.4210
   35MOL   H24926157   2.559   3.193   3.980  0.2201  0.4623 -0.3579
   35MOL   H25026158   2.452   3.405   3.950  0.4586 -0.5768 -0.3047
   35MOL   H25126159   2.381   3.364   3.794  0.3707 -0.5917  0.1860
   35MOL   H25226160   2.568   3.506   3.767 -1.6017  0.3661 -0.0116
   35MOL   H25326161   2.585   3.357   3.684  1.0515  1.4789 -1.3340
   35MOL   H25426162   2.815   3.450   3.683  2.0242 -1.2294 -0.4796
   35MOL   H25526163   2.964   3.395   3.926 -2.2738  0.1922  0.1905
   35MOL   H25626164   3.022   3.411   3.760 -0.6714 -2.4757  0.6823
   35MOL   H25726165   2.969   3.661   3.766 -0.4200 -0.6432  0.2919
   35MOL   H25826166   2.909   3.640   3.926  0.7479  1.8106  0.5130
   35MOL   H25926167   3.152   3.734   3.893  0.4552 -0.1199 -2.6306
   35MOL   H26026168   3.186   3.581   3.824 -0.6907 -0.0040 -0.9350
   35MOL   H26126169   3.122   3.602   4.123 -1.9225 -0.2462 -0.7745
   35MOL   H26226170   3.133   3.462   4.036 -1.6332  0.7527  1.1584
   35MOL   H26326171   3.381   3.517   3.988 -1.4041 -0.8387  0.5829
   35MOL   H26426172   3.348   3.681   4.043 -2.8795  0.8718 -0.9302
   35MOL   H26526173   3.308   3.427   4.212  1.6281 -0.2743  1.6057
   35MOL   H26626174   3.330   3.592   4.282  0.5974  0.4384 -0.1930
   35MOL   H26726175   3.555   3.563   4.150  0.5596 -1.0570 -0.3900
   35MOL   C26826176   3.556   3.422   4.291  0.1635 -0.8019 -0.1242
   35MOL   O26926177   3.494   3.344   4.361 -0.1696  0.0544  0.5127
   35MOL   C27026178   3.713   3.422   4.286 -0.2530  0.4161 -0.1030
   35MOL   C27126179   3.787   3.462   4.412 -0.7949  0.3583 -0.0681
   35MOL   C27226180   3.931   3.408   4.399  0.0854 -0.8482  0.2667
   35MOL   C27326181   4.007   3.429   4.520 -0.7229  0.2191 -0.2390
   35MOL   C27426182   4.065   3.566   4.541 -0.1214 -0.0522  0.2190
   35MOL   O27526183   4.124   3.611   4.448 -0.4614  0.0360 -0.4569
   35MOL   N27626184   4.059   3.619   4.663  0.0935 -0.0854  0.6648
   35MOL   C27726185   4.123   3.745   4.698 -0.4615 -0.1406  1.0050
   35MOL   C27826186   4.274   3.733   4.702 -0.3482  0.5689  0.5048
   35MOL   C27926187   4.333   3.870   4.729  0.1200  0.3223 -0.2790
   35MOL   C28026188   4.487   3.872   4.739  0.0973  0.4333 -0.6043
   35MOL   C28126189   4.536   3.785   4.851  0.0954 -0.2088 -0.3169
   35MOL   C28226190   4.689   3.795   4.893  0.2841  0.3182  0.1773
   35MOL   N28326191   4.710   3.725   5.021 -0.7147 -0.2989  0.7005
   35MOL   H28426192   3.736   3.321   4.251  0.3538 -0.5429  2.8753
   35MOL   H28526193   3.744   3.481   4.200 -0.7767 -1.1053 -1.3679
   35MOL   H28626194   3.771   3.561   4.453  1.6032  0.9839 -0.5638
   35MOL   H28726195   3.742   3.397   4.487  0.5211 -1.6367 -0.9598
   35MOL   H28826196   3.989   3.444   4.314  0.3749 -0.9415  0.4237
   35MOL   H28926197   3.931   3.304   4.367  2.8889 -1.0335  0.7666
   35MOL   H29026198   4.090   3.361   4.506 -1.6630 -0.5390 -2.3038
   35MOL   H29126199   3.953   3.391   4.607 -0.0394  0.5948  0.3576
   35MOL   H29226200   3.982   3.586   4.721 -1.0693  2.9788  0.9547
   35MOL   H29326201   4.104   3.822   4.623 -3.0379  1.8853  3.6282
   35MOL   H29426202   4.089   3.781   4.795 -2.1937  1.1062 -0.0308
   35MOL   H29526203   4.303   3.658   4.776  1.1262  0.6666  0.0334
   35MOL   H29626204   4.305   3.694   4.605 -0.9068  1.0862  0.1149
   35MOL   H29726205   4.301   3.909   4.825  1.0372 -0.9061  0.5404
   35MOL   H29826206   4.300   3.938   4.650  0.7425 -0.9719 -1.6977
   35MOL   H29926207   4.519   3.834   4.642 -0.3374  0.9482 -0.9561
   35MOL   H30026208   4.534   3.970   4.743 -0.7363  0.7855  1.3606
   35MOL   H30126209   4.484   3.816   4.942  2.4909 -0.4706  1.1895
   35MOL   H30226210   4.508   3.680   4.839 -0.2452 -0.0533 -0.8976
   35MOL   H30326211   4.715   3.899   4.916 -0.9047  0.9553 -1.2516
   35MOL   H30426212   4.755   3.756   4.816 -0.3941  0.3200 -0.4159
   35MOL   H30526213   4.741   3.786   5.095  0.5321  0.1731 -0.1968
   35MOL   C30626214   4.703   3.597   5.038 -0.3437  0.2059  0.5715
   35MOL   O30726215   4.687   3.521   4.943 -0.4458 -0.0773 -0.1413
   35MOL   C30826216   4.716   3.547   5.179  0.1571 -0.4395 -0.2352
   35MOL   C30926217   4.817   3.433   5.192 -0.2833 -0.2003  0.1734
   35MOL   C31026218   4.806   3.298   5.112  0.2274  0.5560 -0.3926
   35MOL   C31126219   4.700   3.205   5.162  0.4122  0.2374 -0.2841
   35MOL   C31226220   4.557   3.258   5.156  0.3053 -0.3277  0.1967
   35MOL   O31326221   4.500   3.261   5.264  0.4883  0.2781  0.0589
   35MOL   N31426222   4.510   3.297   5.042  0.3167 -0.8093 -0.7440
   35MOL   C31526223   4.379   3.363   5.006 -0.2794  0.3145 -0.4983
   35MOL   C31626224   4.337   3.338   4.856  0.1862  0.7864  0.4679
   35MOL   C31726225   4.446   3.395   4.758  0.5732  0.1788  0.3670
   35MOL   C31826226   4.403   3.382   4.610 -0.0465  0.1375  0.0750
   35MOL   C31926227   4.517   3.440   4.532  0.1509  0.9945 -0.1615
   35MOL   C32026228   4.482   3.448   4.383 -0.4123 -0.1383  0.9954
   35MOL   N32126229   4.477   3.318   4.320  0.1304  0.5936 -0.2715
   35MOL   H32226230   4.738   3.620   5.256 -0.2342 -0.8411  0.2656
   35MOL   H32326231   4.624   3.515   5.228  0.2481 -1.3369 -0.6330
   35MOL   H32426232   4.916   3.474   5.169  0.8051 -1.2223  2.8094
   35MOL   H32526233   4.825   3.406   5.297 -0.4795 -1.1457 -0.0572
   35MOL   H32626234   4.901   3.253   5.138 -0.4574 -0.3444  0.5881
   35MOL   H32726235   4.809   3.309   5.003 -1.4099  1.6290 -0.3491
   35MOL   H32826236   4.724   3.175   5.264  0.2334  1.5584  0.1611
   35MOL   H32926237   4.693   3.109   5.111 -1.1162 -0.5261  1.3086
   35MOL   H33026238   4.586   3.304   4.977  2.8853 -0.5947  2.1519
   35MOL   H33126239   4.305   3.321   5.074  1.8356 -1.6955  0.6519
   35MOL   H33226240   4.389   3.472   5.014  1.5336  0.0595  0.9766
   35MOL   H33326241   4.333   3.229   4.850  0.4236  0.7719  0.5478
   35MOL   H33426242   4.239   3.384   4.845  0.0045  0.5752  1.1408
   35MOL   H33526243   4.534   3.332   4.768  1.0142 -0.0439 -3.8353
   35MOL   H33626244   4.461   3.498   4.789  1.0100 -0.1770  1.3505
   35MOL   H33726245   4.403   3.275   4.589 -0.8086 -0.2561  1.9969
   35MOL   H33826246   4.303   3.424   4.601 -0.4490 -0.6683  0.6618
   35MOL   H33926247   4.534   3.540   4.570 -0.2417  0.5801  1.1127
   35MOL   H34026248   4.616   3.401   4.553 -0.2557 -1.1269 -1.9870
   35MOL   H34126249   4.562   3.491   4.323  0.6880 -1.8831  1.1659
   35MOL   H34226250   4.381   3.487   4.370 -0.3816 -0.8011 -1.6112
   35MOL   H34326251   4.512   3.235   4.364  0.6073  1.6151  1.3098
   35MOL   C34426252   4.429   3.296   4.200  0.0797 -0.1876 -0.2308
   35MOL   O34526253   4.387   3.389   4.129  0.0589 -0.0389  0.4844
   35MOL   C34626254   4.424   3.152   4.151 -0.0636  0.5487  0.1708
   35MOL   C34726255   4.287   3.109   4.103  0.1803 -0.3192 -0.1408
   35MOL   C34826256   4.163   3.135   4.187 -0.4734  0.5125  0.4093
   35MOL   C34926257   4.174   3.100   4.337 -0.3581 -0.1237 -0.2937
   35MOL   C35026258   4.165   2.951   4.362  0.0059 -0.3667 -0.4805
   35MOL   O35126259   4.056   2.893   4.352  0.3909  0.3812 -0.3332
   35MOL   N35226260   4.275   2.887   4.409  0.2040 -0.5403  0.0053
   35MOL   C35326261   4.284   2.741   4.424  0.0037  0.1234 -0.2606
   35MOL   C35426262   4.286   2.666   4.288 -0.6438 -0.0048  0.0465
   35MOL   C35526263   4.308   2.514   4.298  0.2715  0.0492 -1.0461
   35MOL   C35626264   4.276   2.448   4.162  0.4819 -0.0593  0.1063
   35MOL   C35726265   4.317   2.300   4.152 -0.1850 -0.2355  0.0268
   35MOL   C35826266   4.452   2.264   4.093  0.7354  0.5647  0.4419
   35MOL   N35926267   4.565   2.310   4.178  0.6697 -0.8355 -0.2520
   35MOL   H36026268   4.500   3.147   4.073 -0.8562  2.6657 -0.7544
   35MOL   H36126269   4.459   3.083   4.228 -0.6518 -0.4440 -0.4387
   35MOL   H36226270   4.266   3.146   4.003 -0.1944  2.0791  0.7962
   35MOL   H36326271   4.288   3.001   4.088  1.3663 -0.1751 -1.0894
   35MOL   H36426272   4.089   3.070   4.140  0.9209  0.6118 -1.9893
   35MOL   H36526273   4.132   3.239   4.179  1.2400  1.2120  2.3448
   35MOL   H36626274   4.103   3.169   4.383 -0.0948  1.3006 -1.9666
   35MOL   H36726275   4.268   3.149   4.365 -0.2384 -0.2110 -0.5372
   35MOL   H36826276   4.357   2.939   4.435 -0.2445 -0.7339  1.8383
   35MOL   H36926277   4.378   2.725   4.476  1.1896  4.0868 -1.0176
   35MOL   H37026278   4.206   2.701   4.489  0.3934 -2.0085 -1.0699
   35MOL   H37126279   4.192   2.686   4.239 -0.6111 -2.4839 -1.0915
   35MOL   H37226280   4.357   2.724   4.229  0.3057 -0.0876  1.0820
   35MOL   H37326281   4.240   2.482   4.377  0.1723  1.1354 -0.6775
   35MOL   H37426282   4.407   2.484   4.333  0.1710  0.4578 -0.3960
   35MOL   H37526283   4.170   2.454   4.140 -0.0279  0.0464  2.4666
   35MOL   H37626284   4.336   2.508   4.093 -0.1265 -1.5205 -1.7650
   35MOL   H37726285   4.284   2.249   4.242  0.4273  3.1049  2.2698
   35MOL   H37826286   4.252   2.246   4.083 -0.8718 -0.5988  0.9574
   35MOL   H37926287   4.463   2.316   3.998  0.7917  0.0417  0.1591
   35MOL   H38026288   4.459   2.156   4.078 -0.3576  0.2460  2.1199
   35MOL   H38126289   4.590   2.407   4.164  0.4882 -0.2062  3.3142
   35MOL   C38226290   4.622   2.225   4.269 -0.3223  0.0203 -0.2997
   35MOL   O38326291   4.606   2.104   4.270  0.4524 -0.3311 -0.1619
   35MOL   C38426292   4.715   2.279   4.372 -0.4796  0.2063 -0.1819
   35MOL   C38526293   4.645   2.320   4.503  0.1099  0.5361  0.7026
   35MOL   C38626294   4.695   2.455   4.556  0.3078  0.4278  0.1261
   35MOL   C38726295   4.661   2.481   4.701 -0.2075 -0.2142 -0.1702
   35MOL   C38826296   4.509   2.477   4.737  0.1215 -0.2108 -0.0682
   35MOL   O38926297   4.435   2.548   4.671  0.5041  0.0241  0.2049
   35MOL   N39026298   4.468   2.397   4.835  0.1857 -0.3464 -0.0196
   35MOL   C39126299   4.335   2.403   4.887 -0.0726 -0.1916 -0.3199
   35MOL   C39226300   4.330   2.343   5.032  0.3929 -0.2066  0.6292
   35MOL   C39326301   4.444   2.388   5.130  0.2059  0.2124 -0.3142
   35MOL   C39426302   4.389   2.400   5.274  0.6206 -0.0246  0.1979
   35MOL   C39526303   4.301   2.521   5.296  0.0269 -0.6234 -0.4850
   35MOL   C39626304   4.252   2.523   5.446 -0.0388  0.0282  0.0185
   35MOL   N39726305   4.175   2.413   5.477  0.3890 -0.0033  0.3797
   35MOL   H39826306   4.795   2.208   4.392 -1.6890 -0.4810  2.5286
   35MOL   H39926307   4.765   2.367   4.330 -0.0862  0.0637 -0.0112
   35MOL   H40026308   4.537   2.325   4.489 -0.1392 -2.7047  1.1476
   35MOL   H40126309   4.662   2.245   4.580 -0.4321  0.3304  0.6173
   35MOL   H40226310   4.639   2.531   4.503  1.2104 -0.4108 -2.1275
   35MOL   H40326311   4.799   2.479   4.533  0.5047 -0.5712 -0.0772
   35MOL   H40426312   4.687   2.583   4.729  2.4958 -0.6448 -1.0512
   35MOL   H40526313   4.727   2.433   4.773  2.1581  0.0954 -2.0960
   35MOL   H40626314   4.532   2.322   4.860 -0.9124 -1.4636 -0.5032
   35MOL   H40726315   4.311   2.508   4.904  0.5645  0.3658 -2.6376
   35MOL   H40826316   4.267   2.355   4.816  0.3797  0.2129 -1.0358
   35MOL   H40926317   4.232   2.357   5.079  0.1457 -1.7863  0.6319
   35MOL   H41026318   4.338   2.235   5.020  0.3265 -0.0258 -1.1437
   35MOL   H41126319   4.491   2.480   5.094 -0.6893  0.3133 -1.2741
   35MOL   H41226320   4.515   2.306   5.135  0.1014  0.1704  0.5107
   35MOL   H41326321   4.331   2.313   5.307  1.9567 -0.0126  2.7076
   35MOL   H41426322   4.477   2.388   5.338  0.6622  1.0915  0.3480
   35MOL   H41526323   4.359   2.608   5.266 -1.4454  0.8542  0.8111
   35MOL   H41626324   4.214   2.521   5.231 -2.2374  0.9551  2.4238
   35MOL   H41726325   4.203   2.618   5.468  1.4718  0.6690  0.6926
   35MOL   H41826326   4.342   2.521   5.507  0.3234 -0.7703 -0.5410
   35MOL   H41926327   4.147   2.349   5.404 -0.5007  0.0083  0.6966
   35MOL   C42026328   4.134   2.378   5.604  0.9290 -0.5813  0.9584
   35MOL   O42126329   4.056   2.287   5.625 -0.1229  0.0518 -0.3583
   35MOL   C42226330   4.187   2.449   5.728 -0.6888 -0.0062  0.2808
   35MOL   C42326331   4.247   2.347   5.826 -0.2108  0.0085 -0.1568
   35MOL   C42426332   4.143   2.277   5.922  0.7336  0.4035 -0.4741
   35MOL   C42526333   4.209   2.156   5.978  0.4695  0.6106 -0.2173
   35MOL   C42626334   4.177   2.138   6.129 -0.1749 -0.1537 -0.0169
   35MOL   O42726335   4.065   2.130   6.168  0.2730 -0.4247 -0.2741
   35MOL   N42826336   4.279   2.127   6.210 -0.6478 -0.3704  0.3936
   35MOL   C42926337   4.272   2.072   6.346  0.4058 -0.3326  0.0011
   35MOL   C43026338   4.312   2.169   6.456  0.1618  0.9345  0.6936
   35MOL   C43126339   4.207   2.285   6.497 -0.7118  0.1643  0.4866
   35MOL   C43226340   4.255   2.397   6.590 -0.0499 -0.0707 -0.1474
   35MOL   C43326341   4.149   2.493   6.647 -0.5742 -0.3194 -0.2914
   35MOL   C43426342   4.205   2.634   6.686  0.9285 -0.1572  0.5671
   35MOL   N43526343   4.096   2.729   6.730 -0.2567 -0.0721  0.1977
   35MOL   H43626344   4.267   2.518   5.702  1.3925 -2.8316 -1.0338
   35MOL   H43726345   4.111   2.507   5.781  0.4321  1.1632  0.6363
   35MOL   H43826346   4.295   2.273   5.764  0.6832  2.4555 -2.4882
   35MOL   H43926347   4.327   2.391   5.885  1.6241 -3.1875 -0.1584
   35MOL   H44026348   4.045   2.256   5.879 -0.2785  2.7071  0.6217
   35MOL   H44126349   4.105   2.349   5.994 -0.8965 -1.2840  0.4037
   35MOL   H44226350   4.315   2.159   5.950  0.3292 -1.2003 -1.0092
   35MOL   H44326351   4.177   2.066   5.925 -0.0094  1.1275 -0.8114
   35MOL   H44426352   4.372   2.139   6.175 -0.5235  0.8313  1.0982
   35MOL   H44526353   4.170   2.039   6.367 -0.7578  2.7291 -0.5640
   35MOL   H44626354   4.345   1.992   6.339  1.6447  0.7608  0.0607
   35MOL   H44726355   4.344   2.112   6.544 -0.4297 -1.2361 -0.4781
   35MOL   H44826356   4.395   2.222   6.410  1.9457 -0.4404  2.2374
   35MOL   H44926357   4.119   2.242   6.546 -0.9275  0.4180  0.3184
   35MOL   H45026358   4.163   2.335   6.411 -1.6578 -0.0337  0.8478
   35MOL   H45126359   4.301   2.350   6.677 -0.2084  0.0331 -0.0064
   35MOL   H45226360   4.326   2.458   6.536 -1.4493  2.4848  0.7893
   35MOL   H45326361   4.066   2.504   6.578 -0.1661 -0.2200 -0.7650
   35MOL   H45426362   4.103   2.435   6.727 -0.1238 -0.7345 -0.3321
   35MOL   H45526363   4.251   2.682   6.599  0.4660  0.9076  0.8926
   35MOL   H45626364   4.278   2.628   6.767  0.3329 -2.0897  0.9635
   35MOL   H45726365   4.002   2.723   6.694  0.3793 -2.9946 -1.1399
   35MOL   C45826366   4.106   2.809   6.828  0.8559  0.4200  0.7917
   35MOL   O45926367   4.206   2.827   6.892 -0.2725  0.4239  0.5193
   35MOL   C46026368   3.979   2.896   6.858 -0.1459 -0.5360  0.4569
   35MOL   C46126369   3.893   2.849   6.973 -0.0032 -0.1921 -0.2397
   35MOL   C46226370   3.781   2.748   6.948  0.2969 -0.3712  0.0593
   35MOL   C46326371   3.821   2.618   6.870  0.3833  0.3376 -0.1066
   35MOL   C46426372   3.785   2.600   6.729  0.0868 -0.5414  0.2412
   35MOL   O46526373   3.845   2.662   6.637 -0.0089 -0.4457 -0.3818
   35MOL   N46626374   3.694   2.510   6.695 -0.8151 -0.1590  0.4856
   35MOL   C46726375   3.632   2.501   6.560 -0.1469 -0.1673 -0.0650
   35MOL   C46826376   3.513   2.401   6.560 -0.6106  0.2843 -0.1058
   35MOL   C46926377   3.455   2.391   6.424  0.0460 -0.2371 -0.2491
   35MOL   C47026378   3.349   2.285   6.412 -0.4846  0.2395 -0.3897
   35MOL   C47126379   3.322   2.235   6.268  0.1626 -0.8075 -0.9190
   35MOL   C47226380   3.259   2.101   6.260 -0.1709  0.2155 -0.4855
   35MOL   N47326381   3.354   2.005   6.305 -0.5907  0.0191 -0.5922
   35MOL   H47426382   4.014   2.997   6.881 -2.2760  0.1594  0.7025
   35MOL   H47526383   3.921   2.898   6.766  1.7469  3.0708 -0.7498
   35MOL   H47626384   3.964   2.806   7.044 -0.2643  0.2734  0.3095
   35MOL   H47726385   3.849   2.931   7.029  1.1908  0.3894 -0.1372
   35MOL   H47826386   3.699   2.792   6.892  1.3240 -0.9652 -1.9428
   35MOL   H47926387   3.742   2.711   7.043  1.6202 -2.3788 -0.1399
   35MOL   H48026388   3.789   2.526   6.919  0.3804 -0.9197 -2.3849
   35MOL   H48126389   3.927   2.597   6.888  0.2937 -0.4040 -0.4310
   35MOL   H48226390   3.663   2.446   6.767 -0.0666  0.2016  1.1267
   35MOL   H48326391   3.599   2.602   6.536 -0.1852 -0.2317 -0.2911
   35MOL   H48426392   3.711   2.482   6.487  0.6021  0.9503  0.4527
   35MOL   H48526393   3.547   2.309   6.609  2.1291  1.8108  0.9966
   35MOL   H48626394   3.445   2.444   6.633 -1.6150 -0.6188 -0.5026
   35MOL   H48726395   3.539   2.382   6.355  1.2111  0.0949  1.1035
   35MOL   H48826396   3.420   2.490   6.396  2.3299  1.0577  1.3587
   35MOL   H48926397   3.388   2.201   6.468  0.3258 -0.9946 -2.7692
   35MOL   H49026398   3.262   2.318   6.469 -2.0202 -0.2903 -2.3644
   35MOL   H49126399   3.255   2.308   6.222  1.6238  0.2460 -1.3864
   35MOL   H49226400   3.413   2.250   6.211  0.2237 -0.2096 -0.6679
   35MOL   H49326401   3.249   2.083   6.153 -1.7107  0.3050 -0.3690
   35MOL   H49426402   3.163   2.098   6.311 -0.3149 -0.7981 -0.8007
   35MOL   H49526403   3.452   2.028   6.312 -0.6566 -0.0567  0.7207
   35MOL   C49626404   3.307   1.895   6.365 -0.3482  0.8605  0.2953
   35MOL   O49726405   3.190   1.875   6.399  0.2740  0.2932  0.5854
   35MOL   C49826406   3.402   1.775   6.375 -0.0683 -0.2437 -0.4141
   35MOL   C49926407   3.444   1.727   6.513  0.5610  0.5662 -1.2809
   35MOL   C50026408   3.333   1.654   6.594  0.5475 -0.2451  0.2433
   35MOL   C50126409   3.368   1.564   6.712  0.1741  0.4038 -0.0255
   35MOL   C50226410   3.482   1.616   6.805  0.0528  0.3697 -0.2746
   35MOL   O50326411   3.533   1.727   6.785 -0.2517  0.0547  0.5930
   35MOL   N50426412   3.523   1.529   6.906  0.0018  0.2523  0.3469
   35MOL   C50526413   3.632   1.573   6.995 -0.2097  0.1847 -0.1645
   35MOL   C50626414   3.769   1.538   6.934  0.1887  0.2385 -0.3277
   35MOL   C50726415   3.889   1.526   7.023  0.4937  0.0898 -1.1311
   35MOL   C50826416   3.897   1.644   7.121  0.5013  0.4207 -0.2719
   35MOL   C50926417   4.027   1.661   7.203  0.1943 -0.5606  0.4148
   35MOL   C51026418   4.018   1.779   7.303 -0.1143 -0.5636 -0.0192
   35MOL   N51126419   4.156   1.808   7.354  0.3841  0.1154 -0.1373
   35MOL   H51226420   3.341   1.705   6.319 -1.2520 -1.5957  2.4611
   35MOL   H51326421   3.492   1.781   6.314  0.1754  0.2311 -0.0106
   35MOL   H51426422   3.532   1.663   6.511 -0.5240 -0.9525 -1.4514
   35MOL   H51526423   3.475   1.814   6.571 -2.2386  1.1663 -0.5882
   35MOL   H51626424   3.279   1.589   6.524  2.7499  0.6362 -2.3656
   35MOL   H51726425   3.279   1.744   6.623  0.9835 -0.0135  0.3422
   35MOL   H51826426   3.409   1.467   6.683  0.8716  0.2655  1.3766
   35MOL   H51926427   3.286   1.537   6.778  1.0431  1.1674  1.3994
   35MOL   H52026428   3.493   1.433   6.919 -1.3786  0.8949  2.1534
   35MOL   H52126429   3.631   1.680   7.017 -0.7498  0.2068 -0.3134
   35MOL   H52226430   3.626   1.535   7.096 -1.2138  0.2928 -0.1853
   35MOL   H52326431   3.758   1.439   6.890 -1.5372  0.2345  0.0598
   35MOL   H52426432   3.797   1.605   6.852  0.2141 -0.8558 -1.2216
   35MOL   H52526433   3.985   1.503   6.977  1.1433 -1.5937  0.9717
   35MOL   H52626434   3.861   1.446   7.093  0.1663  2.8467  2.0176
   35MOL   H52726435   3.898   1.733   7.058  0.9441 -0.4931 -1.5784
   35MOL   H52826436   3.813   1.653   7.189 -0.7186 -0.8326 -1.5895
   35MOL   H52926437   4.032   1.568   7.259 -0.8686  1.4867  4.0966
   35MOL   H53026438   4.101   1.672   7.124 -2.3036 -2.3395 -2.2885
   35MOL   H53126439   3.949   1.761   7.385 -0.9425  0.7135 -0.4268
   35MOL   H53226440   3.985   1.866   7.247  2.4981 -0.7216 -1.9168
   35MOL   H53326441   4.167   1.782   7.452 -2.1367  2.2590  0.7563
   35MOL   C53426442   4.248   1.899   7.302 -0.7988 -0.7607 -0.6960
   35MOL   O53526443   4.237   1.948   7.187  0.2645  1.0504  0.7269
   35MOL   C53626444   4.365   1.937   7.403  0.2898  0.1064 -0.3162
   35MOL   C53726445   4.351   2.089   7.445 -0.5464 -0.0328  0.6420
   35MOL   C53826446   4.221   2.120   7.528 -0.2432 -0.4205 -0.3703
   35MOL   C53926447   4.221   2.073   7.676 -0.0732 -0.3822 -1.1182
   35MOL   C54026448   4.164   1.936   7.702  0.5392  0.0094 -0.3475
   35MOL   O54126449   4.068   1.895   7.639 -0.0672  0.2440 -0.3733
   35MOL   N54226450   4.228   1.862   0.085  0.0793 -0.4323 -0.2762
   35MOL   C54326451   4.190   1.728   0.119 -0.1071  0.0959 -0.4982
   35MOL   C54426452   4.228   1.620   0.013 -0.8986  0.0191 -0.1407
   35MOL   C54526453   4.167   1.484   0.040 -0.3622  0.1962 -0.2089
   35MOL   C54626454   4.201   1.375   7.653  0.6388  0.3054  0.2789
   35MOL   C54726455   4.166   1.235   7.703 -0.0455 -1.2970  0.1825
   35MOL   C54826456   4.206   1.127   7.607 -0.5799  0.4947  0.3837
   35MOL   N54926457   4.162   0.995   7.655  0.1993 -0.1973 -0.0012
   35MOL   H55026458   4.363   1.866   7.486  0.3407  1.8007  1.1573
   35MOL   H55126459   4.461   1.916   7.354  0.5789 -1.2186  0.7979
   35MOL   H55226460   4.436   2.121   7.506 -0.4435  0.3864  0.2803
   35MOL   H55326461   4.357   2.138   7.348 -1.7208 -0.7118  0.2173
   35MOL   H55426462   4.126   2.094   7.481 -0.1886 -2.8787  0.8153
   35MOL   H55526463   4.214   2.228   7.513  4.0249 -0.1028 -0.5590
   35MOL   H55626464   4.177   2.143   0.039  2.0018 -1.6887  1.5499
   35MOL   H55726465   4.322   2.087   0.005 -1.5076  1.1399  2.4855
   35MOL   H55826466   4.316   1.894   0.124  0.6478 -1.7038 -0.4942
   35MOL   H55926467   4.228   1.704   0.218 -0.9018  1.2937  0.1016
   35MOL   H56026468   4.082   1.732   0.129  0.0325  3.9416 -0.0885
   35MOL   H56126469   4.217   1.640   7.614  3.3476  0.3106 -0.5842
   35MOL   H56226470   4.334   1.600   0.024 -0.6905  0.0335 -1.9876
   35MOL   H56326471   4.059   1.486   0.043 -0.4009 -0.7434 -0.8712
   35MOL   H56426472   4.195   1.452   0.141 -0.3765  0.7296 -0.0315
   35MOL   H56526473   4.157   1.384   7.554  0.0328  0.4125  0.5550
   35MOL   H56626474   4.309   1.383   7.636  0.3457 -0.3932 -2.0690
   35MOL   H56726475   4.222   1.217   0.087  0.0715  1.6084  0.7402
   35MOL   H56826476   4.059   1.233   0.017 -0.2072  2.1353 -0.0358
   35MOL   H56926477   4.314   1.133   7.596 -0.5470  0.1059  0.4779
   35MOL   H57026478   4.162   1.150   7.510 -1.5721  0.0296  0.7193
   35MOL   H57126479   4.119   0.986   0.038 -0.3692  0.3160 -0.2089
   35MOL   C57226480   4.199   0.887   7.594 -0.4253 -0.6995  0.3553
   35MOL   O57326481   4.278   0.877   7.501  0.7591  0.0157 -0.9462
   35MOL   C57426482   4.131   0.754   7.637 -0.3050  0.5205  0.5672
   35MOL   C57526483   4.012   0.714   7.551  0.3922  0.0301 -0.3168
   35MOL   C57626484   3.949   0.572   7.579  0.0881 -0.5362 -0.3111
   35MOL   C57726485   3.869   0.495   7.466  0.4524  0.0862 -0.6043
   35MOL   C57826486   3.949   0.454   7.348  0.1449  0.7166 -0.0494
   35MOL   O57926487   4.045   0.510   7.297 -0.0659  0.0289 -0.6448
   35MOL   N58026488   3.908   0.346   7.284  0.0374  0.4884  0.2836
   35MOL   C58126489   3.927   0.299   7.146 -0.0075  0.0026 -0.1461
   35MOL   C58226490   3.851   0.392   7.056  0.2929 -0.1044  0.2629
   35MOL   C58326491   3.701   0.376   7.066 -0.1082  0.0784 -0.1191
   35MOL   C58426492   3.633   0.461   6.965 -0.2639 -0.7247  0.0333
   35MOL   C58526493   3.634   0.405   6.818  0.5006 -0.0045  0.0309
   35MOL   C58626494   3.516   0.473   6.733 -0.4560  0.1425  0.0322
   35MOL   N58726495   3.518   0.411   6.601  0.1662 -0.2443 -0.1202
   35MOL   H58826496   4.203   0.675   7.618 -2.4997 -1.2713 -0.5082
   35MOL   H58926497   4.108   0.752   0.035  4.3376  1.2957  1.6891
   35MOL   H59026498   3.935   0.791   7.560 -2.1072 -2.5839  1.4672
   35MOL   H59126499   4.037   0.709   7.445  0.3153  0.0213 -0.3338
   35MOL   H59226500   3.881   0.594   7.662 -1.4694  1.9822 -2.1920
   35MOL   H59326501   4.032   0.508   7.608 -0.1989  0.5934  3.3396
   35MOL   H59426502   3.786   0.557   7.433  0.7550  1.4941  1.1661
   35MOL   H59526503   3.832   0.410   7.523  1.3018  0.0423 -0.1020
   35MOL   H59626504   3.835   0.298   7.335 -0.6179  0.6327 -0.4959
   35MOL   H59726505   4.035   0.294   7.130 -0.0498 -0.0930 -0.3986
   35MOL   H59826506   3.890   0.196   7.137  0.3325 -0.2009  0.7287
   35MOL   H59926507   3.894   0.491   7.067 -2.1316  1.0284 -0.2213
   35MOL   H60026508   3.890   0.365   6.958 -1.7176 -0.1649 -0.5429
   35MOL   H60126509   3.656   0.386   7.165 -0.1468 -1.6995  0.0591
   35MOL   H60226510   3.679   0.271   7.048 -1.3508  0.3451 -0.2382
   35MOL   H60326511   3.533   0.485   6.999  0.0186  0.8965 -0.2751
   35MOL   H60426512   3.677   0.560   6.966  0.0067 -0.7981  3.4214
   35MOL   H60526513   3.732   0.423   6.775  0.5717  1.8327  0.9202
   35MOL   H60626514   3.614   0.297   6.822 -1.6046  0.3844  0.9942
   35MOL   H60726515   3.537   0.580   6.729 -0.6983  0.1983  0.2029
   35MOL   H60826516   3.417   0.470   6.779 -1.1932  0.4620 -1.5112
   35MOL   H60926517   3.564   0.460   6.526 -0.4384  1.6337  0.6984
   35MOL   C61026518   3.440   0.308   6.571  0.0272  0.4071  0.1994
   35MOL   O61126519   3.347   0.262   6.637  0.2825 -0.1189 -0.5828
   35MOL   C61226520   3.455   0.248   6.429  0.4248  0.3376 -0.1727
   35MOL   C61326521   3.452   0.094   6.447 -0.3462  0.5008 -0.3097
   35MOL   C61426522   3.569   0.035   6.532 -0.2094 -0.1089 -0.5106
   35MOL   C61526523   3.531   7.703   6.674  0.5809  0.4500  0.2558
   35MOL   C61626524   3.397   7.620   6.688 -0.5858  0.6089 -1.2223
   35MOL   O61726525   3.418   7.498   6.688  0.2771  0.3403  0.1035
   35MOL   N61826526   3.280   7.686   6.693 -0.0761  0.4588 -0.0647
   35MOL   C61926527   3.146   7.623   6.685  0.6124 -0.0704 -0.6869
   35MOL   C62026528   3.066   7.680   6.566 -0.0632  0.2673 -0.5566
   35MOL   C62126529   3.004   0.114   6.604 -0.0188  0.2181 -0.0811
   35MOL   C62226530   2.967   0.195   6.478  0.0847 -0.9020 -0.4524
   35MOL   C62326531   3.082   0.273   6.416 -0.1685 -0.2297  0.2746
   35MOL   C62426532   3.047   0.363   6.297  0.4086  0.5582 -0.0980
   35MOL   N62526533   3.159   0.452   6.267  0.1502 -0.2853 -0.2353
   35MOL   H62626534   3.371   0.269   6.363  1.3953 -1.2749 -1.9571
   35MOL   H62726535   3.549   0.277   6.382  0.2179  0.4440 -0.5187
   35MOL   H62826536   3.350   0.061   6.466 -1.2293  1.5546 -3.0742
   35MOL   H62926537   3.476   0.049   6.351 -2.7817 -0.6917 -0.4120
   35MOL   H63026538   3.658   0.098   6.535  1.3289 -2.2204 -0.5238
   35MOL   H63126539   3.604   7.656   6.477 -1.5709 -0.2360 -1.2018
   35MOL   H63226540   3.523   0.088   6.731  3.9338  1.8341 -1.3738
   35MOL   H63326541   3.612   7.641   6.711 -0.2887 -0.9881 -0.2110
   35MOL   H63426542   3.284   0.079   6.694 -1.6677  0.5420  1.6863
   35MOL   H63526543   3.152   7.515   6.671 -0.1176 -0.4971  1.9632
   35MOL   H63626544   3.086   7.644   6.774  1.1442 -1.6218  0.0468
   35MOL   H63726545   3.140   7.694   6.488 -1.2866  0.5444 -1.6794
   35MOL   H63826546   2.989   7.612   6.529  0.2326 -0.6958  0.5413
   35MOL   H63926547   3.074   0.174   6.664  0.7435 -1.5367  0.8283
   35MOL   H64026548   2.916   0.099   6.666 -0.6238  2.4325 -0.3653
   35MOL   H64126549   2.926   0.128   6.403 -1.6209  1.0073 -1.2519
   35MOL   H64226550   2.894   0.273   6.498  0.4975 -0.8695  1.0006
   35MOL   H64326551   3.138   0.325   6.493 -0.0463  1.4101 -0.8832
   35MOL   H64426552   3.160   0.201   6.392 -0.0376 -0.4749  1.4277
   35MOL   H64526553   2.963   0.421   6.334 -0.2348 -1.4480  1.7015
   35MOL   H64626554   3.023   0.297   6.214 -0.1743  1.6962 -0.8487
   35MOL   H64726555   3.184   0.517   6.340 -0.8214 -0.2638  0.0880
   35MOL   C64826556   3.225   0.461   6.154  0.7129  0.0736  0.1337
   35MOL   O64926557   3.203   0.381   6.064 -0.1199 -0.3826  0.6374
   35MOL   C65026558   3.335   0.565   6.152 -0.4541 -0.6644  0.2381
   35MOL   C65126559   3.451   0.522   6.059 -0.5477 -0.6820  0.6661
   35MOL   C65226560   3.563   0.624   6.050 -0.3389 -0.3585 -0.3401
   35MOL   C65326561   3.626   0.663   6.187 -0.7633 -0.2189  0.2170
   35MOL   C65426562   3.669   0.553   6.281  0.2924  0.5551  0.0598
   35MOL   O65526563   3.634   0.549   6.402  0.2684  0.7725  0.0917
   35MOL   N65626564   3.762   0.467   6.233 -0.3809  0.2400  0.1509
   35MOL   C65726565   3.814   0.339   6.281 -0.5417 -0.1940  0.8030
   35MOL   C65826566   3.792   0.218   6.188 -0.6296  0.2422 -0.2514
   35MOL   C65926567   3.857   0.096   6.265  0.2324  0.5462  0.2479
   35MOL   C66026568   3.857   7.667   6.184 -0.8352 -0.8532  0.6563
   35MOL   C66126569   3.952   7.568   6.258 -0.5299 -0.1760 -0.2640
   35MOL   C66226570   4.098   7.581   6.210  0.0797  0.1893  0.4299
   35MOL   N66326571   4.186   7.499   6.286  0.0594  0.1556 -0.6728
   35MOL   H66426572   3.295   0.663   6.123  1.2583 -0.0322 -0.0272
   35MOL   H66526573   3.365   0.580   6.255  1.3760  0.0070 -0.3659
   35MOL   H66626574   3.483   0.421   6.085  0.9947  0.1931  2.2809
   35MOL   H66726575   3.416   0.512   5.956 -0.8307  1.0659  0.5796
   35MOL   H66826576   3.519   0.706   5.994  2.3188  1.8970  0.7406
   35MOL   H66926577   3.639   0.584   5.983  0.5424  0.2990  0.2473
   35MOL   H67026578   3.541   0.712   6.234 -0.8994 -1.3495  1.2015
   35MOL   H67126579   3.702   0.739   6.172 -0.9420  0.2291  1.4888
   35MOL   H67226580   3.797   0.483   6.140 -2.4895  1.9196 -0.3852
   35MOL   H67326581   3.921   0.353   6.299  0.1387 -1.5224 -1.9028
   35MOL   H67426582   3.772   0.304   6.376  0.7833 -1.1978  1.0271
   35MOL   H67526583   3.685   0.200   6.175 -0.9210  2.5653 -1.2765
   35MOL   H67626584   3.825   0.224   6.084 -0.3325  1.4279 -0.0941
   35MOL   H67726585   3.798   0.082   6.355 -1.3478 -2.7268 -1.2166
   35MOL   H67826586   3.957   0.128   6.294 -1.0584  0.9450  4.4654
   35MOL   H67926587   3.752   7.639   6.175 -0.9576 -0.0860 -0.4983
   35MOL   H68026588   3.891   7.672   6.080  0.0043 -3.5435  0.7507
   35MOL   H68126589   3.954   7.599   6.363  0.5244  1.6456 -0.7990
   35MOL   H68226590   3.920   7.464   6.250 -0.2580 -0.5047  2.2890
   35MOL   H68326591   4.129   7.683   6.233  1.4617  0.2204 -1.4745
   35MOL   H68426592   4.088   7.552   6.105 -1.3245  0.6511  0.4256
   35MOL   H68526593   4.147   7.416   6.327  2.8315 -1.8889 -2.0560
   35MOL   C68626594   4.319   7.522   6.275 -1.0663 -0.1469  0.4643
   35MOL   O68726595   4.370   7.614   6.209  0.0186  0.1116 -0.3142
   35MOL   C68826596   4.410   7.416   6.338  0.6523 -0.0033 -0.0411
   35MOL   C68926597   4.534   7.376   6.254  0.2178  0.3736 -0.5010
   35MOL   C69026598   4.617   7.258   6.328  0.6709 -0.5999  0.3655
   35MOL   C69126599   4.571   7.113   6.294  0.1191  0.7046  0.8259
   35MOL   C69226600   4.450   7.055   6.368  0.0861 -0.8539  0.1778
   35MOL   O69326601   4.434   7.077   6.485 -0.0778 -0.2111 -0.5689
   35MOL   N69426602   4.362   6.980   6.296 -0.1702 -0.5688 -0.1480
   35MOL   C69526603   4.235   6.931   6.351 -0.1374  0.0142 -0.5167
   35MOL   C69626604   4.243   6.806   6.444  0.0909  0.5008 -0.1137
   35MOL   C69726605   4.105   6.744   6.472  0.9539 -0.6458 -0.3965
   35MOL   C69826606   4.013   6.825   6.566 -0.2668 -0.7005 -0.2923
   35MOL   C69926607   3.889   6.756   6.618 -0.0516 -0.2912 -0.5233
   35MOL   C70026608   3.906   6.618   6.673 -0.2966  0.0619  0.9341
   35MOL   N70126609   3.988   6.615   6.792 -0.4503 -0.4249 -0.2096
   35MOL   H70226610   4.449   7.478   6.419 -0.2778  2.2288 -1.2403
   35MOL   H70326611   4.352   7.335   6.381 -0.9140  0.5792 -1.0109
   35MOL   H70426612   4.495   7.331   6.163 -1.4678 -1.2702  0.9827
   35MOL   H70526613   4.603   7.457   6.229  0.8089  0.2908  0.8080
   35MOL   H70626614   4.613   7.274   6.436  1.1583  0.0104  0.2973
   35MOL   H70726615   4.724   7.264   6.315  0.6551  0.0247  0.4843
   35MOL   H70826616   4.664   7.057   6.309  0.0230 -0.0304 -1.1713
   35MOL   H70926617   4.549   7.111   6.188  1.5944 -0.3389  0.5233
   35MOL   H71026618   4.381   6.962   6.199 -2.1390  0.6810 -0.7888
   35MOL   H71126619   4.184   7.010   6.406 -0.7310  0.5936 -1.8862
   35MOL   H71226620   4.169   6.911   6.267 -0.1310  0.9150 -0.7454
   35MOL   H71326621   4.315   6.733   6.408  0.5648  0.3482  1.1295
   35MOL   H71426622   4.290   6.839   6.537 -0.9091 -1.9287  1.3151
   35MOL   H71526623   4.128   6.648   6.519 -0.2684 -1.3371 -1.1935
   35MOL   H71626624   4.062   6.717   6.375  1.2464  1.9450 -1.2725
   35MOL   H71726625   4.069   6.877   6.645 -1.2476 -1.7375  1.1005
   35MOL   H71826626   3.981   6.911   6.506  0.1155 -0.3941 -0.0663
   35MOL   H71926627   3.835   6.816   6.692 -0.9909 -2.3937  0.5584
   35MOL   H72026628   3.815   6.753   6.538 -0.4758 -0.1834 -0.1448
   35MOL   H72126629   3.931   6.542   6.599 -1.6757  1.3072 -0.8644
   35MOL   H72226630   3.808   6.587   6.709  0.2442 -1.5244  1.0922
   35MOL   H72326631   3.992   6.695   6.853 -1.4330 -0.2445 -0.3807
   35MOL   C72426632   4.022   6.501   6.856 -0.2835  0.3474 -0.3677
   35MOL   O72526633   4.008   6.389   6.805 -1.0634 -0.0868 -0.0690
   35MOL   C72626634   4.062   6.518   7.000  0.0251 -0.1952  0.0381
   35MOL   C72726635   4.184   6.447   7.051 -0.6608  0.0956 -0.2557
   35MOL   C72826636   4.320   6.495   6.993 -1.2020 -0.1752 -0.5140
   35MOL   C72926637   4.431   6.387   6.990  0.2934 -0.1167  0.5832
   35MOL   C73026638   4.456   6.333   7.131 -0.8810  0.3331 -0.1225
   35MOL   O73126639   4.402   6.233   7.175  0.1130  0.3430  0.2152
   35MOL   N73226640   4.553   6.397   7.203 -0.2111  0.0510 -0.1946
   35MOL   C73326641   4.618   6.345   7.322  0.0958 -0.8634 -0.5388
   35MOL   C73426642   4.734   6.436   7.371  0.1295 -0.1653  0.5358
   35MOL   C73526643   4.806   6.378   7.487  0.0844  0.1334  0.0240
   35MOL   C73626644   4.897   6.472   7.570 -0.0242  0.4698  0.2810
   35MOL   C73726645   4.955   6.398   7.685 -0.1556  0.0477 -1.3256
   35MOL   C73826646   5.042   6.490   0.061 -0.4601  0.3478 -0.7684
   35MOL   N73926647   5.123   6.415   0.156 -0.4004  0.1678 -0.1934
   35MOL   H74026648   4.072   6.625   7.018  1.2826 -0.6383  2.1374
   35MOL   H74126649   3.980   6.473   7.056 -0.5581  0.5694 -0.1962
   35MOL   H74226650   4.189   6.466   7.159  1.0434 -0.8836 -0.1395
   35MOL   H74326651   4.174   6.340   7.034  0.0062  0.1513 -1.0432
   35MOL   H74426652   4.355   6.589   7.038 -0.2672  0.0911 -1.7658
   35MOL   H74526653   4.310   6.509   6.886 -1.5395 -0.3601 -0.5063
   35MOL   H74626654   4.522   6.419   6.939  0.4272  0.7942  1.3676
   35MOL   H74726655   4.388   6.303   6.935  0.0627  0.4684 -0.1345
   35MOL   H74826656   4.592   6.484   7.168 -0.9847  0.4622 -0.0523
   35MOL   H74926657   4.550   6.357   7.406 -0.5515  1.1672 -1.3223
   35MOL   H75026658   4.643   6.239   7.317  0.9431 -0.8244  1.7673
   35MOL   H75126659   4.812   6.453   7.297 -0.5493 -0.9843 -0.3823
   35MOL   H75226660   4.676   6.524   7.397 -0.2349  0.1330 -1.2170
   35MOL   H75326661   4.863   6.292   7.451 -1.6150 -0.4707 -1.3325
   35MOL   H75426662   4.735   6.325   7.551 -0.3974  2.4827  1.4764
   35MOL   H75526663   4.976   6.514   7.508  0.2820 -0.3816  0.0896
   35MOL   H75626664   4.837   6.557   7.603 -0.6133  0.5979 -1.1006
   35MOL   H75726665   4.881   6.349   0.039  1.3240  0.3598  0.7448
   35MOL   H75826666   5.017   6.318   7.645  1.1431  1.3081 -1.8842
   35MOL   H75926667   4.987   6.573   0.107 -0.3172  0.4135 -0.7158
   35MOL   H76026668   5.118   6.537   7.708 -0.0159  2.6331  1.4487
   35MOL   H76126669   5.189   6.482   0.193 -0.2118  0.2887 -0.7418
   35MOL   H76226670   5.182   6.351   0.105 -1.4518 -0.9871  0.0140
   36MOL     C126671   1.567   5.407   3.774  0.6554 -1.1190 -0.2681
   36MOL     O226672   1.651   5.343   3.839  0.2035  0.3760  0.0914
   36MOL     C326673   1.496   5.532   3.839  0.1131  0.3679 -0.3337
   36MOL     C426674   1.364   5.497   3.916  0.1706 -0.0391  0.3172
   36MOL     C526675   1.264   5.431   3.822 -0.2155  0.0294 -0.0889
   36MOL     C626676   1.235   5.503   3.689  0.1758  0.1516 -0.5181
   36MOL     C726677   1.142   5.625   3.715  0.7396  0.8059 -0.3264
   36MOL     O826678   1.032   5.618   3.767  0.6439  0.1350  0.1975
   36MOL     N926679   1.199   5.742   3.692 -0.1964  0.0173  0.0657
   36MOL    C1026680   1.145   5.868   3.733  0.2785  0.1330 -0.2668
   36MOL    C1126681   1.127   5.886   3.888  0.4889 -0.1810  0.1038
   36MOL    C1226682   1.108   6.029   3.943  0.3048 -0.9087  0.0630
   36MOL    C1326683   1.115   6.038   4.095 -0.8533  0.6760 -0.0397
   36MOL    C1426684   1.013   5.960   4.172  0.0225  0.4867 -0.1483
   36MOL    C1526685   1.004   5.987   4.319  0.5827  0.2477  0.1730
   36MOL    N1626686   0.920   5.890   4.391 -0.0669 -0.0132  0.2802
   36MOL    H1726687   1.565   5.586   3.905 -0.7416  1.9513 -0.7131
   36MOL    H1826688   1.464   5.599   3.760 -0.6799 -1.0329 -1.2197
   36MOL    H1926689   1.390   5.429   3.997  0.4605  1.1794  1.2580
   36MOL    H2026690   1.315   5.581   3.966 -0.5786 -0.9177  1.0827
   36MOL    H2126691   1.174   5.392   3.870  1.4081 -1.3638  1.8875
   36MOL    H2226692   1.302   5.332   3.800  2.0571  0.8319  0.0580
   36MOL    H2326693   1.183   5.439   3.617  0.5253 -0.3637 -0.3120
   36MOL    H2426694   1.326   5.537   3.639 -0.4325  0.4122 -1.4722
   36MOL    H2526695   1.295   5.733   3.661  0.2393 -0.1110  1.4012
   36MOL    H2626696   1.215   5.945   3.701  3.3414 -2.0758  0.8871
   36MOL    H2726697   1.056   5.902   3.680 -1.3233 -1.9565  1.0068
   36MOL    H2826698   1.044   5.826   3.926 -1.3893  1.4603 -1.2687
   36MOL    H2926699   1.217   5.845   3.933 -0.9140 -1.9518  1.3608
   36MOL    H3026700   1.025   6.080   3.893  0.9397 -1.1293 -1.2576
   36MOL    H3126701   1.195   6.088   3.915 -0.1894  0.0948  0.6389
   36MOL    H3226702   1.215   6.006   4.125 -0.6220  0.1407 -1.3118
   36MOL    H3326703   1.113   6.142   4.127 -0.3696  1.5361 -2.6873
   36MOL    H3426704   0.915   5.982   4.128  0.2755 -0.3516 -1.1351
   36MOL    H3526705   1.050   5.858   4.173 -1.0513  0.0553  3.0924
   36MOL    H3626706   0.962   6.087   4.326  1.2183  0.7538 -2.7625
   36MOL    H3726707   1.105   5.990   4.360  1.3284 -0.4266 -1.5790
   36MOL    H3826708   0.828   5.864   4.360 -0.0801  0.2145  0.1260
   36MOL    H3926709   1.556   5.388   3.667  0.7603 -0.4692 -0.3980
   36MOL    C4026710   0.963   5.810   4.485 -0.4152 -0.3059  0.1210
   36MOL    O4126711   1.077   5.815   4.534  0.2409  0.0503 -0.9503
   36MOL    C4226712   0.856   5.727   4.554 -0.2586 -0.1790  0.5050
   36MOL    C4326713   0.836   5.767   4.703  0.3448  0.5194 -0.0410
   36MOL    C4426714   0.785   5.904   4.721 -0.2032 -0.2489  0.8850
   36MOL    C4526715   0.688   5.931   4.832 -0.5551  0.3588  0.5074
   36MOL    C4626716   0.546   5.891   4.789 -0.0042  0.0154  0.1107
   36MOL    O4726717   0.531   5.844   4.678  0.3435  0.0809  0.0724
   36MOL    N4826718   0.446   5.893   4.876  0.3201 -0.4712 -0.1815
   36MOL    C4926719   0.298   5.887   4.843  0.2966 -0.1964 -0.3774
   36MOL    C5026720   0.260   5.747   4.844  0.7282 -0.2769 -0.1679
   36MOL    C5126721   0.120   5.730   4.779 -0.0913 -0.0872 -0.1712
   36MOL    C5226722   0.048   5.593   4.795  0.1147 -0.2259 -0.3018
   36MOL    C5326723   7.626   5.593   4.714  0.4887 -0.7024  0.6959
   36MOL    C5426724   7.534   5.465   4.715 -0.6396 -0.1188 -0.0142
   36MOL    N5526725   7.493   5.428   4.847  0.2496 -0.3349 -0.4695
   36MOL    H5626726   0.764   5.739   4.497 -0.1201  2.9377  0.8396
   36MOL    H5726727   0.889   5.624   4.555  0.0456 -0.1496 -2.5420
   36MOL    H5826728   0.762   5.697   4.742  1.2743 -0.9374 -0.8426
   36MOL    H5926729   0.922   5.736   4.762  0.4790 -1.2978 -1.1383
   36MOL    H6026730   0.761   5.946   4.623  4.0532  0.5976  0.1296
   36MOL    H6126731   0.870   5.967   4.748  0.4337  0.5964 -2.7922
   36MOL    H6226732   0.688   6.034   4.868 -4.4709  0.5066  0.2261
   36MOL    H6326733   0.703   5.865   4.917  0.4115  0.5341  0.4862
   36MOL    H6426734   0.471   5.939   4.963 -0.5846 -0.9942  0.3643
   36MOL    H6526735   0.236   5.943   4.913  0.1443 -1.4299  0.4797
   36MOL    H6626736   0.275   5.929   4.745 -2.3262 -0.2523  0.1710
   36MOL    H6726737   0.333   5.686   4.790  1.9561 -1.3546  2.5919
   36MOL    H6826738   0.268   5.711   4.946 -0.3945 -0.0328  0.0121
   36MOL    H6926739   0.123   5.766   4.676  2.0880  0.8481  0.2127
   36MOL    H7026740   0.063   5.810   4.827 -0.4510  0.9172 -2.2235
   36MOL    H7126741   0.111   5.509   4.766  0.6158 -1.7040  4.5085
   36MOL    H7226742   0.028   5.587   4.902 -4.8627 -2.8732 -1.2035
   36MOL    H7326743   7.566   5.677   4.749  0.5129 -2.0294  4.1614
   36MOL    H7426744   7.648   5.613   4.609  1.4505 -1.5571  0.7268
   36MOL    H7526745   7.598   5.383   4.681 -1.0962 -1.4732  2.3474
   36MOL    H7626746   7.442   5.475   4.658 -0.5703 -0.6996 -0.2255
   36MOL    H7726747   7.560   5.369   4.893  0.3056  1.1351  1.4224
   36MOL    C7826748   7.385   5.467   4.910 -0.9523  0.3170 -0.6417
   36MOL    O7926749   7.308   5.552   4.867  0.3370  0.1892  0.2882
   36MOL    C8026750   7.371   5.417   5.055 -0.4225 -0.1048  0.0200
   36MOL    C8126751   7.271   5.487   5.144 -0.3668 -0.0670 -0.0435
   36MOL    C8226752   7.250   5.412   5.280 -0.5241  0.0614  0.1296
   36MOL    C8326753   7.136   5.475   5.363 -0.5398  0.3110 -0.4424
   36MOL    C8426754   7.003   5.459   5.296 -0.3562 -0.6372  0.0997
   36MOL    O8526755   6.982   5.365   5.226 -0.2848  0.2537 -0.1861
   36MOL    N8626756   6.919   5.564   5.311 -0.2968 -0.0335  0.0714
   36MOL    C8726757   6.796   5.587   5.235 -0.1128  0.1221 -0.2931
   36MOL    C8826758   6.682   5.504   5.294 -0.1648 -1.0838 -0.8685
   36MOL    C8926759   6.639   5.523   5.439  0.2373 -0.5244  0.3555
   36MOL    C9026760   6.526   5.424   5.484  0.4363  0.0821 -0.4318
   36MOL    C9126761   6.543   5.275   5.438  1.0508  0.2641 -0.0381
   36MOL    C9226762   6.445   5.168   5.504  0.9193 -0.0932  0.0298
   36MOL    N9326763   6.440   5.041   5.430  0.1775  1.1144 -0.1537
   36MOL    H9426764   7.346   5.312   5.041  0.9187 -0.6399  1.5665
   36MOL    H9526765   7.473   5.428   5.091 -1.2089  1.5071  1.8559
   36MOL    H9626766   7.295   5.592   5.162 -2.2683  0.7748 -2.0826
   36MOL    H9726767   7.175   5.504   5.094 -0.9233  1.2892  1.4212
   36MOL    H9826768   7.345   5.405   5.333  0.0025  0.8207 -0.7040
   36MOL    H9926769   7.215   5.311   5.255  1.2173 -0.0138 -2.2468
   36MOL   H10026770   7.157   5.579   5.390  1.6319  0.0175 -0.9466
   36MOL   H10126771   7.128   5.405   5.446 -1.8982  2.4134  1.2555
   36MOL   H10226772   6.956   5.642   5.364  0.0233 -0.7898  0.9775
   36MOL   H10326773   6.779   5.694   5.244  0.5692  0.0756  1.7272
   36MOL   H10426774   6.812   5.577   5.127  4.0284  2.4198 -0.0044
   36MOL   H10526775   6.593   5.519   5.232 -0.9593 -0.4177  0.4013
   36MOL   H10626776   6.713   5.401   5.279  0.2216 -0.9137 -1.2455
   36MOL   H10726777   6.606   5.627   5.446 -1.4203 -1.0579  0.6990
   36MOL   H10826778   6.733   5.509   5.493  1.8761  1.6636 -1.8440
   36MOL   H10926779   6.521   5.419   5.592 -0.0517 -1.3949 -0.5099
   36MOL   H11026780   6.425   5.455   5.459 -0.7105 -1.2313  2.3832
   36MOL   H11126781   6.530   5.263   5.331 -0.6071 -2.9616  0.4534
   36MOL   H11226782   6.644   5.236   5.448  1.0835  0.5498  0.8059
   36MOL   H11326783   6.346   5.213   5.508  0.8735 -0.1614 -0.2937
   36MOL   H11426784   6.487   5.145   5.602  3.9140  1.4175 -0.8091
   36MOL   H11526785   6.524   4.985   5.441 -0.4250  0.3590  0.6784
   36MOL   C11626786   6.346   4.983   5.357  0.0552  0.2231 -0.1070
   36MOL   O11726787   6.240   5.037   5.322  0.0900 -0.1235 -0.0477
   36MOL   C11826788   6.377   4.838   5.316  0.9043 -0.3279  0.0631
   36MOL   C11926789   6.286   4.730   5.375 -0.2107  0.0868 -0.1272
   36MOL   C12026790   6.346   4.636   5.482  0.0422  0.0194  0.3322
   36MOL   C12126791   6.392   4.698   5.614 -0.6441  0.3489  0.8607
   36MOL   C12226792   6.265   4.741   5.691 -0.4706 -0.5917 -0.9308
   36MOL   O12326793   6.161   4.680   5.683 -0.0442 -0.0708  0.0511
   36MOL   N12426794   6.279   4.847   5.764 -0.1909 -0.2959  0.6316
   36MOL   C12526795   6.181   4.880   5.869 -0.3796 -0.2268  0.4502
   36MOL   C12626796   6.204   5.017   5.939  0.9667 -0.0818  0.4259
   36MOL   C12726797   6.226   5.129   5.842  0.0941  0.4996 -0.1397
   36MOL   C12826798   6.204   5.264   5.903 -0.2386 -0.2657 -0.3161
   36MOL   C12926799   6.248   5.373   5.798 -0.7292  0.3061 -0.0659
   36MOL   C13026800   6.190   5.515   5.832  0.2412  0.6453  0.0846
   36MOL   N13126801   6.200   5.619   5.727 -0.7594 -1.0502  0.2293
   36MOL   H13226802   6.375   4.836   5.207  0.1697 -1.8081  0.0829
   36MOL   H13326803   6.471   4.796   5.352  1.1677  1.1516  1.1535
   36MOL   H13426804   6.204   4.786   5.420  0.4692  0.4840  0.6289
   36MOL   H13526805   6.239   4.670   5.297 -1.6581 -1.6519  2.0313
   36MOL   H13626806   6.436   4.584   5.451 -0.4649 -1.0301  0.5767
   36MOL   H13726807   6.279   4.551   5.498  3.3231 -2.5165  1.0760
   36MOL   H13826808   6.457   4.783   5.596 -0.6672 -0.1319 -1.7561
   36MOL   H13926809   6.446   4.620   5.668 -2.5690 -0.1518  2.1270
   36MOL   H14026810   6.375   4.877   5.772 -0.3358  0.2846  0.2799
   36MOL   H14126811   6.082   4.870   5.826 -0.8255  2.0086  0.8985
   36MOL   H14226812   6.188   4.809   5.951 -1.0241  0.5490  1.1950
   36MOL   H14326813   6.122   5.043   6.006  0.1774  2.0284 -1.2942
   36MOL   H14426814   6.297   4.999   5.993  1.4800 -0.3031 -0.5291
   36MOL   H14526815   6.159   5.129   5.756  1.8175  0.3549 -1.4896
   36MOL   H14626816   6.325   5.127   5.798 -0.3322 -0.9990 -1.0549
   36MOL   H14726817   6.100   5.285   5.930 -0.2873 -1.5900  0.5503
   36MOL   H14826818   6.250   5.275   6.001 -2.3325  2.5998  0.4305
   36MOL   H14926819   6.356   5.364   5.782 -0.8384 -0.1728 -0.5261
   36MOL   H15026820   6.206   5.337   5.705  0.4331  0.4600 -0.6572
   36MOL   H15126821   6.233   5.544   5.927  0.5244 -0.5902  0.3391
   36MOL   H15226822   6.084   5.500   5.854 -0.0687  1.0520 -1.0691
   36MOL   H15326823   6.117   5.643   5.675  0.0952 -1.8549 -1.5831
   36MOL   C15426824   6.309   5.681   5.698 -0.1733 -0.1661  0.1797
   36MOL   O15526825   6.417   5.649   5.746  0.2110 -0.1370 -0.7456
   36MOL   C15626826   6.297   5.812   5.614 -0.2072  0.7107  0.6544
   36MOL   C15726827   6.413   5.845   5.516  0.2452  0.2643 -0.5516
   36MOL   C15826828   6.382   5.798   5.375 -0.2949  0.9672 -0.3294
   36MOL   C15926829   6.499   5.831   5.278  0.1487  0.4785 -0.4946
   36MOL   C16026830   6.468   5.791   5.133 -0.3496  0.5704  0.0912
   36MOL   O16126831   6.493   5.678   5.090 -0.0598 -0.1491 -0.4110
   36MOL   N16226832   6.397   5.874   5.057 -0.4260  0.2681 -0.6554
   36MOL   C16326833   6.321   5.847   4.941 -0.3451 -0.5669  0.2429
   36MOL   C16426834   6.170   5.856   4.978  0.6471 -0.3614  0.2978
   36MOL   C16526835   6.104   5.742   5.069  0.2589  0.1632 -0.4503
   36MOL   C16626836   5.950   5.790   5.093  0.2508  0.2575 -0.0415
   36MOL   C16726837   5.918   5.892   5.205 -0.4955 -0.1236 -0.6306
   36MOL   C16826838   5.766   5.924   5.205  0.3792  0.1825  0.4515
   36MOL   N16926839   5.734   6.034   5.298  0.0069  0.1318  0.4738
   36MOL   H17026840   6.199   5.827   5.569 -0.1614 -1.2704 -0.1701
   36MOL   H17126841   6.298   5.896   5.684 -3.2662  0.6399  0.8668
   36MOL   H17226842   6.419   5.954   5.517  2.4742  0.1636 -1.1449
   36MOL   H17326843   6.512   5.805   5.538  0.4098  0.3716 -1.0913
   36MOL   H17426844   6.281   5.831   5.349  0.3160  1.4673 -2.1398
   36MOL   H17526845   6.389   5.690   5.382 -0.0397  1.0126  0.1121
   36MOL   H17626846   6.591   5.780   5.308 -0.1909  1.0006  1.5229
   36MOL   H17726847   6.509   5.939   5.289 -1.3968  0.9667 -3.4242
   36MOL   H17826848   6.399   5.974   5.076 -0.0646  0.4005 -1.3683
   36MOL   H17926849   6.350   5.915   4.861 -0.9472 -0.7955 -0.1770
   36MOL   H18026850   6.342   5.753   4.889  1.5943 -0.3820  0.6721
   36MOL   H18126851   6.148   5.953   5.021 -1.9024  0.9873 -3.7568
   36MOL   H18226852   6.118   5.856   4.882 -0.6710 -0.2558  1.0093
   36MOL   H18326853   6.167   5.734   5.158  4.3153 -0.7230 -3.2527
   36MOL   H18426854   6.114   5.651   5.011 -1.8461 -1.1161  1.1516
   36MOL   H18526855   5.913   5.826   4.997  0.9094  0.2649 -0.2956
   36MOL   H18626856   5.901   5.696   5.118 -0.6679  0.8307  0.3198
   36MOL   H18726857   5.942   5.848   5.302 -0.4097  2.6156  0.6325
   36MOL   H18826858   5.966   5.988   5.186 -1.2777  0.3043 -0.4930
   36MOL   H18926859   5.713   5.833   5.231 -0.1467  0.4503  0.3348
   36MOL   H19026860   5.721   5.957   5.111 -1.4073 -0.4117  1.0924
   36MOL   H19126861   5.807   6.073   5.356  1.7660  0.2761 -1.7967
   36MOL   C19226862   5.613   6.093   5.310 -0.4658  0.1409 -0.0403
   36MOL   O19326863   5.522   6.065   5.240 -0.2346  0.3255 -0.4086
   36MOL   C19426864   5.600   6.202   5.422 -0.3289  0.0337 -0.4168
   36MOL   C19526865   5.456   6.233   5.449  0.4525  0.0658  0.2854
   36MOL   C19626866   5.388   6.340   5.356 -0.1561 -0.8996 -0.1469
   36MOL   C19726867   5.279   6.424   5.429  0.2406  0.1288 -0.2285
   36MOL   C19826868   5.149   6.345   5.456 -0.7301 -0.2752 -0.3241
   36MOL   O19926869   5.148   6.240   5.515  0.7971  0.1642  0.0742
   36MOL   N20026870   5.038   6.396   5.408 -0.3545 -0.2006  0.2639
   36MOL   C20126871   4.898   6.347   5.405 -0.5896  0.0020  0.3704
   36MOL   C20226872   4.829   6.390   5.543  0.8286 -0.0302  0.0563
   36MOL   C20326873   4.833   6.537   5.578 -0.4025 -0.2264  0.3117
   36MOL   C20426874   4.750   6.563   5.702 -0.5211  0.1752  0.3157
   36MOL   C20526875   4.697   6.711   5.699  0.0904 -0.2015 -0.5913
   36MOL   C20626876   4.592   6.741   5.809  0.6471  0.8694 -0.2845
   36MOL   N20726877   4.662   6.735   5.934 -0.6051  0.4345  0.2567
   36MOL   H20826878   5.624   6.151   5.516 -2.0538 -1.2795 -0.6535
   36MOL   H20926879   5.666   6.285   5.399 -0.0530  0.0797  0.5260
   36MOL   H21026880   5.397   6.143   5.431  1.0209  0.2811 -2.7849
   36MOL   H21126881   5.443   6.267   5.552  3.1338  0.9941  0.3371
   36MOL   H21226882   5.344   6.293   5.268  1.6361 -0.2575 -1.4194
   36MOL   H21326883   5.468   6.404   5.319 -0.1111 -1.6413 -1.3463
   36MOL   H21426884   5.245   6.500   5.359  1.1179  0.6217 -0.1120
   36MOL   H21526885   5.320   6.471   5.517 -0.9443  0.7579 -0.0011
   36MOL   H21626886   5.038   6.487   5.364 -1.2735 -0.8914 -1.2199
   36MOL   H21726887   4.837   6.385   5.323 -0.4855 -0.3988  0.1065
   36MOL   H21826888   4.895   6.238   5.406  3.9812 -0.2925 -3.0356
   36MOL   H21926889   4.727   6.354   5.531  0.9531  0.2165 -2.0910
   36MOL   H22026890   4.887   6.341   5.621  1.0193 -1.8653 -1.1895
   36MOL   H22126891   4.796   6.601   5.498  1.3822  0.5646  0.0960
   36MOL   H22226892   4.935   6.574   5.584  0.2217 -1.7522 -0.7204
   36MOL   H22326893   4.666   6.494   5.696 -0.0750 -0.4001  0.6064
   36MOL   H22426894   4.808   6.535   5.790 -0.1709  1.1715  0.4017
   36MOL   H22526895   4.776   6.785   5.711  0.5029 -0.3976 -2.0473
   36MOL   H22626896   4.643   6.739   5.609 -0.6181  0.2321 -0.0421
   36MOL   H22726897   4.507   6.673   5.806  1.4659 -0.1209 -1.2730
   36MOL   H22826898   4.543   6.838   5.797 -0.6069  0.4029  0.9737
   36MOL   H22926899   4.697   6.643   5.958 -0.8874  0.0227 -0.8443
   36MOL   C23026900   4.661   6.828   6.030  0.4195  0.3769  0.4286
   36MOL   O23126901   4.600   6.937   6.018 -0.3071  0.2961  0.1242
   36MOL   C23226902   4.711   6.792   6.169 -0.5645 -0.2638 -0.3663
   36MOL   C23326903   4.861   6.771   6.188  0.4568  0.4129 -0.0576
   36MOL   C23426904   4.908   6.739   6.334  0.2757 -0.9803  0.0458
   36MOL   C23526905   5.061   6.737   6.357 -0.6954  1.0432  0.4848
   36MOL   C23626906   5.141   6.863   6.324 -0.7147 -0.1016 -0.0240
   36MOL   O23726907   5.092   6.969   6.366 -0.4202  0.1201  0.2387
   36MOL   N23826908   5.261   6.855   6.258  0.1787  0.1241 -0.5627
   36MOL   C23926909   5.324   6.968   6.195 -0.0977 -0.5681  0.2774
   36MOL   C24026910   5.324   6.946   6.050  0.1534  0.1205 -0.1511
   36MOL   C24126911   5.396   7.066   5.982  0.1435 -0.7297  0.3400
   36MOL   C24226912   5.541   7.084   6.021 -0.2397 -0.4494 -0.0148
   36MOL   C24326913   5.625   6.955   6.013 -0.0836  0.1255  0.3389
   36MOL   C24426914   5.781   6.953   5.990  0.1873 -0.0865 -0.2069
   36MOL   N24526915   5.849   7.018   6.104 -0.3389 -0.1146 -0.2295
   36MOL   H24626916   4.687   6.874   6.237 -1.2514 -0.0413 -0.8694
   36MOL   H24726917   4.645   6.720   6.218  0.5753 -1.6108 -0.7833
   36MOL   H24826918   4.905   6.699   6.119 -2.6018 -0.4621 -1.1253
   36MOL   H24926919   4.905   6.869   6.167 -1.3111  1.5822  1.5632
   36MOL   H25026920   4.855   6.651   6.368 -1.5150 -0.1738 -0.5741
   36MOL   H25126921   4.862   6.811   6.402 -0.4160 -1.2425 -0.1362
   36MOL   H25226922   5.108   6.655   6.302 -1.2291  0.8823  0.2674
   36MOL   H25326923   5.079   6.717   6.463  0.4381  1.0248  0.2908
   36MOL   H25426924   5.296   6.762   6.242 -0.4346 -0.1653 -0.2689
   36MOL   H25526925   5.287   7.064   6.231  0.0658 -0.2859 -0.3067
   36MOL   H25626926   5.428   6.969   6.227 -0.2957 -0.8598  0.9397
   36MOL   H25726927   5.371   6.851   6.026 -0.1215  0.2272 -1.1641
   36MOL   H25826928   5.224   6.954   6.006  0.7503  0.5200 -1.4504
   36MOL   H25926929   5.350   7.163   6.002  1.7976  0.2373 -0.4225
   36MOL   H26026930   5.384   7.047   5.875  0.7348 -0.5840  0.2492
   36MOL   H26126931   5.576   7.159   5.951  0.2766  0.5515  1.2960
   36MOL   H26226932   5.545   7.132   6.119 -1.2649  0.1447 -0.2483
   36MOL   H26326933   5.611   6.891   6.100  1.3457 -1.2557 -0.4225
   36MOL   H26426934   5.588   6.892   5.932  3.3665 -1.0217 -0.4594
   36MOL   H26526935   5.808   6.992   5.892 -0.5604  1.5516  0.2190
   36MOL   H26626936   5.806   6.847   5.981 -1.1637 -0.5129  0.8166
   36MOL   H26726937   5.800   7.040   6.189  0.3038 -0.1284  0.1468
   36MOL   C26826938   5.975   7.067   6.086 -0.0423 -0.0262  0.1589
   36MOL   O26926939   6.034   7.062   5.977 -0.4324 -0.6187 -0.6189
   36MOL   C27026940   6.041   7.115   6.214  0.2881 -0.4453 -0.4017
   36MOL   C27126941   6.187   7.125   6.199 -0.4037  0.1988  0.5489
   36MOL   C27226942   6.262   7.145   6.336 -0.5143 -0.1636  0.1949
   36MOL   C27326943   6.406   7.172   6.314 -0.1289  0.0288  0.3369
   36MOL   C27426944   6.475   7.185   6.449 -1.1851 -0.3731  0.0870
   36MOL   O27526945   6.503   7.298   6.489 -0.9421  0.1538 -0.1634
   36MOL   N27626946   6.514   7.078   6.514 -0.3389  0.2936  0.1738
   36MOL   C27726947   6.584   7.084   6.643  0.0892  0.4403  0.5669
   36MOL   C27826948   6.570   6.953   6.724 -0.3895 -0.1721 -0.6947
   36MOL   C27926949   6.647   6.961   6.860  0.2068 -0.5227 -0.0903
   36MOL   C28026950   6.599   6.865   6.970 -0.8090  0.0053 -0.0005
   36MOL   C28126951   6.604   6.722   6.932  0.3212 -0.3294  0.0916
   36MOL   C28226952   6.568   6.646   7.063  0.2566 -0.3392  0.1185
   36MOL   N28326953   6.560   6.504   7.044  0.1249 -0.1040  0.2214
   36MOL   H28426954   6.005   7.209   6.255 -1.4015 -0.5345 -1.6733
   36MOL   H28526955   6.020   7.041   6.291  0.1723 -0.4328 -0.4221
   36MOL   H28626956   6.234   7.035   6.159 -0.7068  0.0848  0.4521
   36MOL   H28726957   6.212   7.206   6.131 -0.0025  0.1388  0.6220
   36MOL   H28826958   6.247   7.054   6.394  1.3147 -0.4937  0.1870
   36MOL   H28926959   6.223   7.236   6.382  0.2642  0.9552 -1.3042
   36MOL   H29026960   6.407   7.263   6.254 -0.0759  0.1921  0.5847
   36MOL   H29126961   6.466   7.103   6.255  0.6957  0.9869  0.0351
   36MOL   H29226962   6.483   6.988   6.479  1.4787  0.0386 -0.8442
   36MOL   H29326963   6.689   7.099   6.617  0.4813 -0.1290  1.7970
   36MOL   H29426964   6.553   7.172   6.699 -2.6840 -0.5370  0.6443
   36MOL   H29526965   6.465   6.933   6.742 -0.1915 -1.6564 -1.1330
   36MOL   H29626966   6.614   6.871   6.667 -0.2104  0.0820 -0.9210
   36MOL   H29726967   6.623   7.060   6.899  0.5604 -1.0288  1.4681
   36MOL   H29826968   6.756   6.954   6.859  0.2063 -0.4671 -1.6254
   36MOL   H29926969   6.661   6.885   7.057 -1.9824  1.1924  0.5956
   36MOL   H30026970   6.496   6.886   6.998 -0.5154 -1.3916  2.2197
   36MOL   H30126971   6.535   6.689   6.855  2.1075 -2.7672 -0.5319
   36MOL   H30226972   6.698   6.699   6.880 -0.9252 -3.7213 -0.7874
   36MOL   H30326973   6.475   6.686   7.104  1.6424  2.1633  0.9025
   36MOL   H30426974   6.649   6.668   7.132 -0.0401 -0.1622  0.4128
   36MOL   H30526975   6.625   6.458   6.983 -1.3703 -0.3043 -1.2734
   36MOL   C30626976   6.468   6.425   7.105 -0.2452  0.3617 -0.9211
   36MOL   O30726977   6.375   6.457   7.177  0.3356  0.3240 -0.6837
   36MOL   C30826978   6.491   6.275   7.081 -1.1414  0.2570  0.3979
   36MOL   C30926979   6.360   6.198   7.078  0.3159  0.1745  0.3529
   36MOL   C31026980   6.267   6.222   6.960 -0.4600  0.2193  0.3164
   36MOL   C31126981   6.122   6.161   6.986  0.3287  0.6300 -0.1049
   36MOL   C31226982   6.033   6.166   6.863  0.3432  0.1355  0.8426
   36MOL   O31326983   6.061   6.074   6.782 -0.0710  0.4703 -0.2449
   36MOL   N31426984   5.958   6.273   6.826 -0.0708  0.4725  0.4479
   36MOL   C31526985   5.917   6.294   6.690  0.3131 -0.5953 -0.3539
   36MOL   C31626986   5.797   6.388   6.694  0.3805 -0.7492  0.2912
   36MOL   C31726987   5.755   6.441   6.559  0.1324 -0.1312 -0.2555
   36MOL   C31826988   5.652   6.554   6.564  0.0117  0.5728  0.3074
   36MOL   C31926989   5.724   6.687   6.592  0.0647 -0.0980 -0.1048
   36MOL   C32026990   5.634   6.800   6.557 -0.2307  1.1608 -0.1535
   36MOL   N32126991   5.681   6.930   6.606 -0.1217  0.0870 -0.4089
   36MOL   H32226992   6.550   6.261   6.991 -1.7267  0.6552 -0.0492
   36MOL   H32326993   6.553   6.241   7.164 -1.1412  2.5160  1.3704
   36MOL   H32426994   6.383   6.094   7.101  0.3501  0.1734  0.3127
   36MOL   H32526995   6.293   6.223   7.160 -1.6132 -1.2761 -0.7236
   36MOL   H32626996   6.316   6.184   6.870  0.2220  0.6196  0.5162
   36MOL   H32726997   6.255   6.329   6.946  0.5714  0.1124 -1.5622
   36MOL   H32826998   6.073   6.217   7.066 -1.6940  1.7334 -2.0508
   36MOL   H32926999   6.124   6.056   7.013 -0.3683  0.6124 -0.1137
   36MOL   H33027000   5.950   6.348   6.893 -0.9572  0.0185  0.8441
   36MOL   H33127001   5.987   6.345   6.624 -0.4488 -1.0805 -1.5525
   36MOL   H33227002   5.892   6.202   6.637  0.7867 -0.0034 -1.6153
   36MOL   H33327003   5.714   6.334   6.741  0.0412 -1.0766 -0.6862
   36MOL   H33427004   5.797   6.463   6.774  0.0119 -3.1367  2.6039
   36MOL   H33527005   5.723   6.358   6.497 -0.8903 -0.6750  0.9754
   36MOL   H33627006   5.845   6.486   6.517  0.4842 -1.6456 -1.1633
   36MOL   H33727007   5.606   6.564   6.466  2.3122  2.3947 -0.6241
   36MOL   H33827008   5.567   6.537   6.631 -0.9684 -2.2575 -1.5559
   36MOL   H33927009   5.752   6.683   6.698  1.4896 -0.3181 -0.4801
   36MOL   H34027010   5.812   6.691   6.528 -0.3613 -3.1137 -0.9762
   36MOL   H34127011   5.548   6.800   6.624 -0.9218 -0.0083 -1.0325
   36MOL   H34227012   5.603   6.822   6.455  2.5343  1.3777 -0.9901
   36MOL   H34327013   5.626   6.964   6.684 -1.2061 -3.2333  0.3337
   36MOL   C34427014   5.792   6.994   6.572 -0.0821  0.1597  0.1806
   36MOL   O34527015   5.866   6.973   6.476  0.0103  0.0728 -0.1720
   36MOL   C34627016   5.816   7.120   6.654  0.7059 -0.8416 -0.2516
   36MOL   C34727017   5.960   7.169   6.657 -0.0257  0.0422 -0.0177
   36MOL   C34827018   6.068   7.079   6.718  0.9439  0.1673 -0.7120
   36MOL   C34927019   6.207   7.148   6.722 -0.1570 -0.3796 -0.0562
   36MOL   C35027020   6.221   7.221   6.860 -0.0842  0.4255  0.8855
   36MOL   O35127021   6.266   7.154   6.954  0.3342  0.0091  0.0544
   36MOL   N35227022   6.206   7.360   6.855 -0.3387  0.2285  0.4205
   36MOL   C35327023   6.235   7.437   6.973 -0.3475 -0.0006 -1.0691
   36MOL   C35427024   6.341   7.542   6.945  0.4617  1.0574  0.1477
   36MOL   C35527025   6.295   7.641   6.837  0.6521  0.1986  0.3962
   36MOL   C35627026   6.391   0.049   6.821  0.0561 -0.4367 -0.1487
   36MOL   C35727027   6.385   0.118   6.685  0.2461  0.0194 -0.8031
   36MOL   C35827028   6.453   0.248   6.677  1.0386 -0.3517 -0.0017
   36MOL   N35927029   6.596   0.235   6.713  0.0243 -0.2587 -0.1024
   36MOL   H36027030   5.763   7.191   6.591 -1.3930 -0.5749  1.7497
   36MOL   H36127031   5.764   7.108   6.749  0.4704  0.2825 -0.2350
   36MOL   H36227032   6.004   7.182   6.559  0.0733  0.0161  0.0228
   36MOL   H36327033   5.959   7.258   6.719 -2.0356  0.1932 -0.2353
   36MOL   H36427034   6.075   6.994   6.650  0.0854  2.2014 -3.4248
   36MOL   H36527035   6.031   7.036   6.812 -0.4124  0.7918 -0.9520
   36MOL   H36627036   6.204   7.221   6.641 -3.2436 -0.9584 -0.5323
   36MOL   H36727037   6.291   7.081   6.707  0.7630  0.2857  2.0207
   36MOL   H36827038   6.173   7.393   6.765  0.4085 -0.1271  0.0058
   36MOL   H36927039   6.153   7.500   7.006  0.3076 -0.6354  1.9590
   36MOL   H37027040   6.265   7.376   7.059  1.8835  0.8711 -1.1770
   36MOL   H37127041   6.373   7.595   7.035  0.9573  1.2872 -0.1656
   36MOL   H37227042   6.431   7.493   6.909  0.4432  0.6296  0.6678
   36MOL   H37327043   6.199   7.687   6.860  0.0266  0.2177 -2.0780
   36MOL   H37427044   6.280   7.582   6.746  1.2511  1.4371 -0.5147
   36MOL   H37527045   6.377   0.121   6.902  3.0515 -0.5090  0.5019
   36MOL   H37627046   6.494   0.018   6.838  0.0535  0.2752  1.2381
   36MOL   H37727047   6.429   0.064   6.601  1.4855 -0.6643  0.2591
   36MOL   H37827048   6.280   0.134   6.660 -0.0611 -0.6470  0.0681
   36MOL   H37927049   6.401   0.328   6.729  1.0452 -1.5914  1.9799
   36MOL   H38027050   6.451   0.287   6.576  0.1459  0.2187  0.2303
   36MOL   H38127051   6.640   0.159   6.663 -1.2896 -0.4105 -1.0413
   36MOL   C38227052   6.669   0.308   6.799  0.8170 -0.2802 -0.0550
   36MOL   O38327053   6.617   0.398   6.863  0.1120  0.4345 -0.1816
   36MOL   C38427054   6.820   0.277   6.812  0.3194 -0.2316  0.0393
   36MOL   C38527055   6.902   0.397   6.868  0.0823  0.1822  0.5553
   36MOL   C38627056   6.893   0.540   6.781 -0.2879  0.2785 -0.2495
   36MOL   C38727057   6.951   0.648   6.870 -0.1362  0.2117 -0.9552
   36MOL   C38827058   6.857   0.744   6.929 -0.4205 -0.1468 -0.1108
   36MOL   O38927059   6.903   0.842   6.992 -0.2028  0.2340 -0.0984
   36MOL   N39027060   6.730   0.713   6.929 -0.3463 -0.2570 -0.6173
   36MOL   C39127061   6.628   0.753   7.020 -0.2095  0.1065 -0.3038
   36MOL   C39227062   6.640   0.715   7.162 -0.2504 -0.4428 -0.0834
   36MOL   C39327063   6.536   0.798   7.229  0.1516  0.8257  0.4485
   36MOL   C39427064   6.529   0.771   7.379 -0.0125  0.2855  0.5505
   36MOL   C39527065   6.445   0.859   7.467  0.0826 -0.3684 -0.2830
   36MOL   C39627066   6.297   0.888   7.416 -0.3488  0.0008 -0.0267
   36MOL   N39727067   6.236   0.976   7.517  0.0158  0.4494  0.0816
   36MOL   H39827068   6.831   0.188   6.873 -0.1517 -1.1414 -1.1795
   36MOL   H39927069   6.858   0.243   6.716  3.2854  0.0035  1.0979
   36MOL   H40027070   6.870   0.419   6.970 -3.1367 -0.2952 -0.2932
   36MOL   H40127071   7.004   0.357   6.871 -0.4483 -1.1062  2.4675
   36MOL   H40227072   6.793   0.566   6.745 -0.9043  1.0659  1.9010
   36MOL   H40327073   6.942   0.533   6.684  0.7315 -1.1752  0.3480
   36MOL   H40427074   7.018   0.703   6.803 -0.6790  0.9040 -0.9472
   36MOL   H40527075   7.018   0.606   6.944 -1.5591 -0.7060 -0.1734
   36MOL   H40627076   6.706   0.633   6.874 -3.4149 -0.0302  0.3181
   36MOL   H40727077   6.627   0.861   7.005 -0.9406  0.1221 -0.1710
   36MOL   H40827078   6.531   0.719   6.982  0.9277 -1.3241 -2.0306
   36MOL   H40927079   6.628   0.607   7.176 -1.1417 -0.5275 -1.4963
   36MOL   H41027080   6.740   0.744   7.198  1.0765 -2.9454 -1.6180
   36MOL   H41127081   6.438   0.771   7.189 -0.5804  1.2223  1.9275
   36MOL   H41227082   6.541   0.901   7.194  2.4840  0.5869  0.0467
   36MOL   H41327083   6.488   0.670   7.382 -1.4802  0.8703  0.5171
   36MOL   H41427084   6.632   0.782   7.415 -0.0168 -0.5804  0.8472
   36MOL   H41527085   6.440   0.806   7.562  2.1377  1.2857  0.8001
   36MOL   H41627086   6.496   0.953   7.489 -2.3188  0.8933  0.1049
   36MOL   H41727087   6.243   0.794   7.407  0.1412 -0.6019  2.8182
   36MOL   H41827088   6.304   0.931   7.316  2.1166  0.0086  0.1040
   36MOL   H41927089   6.188   0.924   7.589  0.1045 -0.5231 -0.5543
   36MOL   C42027090   6.250   1.107   7.527  0.0015  0.0293 -0.5025
   36MOL   O42127091   6.305   1.169   7.434  0.4200  0.2284  0.4361
   36MOL   C42227092   6.177   1.179   7.644 -0.2551  0.5607 -0.1017
   36MOL   C42327093   6.146   1.325   7.604 -0.0332  0.2055  0.7654
   36MOL   C42427094   6.070   1.406   7.707 -0.3344  0.9752  1.4277
   36MOL   C42527095   6.034   1.549   7.659  0.3231 -0.4104 -0.1673
   36MOL   C42627096   5.970   1.644   0.049 -0.0830  0.4239  0.8372
   36MOL   O42727097   5.924   1.602   0.149  0.7240 -0.1554 -0.6872
   36MOL   N42827098   5.958   1.770   0.011  0.2678 -0.3298  0.1915
   36MOL   C42927099   5.894   1.876   0.089 -0.5503  0.9347 -0.4303
   36MOL   C43027100   5.988   1.951   0.183 -0.3328  0.0969 -0.0474
   36MOL   C43127101   5.918   2.032   0.288  0.0021 -0.0257 -0.1731
   36MOL   C43227102   5.882   1.940   0.406 -0.5704  0.0125 -0.2076
   36MOL   C43327103   5.753   1.995   0.479 -0.4998  0.1807 -0.2641
   36MOL   C43427104   5.714   1.918   0.606 -0.0581  0.3629 -0.4261
   36MOL   N43527105   5.597   1.982   0.674 -0.3436  0.0750  0.8379
   36MOL   H43627106   6.083   1.127   7.658 -0.5982  0.6148 -2.0792
   36MOL   H43727107   6.241   1.171   0.024  0.4966  1.2120 -0.5752
   36MOL   H43827108   6.236   1.376   7.568 -1.5431  0.3969 -2.9204
   36MOL   H43927109   6.084   1.309   7.516  0.7227 -0.1611  0.2885
   36MOL   H44027110   6.132   1.418   0.088  0.1203 -1.1990  1.4133
   36MOL   H44127111   5.980   1.351   0.028 -0.0940 -0.7582 -0.9845
   36MOL   H44227112   5.968   1.540   7.573 -2.0645 -0.2704  1.5831
   36MOL   H44327113   6.123   1.595   7.618 -0.1945 -0.5385 -1.4458
   36MOL   H44427114   5.988   1.796   7.626  1.2813  0.6833  0.7819
   36MOL   H44527115   5.847   1.939   0.013 -1.2358 -1.1685 -1.7862
   36MOL   H44627116   5.806   1.838   0.141  1.5767 -1.1362  1.7512
   36MOL   H44727117   6.066   1.893   0.231  1.6910  0.4403 -2.7881
   36MOL   H44827118   6.039   2.015   0.112  1.3408  0.9966  1.9215
   36MOL   H44927119   5.831   2.077   0.240  0.1021  0.4417  0.0734
   36MOL   H45027120   5.990   2.108   0.320  1.3188 -1.4588  0.3245
   36MOL   H45127121   5.859   1.838   0.377 -1.3796 -0.9542  3.5226
   36MOL   H45227122   5.962   1.937   0.480 -0.1978 -0.2982 -0.6226
   36MOL   H45327123   5.784   2.095   0.508  1.0562 -1.0592  2.5411
   36MOL   H45427124   5.675   1.998   0.403 -0.6457  0.2135 -0.1145
   36MOL   H45527125   5.790   1.934   0.681  0.2318 -0.2677 -0.5873
   36MOL   H45627126   5.710   1.810   0.596 -1.0399  0.3181  0.3514
   36MOL   H45727127   5.626   2.045   0.748 -0.2419  1.0666 -0.0191
   36MOL   C45827128   5.469   1.955   0.643 -0.0518 -0.2263  0.5076
   36MOL   O45927129   5.451   1.862   0.561 -0.3740  0.4715  0.9059
   36MOL   C46027130   5.358   2.038   0.696 -0.2730 -0.0608 -0.0920
   36MOL   C46127131   5.318   1.995   0.834 -0.1700  0.4667  0.2384
   36MOL   C46227132   5.201   2.068   0.906 -0.1884 -0.0290  0.2286
   36MOL   C46327133   5.184   2.031   1.057 -0.5530  0.1146  0.2133
   36MOL   C46427134   5.126   1.892   1.071  0.3669  0.0478  0.0677
   36MOL   O46527135   5.015   1.864   1.024  0.2602  0.4206  0.3324
   36MOL   N46627136   5.203   1.809   1.145 -0.1707 -0.1650 -0.4043
   36MOL   C46727137   5.154   1.681   1.199 -0.4795  0.0634 -0.0909
   36MOL   C46827138   5.210   1.635   1.333 -0.3026 -0.1343 -0.1663
   36MOL   C46927139   5.255   1.742   1.424  0.2334 -0.7478 -0.1768
   36MOL   C47027140   5.335   1.694   1.546  0.4496 -0.2698 -0.1374
   36MOL   C47127141   5.357   1.812   1.649 -1.2828 -0.7745  0.6011
   36MOL   C47227142   5.465   1.916   1.627 -0.2855 -0.1269 -0.4480
   36MOL   N47327143   5.472   2.010   1.740 -0.2640  0.5187 -0.9689
   36MOL   H47427144   5.386   2.142   0.684  1.9859 -0.5340  0.8150
   36MOL   H47527145   5.274   2.007   0.634 -0.3115  0.9946 -0.5705
   36MOL   H47627146   5.300   1.887   0.837  0.4490  0.3039 -1.6717
   36MOL   H47727147   5.406   2.017   0.895  0.5861  0.6548 -0.9098
   36MOL   H47827148   5.117   2.033   0.846 -1.1449 -1.0568  2.1107
   36MOL   H47927149   5.207   2.176   0.896  0.2125 -0.2037 -1.4985
   36MOL   H48027150   5.118   2.102   1.107  0.1303  1.4561 -0.7822
   36MOL   H48127151   5.272   2.040   1.120  0.2496 -1.0249 -0.7187
   36MOL   H48227152   5.296   1.840   1.168  0.8722 -4.0234  0.9551
   36MOL   H48327153   5.046   1.693   1.191 -0.3731  0.5319 -0.9263
   36MOL   H48427154   5.179   1.609   1.121  2.6279 -0.0942  0.9804
   36MOL   H48527155   5.147   1.562   1.384 -1.1298 -0.0814 -1.1009
   36MOL   H48627156   5.300   1.576   1.312  2.0251  2.5277  1.8594
   36MOL   H48727157   5.162   1.786   1.459  1.9199  2.8350  0.0722
   36MOL   H48827158   5.313   1.823   1.380 -1.4488  0.5505 -0.0314
   36MOL   H48927159   5.277   1.620   1.602  1.6558 -0.3623  1.0124
   36MOL   H49027160   5.426   1.638   1.527 -1.1217 -4.4945  3.7945
   36MOL   H49127161   5.265   1.871   1.651 -0.8032  0.0172 -0.4137
   36MOL   H49227162   5.381   1.770   1.747  1.0509 -0.1832  0.3131
   36MOL   H49327163   5.441   1.965   1.533 -4.5463 -1.0260  0.0438
   36MOL   H49427164   5.563   1.871   1.615  0.4186  1.5383 -1.1581
   36MOL   H49527165   5.494   1.972   1.831  0.3044 -1.5694 -1.9557
   36MOL   C49627166   5.509   2.138   1.731 -0.2287 -0.2792  0.5505
   36MOL   O49727167   5.530   2.198   1.626 -0.5417 -0.4662 -0.4471
   36MOL   C49827168   5.547   2.204   1.863 -1.2497  0.3514 -0.0980
   36MOL   C49927169   5.512   2.356   1.847 -0.0547 -0.3863 -0.2107
   36MOL   C50027170   5.365   2.389   1.862 -0.5680  0.0565  0.6416
   36MOL   C50127171   5.319   2.513   1.780  0.6470  0.9545 -0.7105
   36MOL   C50227172   5.170   2.538   1.792  0.6331  0.0623 -0.1916
   36MOL   O50327173   5.085   2.454   1.827  0.1073  0.5955  0.0725
   36MOL   N50427174   5.133   2.662   1.758 -0.2118 -0.3660 -0.2330
   36MOL   C50527175   5.012   2.732   1.801  0.5057  0.6449  0.5846
   36MOL   C50627176   5.003   2.859   1.709 -0.5607  0.1356 -0.2934
   36MOL   C50727177   5.127   2.953   1.732  0.3039 -0.7133  0.3804
   36MOL   C50827178   5.137   3.074   1.629 -0.2220  0.3321 -0.0898
   36MOL   C50927179   5.258   3.165   1.651  0.1318  0.1873  0.3279
   36MOL   C51027180   5.391   3.115   1.605 -0.7373 -0.1509 -0.4687
   36MOL   N51127181   5.500   3.197   1.651  0.4760 -0.2870  0.5330
   36MOL   H51227182   5.482   2.160   1.938 -0.2636 -1.3208 -0.1958
   36MOL   H51327183   5.654   2.194   1.879 -1.3835  0.7223  1.0179
   36MOL   H51427184   5.571   2.408   1.923  3.4434  1.5436 -4.0307
   36MOL   H51527185   5.559   2.404   1.761 -0.5332  1.2886  0.4453
   36MOL   H51627186   5.339   2.404   1.967 -3.0316 -3.1099  0.5748
   36MOL   H51727187   5.302   2.303   1.841  0.2904 -0.6470  0.9261
   36MOL   H51827188   5.333   2.499   1.673 -0.8529  0.8154 -0.9014
   36MOL   H51927189   5.380   2.597   1.816  0.1060  0.6112  1.0767
   36MOL   H52027190   5.204   2.716   1.711 -2.7992  0.9824 -2.8271
   36MOL   H52127191   4.937   2.657   1.775  0.1346  0.9609  0.7459
   36MOL   H52227192   5.025   2.759   1.906 -0.7895  1.9978  0.4064
   36MOL   H52327193   5.000   2.832   1.604  0.9123 -2.2451  0.2392
   36MOL   H52427194   4.909   2.914   1.719 -0.3351  0.0766  2.4198
   36MOL   H52527195   5.224   2.903   1.724 -0.0154 -1.2584 -0.0876
   36MOL   H52627196   5.133   2.984   1.836 -1.1125  0.8374  0.0092
   36MOL   H52727197   5.141   3.038   1.526 -0.3824 -0.3999  0.1519
   36MOL   H52827198   5.043   3.128   1.644  0.9094  1.9189  1.3902
   36MOL   H52927199   5.234   3.264   1.612  1.4519 -0.0163 -1.0277
   36MOL   H53027200   5.266   3.180   1.759  0.2114 -2.7772  0.7841
   36MOL   H53127201   5.397   3.098   1.497  0.6855 -1.4482 -0.1997
   36MOL   H53227202   5.396   3.019   1.656  0.5345  1.1303  1.9235
   36MOL   H53327203   5.493   3.253   1.735 -1.3277  1.8741 -1.0094
   36MOL   C53427204   5.622   3.179   1.607  0.1828  0.0575  0.7793
   36MOL   O53527205   5.650   3.111   1.507 -0.5323 -0.3555 -0.1858
   36MOL   C53627206   5.730   3.238   1.693 -0.4961 -0.2434 -0.0076
   36MOL   C53727207   5.853   3.281   1.615 -0.8284 -0.3973 -0.4094
   36MOL   C53827208   5.967   3.346   1.706 -0.8421 -0.4556 -0.4825
   36MOL   C53927209   6.035   3.241   1.782  0.0062  0.0717 -0.6337
   36MOL   C54027210   6.184   3.230   1.764 -0.2089  0.2382 -0.4859
   36MOL   O54127211   6.230   3.195   1.660  0.0540 -0.7294  0.0391
   36MOL   N54227212   6.251   3.254   1.876  0.0224  0.3220  0.7444
   36MOL   C54327213   6.398   3.258   1.875  0.9124  0.0405 -0.7217
   36MOL   C54427214   6.445   3.402   1.899 -0.2646 -0.9357 -0.1265
   36MOL   C54527215   6.598   3.414   1.881 -0.4754 -0.1873  0.6753
   36MOL   C54627216   6.688   3.337   1.980 -0.0260 -0.5239 -0.0607
   36MOL   C54727217   6.837   3.375   1.979 -0.0218  0.7420 -0.3202
   36MOL   C54827218   6.927   3.304   2.080 -0.7467  0.3481  0.1226
   36MOL   N54927219   6.922   3.162   2.055  0.1646  0.1246 -0.9926
   36MOL   H55027220   5.691   3.321   1.751  0.9759 -0.0928  0.7744
   36MOL   H55127221   5.761   3.169   1.771 -1.3315  0.8173  1.2871
   36MOL   H55227222   5.881   3.201   1.546  0.5692 -0.7162  0.5061
   36MOL   H55327223   5.821   3.353   1.540  1.6003 -0.3340 -1.4515
   36MOL   H55427224   5.930   3.420   1.777 -1.2668 -1.3148  0.1974
   36MOL   H55527225   6.038   3.402   1.645  0.1548 -0.2327  0.8569
   36MOL   H55627226   6.001   3.142   1.752  2.7362 -0.9488 -0.5063
   36MOL   H55727227   5.999   3.247   1.885  2.1709  1.8508  0.0507
   36MOL   H55827228   6.202   3.281   1.960 -0.2800  0.6252  0.4737
   36MOL   H55927229   6.434   3.205   1.963  0.6276 -1.2803 -1.3873
   36MOL   H56027230   6.443   3.216   1.785 -0.1463 -3.1551  0.1516
   36MOL   H56127231   6.393   3.468   1.830  0.4115 -0.0531  0.1977
   36MOL   H56227232   6.405   3.436   1.995  1.9189  0.8356  0.1968
   36MOL   H56327233   6.618   3.517   1.913 -1.3970 -0.0011  0.6735
   36MOL   H56427234   6.632   3.399   1.779  1.0879 -0.6201  1.2461
   36MOL   H56527235   6.650   3.363   2.079 -1.7754 -1.1617 -0.5337
   36MOL   H56627236   6.671   3.231   1.966 -1.2534 -0.1679 -1.4927
   36MOL   H56727237   6.875   3.365   1.877  2.3252 -0.7663  0.6873
   36MOL   H56827238   6.847   3.483   1.994  1.9557  1.1903 -4.2326
   36MOL   H56927239   6.905   3.329   2.184 -0.0979  1.2574  0.0468
   36MOL   H57027240   7.029   3.341   2.066 -1.2155  1.4831 -0.3344
   36MOL   H57127241   6.859   3.126   1.984 -1.1682 -1.7403  1.0527
   36MOL   C57227242   7.023   3.084   2.102 -0.4999  0.3569 -0.1828
   36MOL   O57327243   7.119   3.132   2.165  0.1746 -0.3471  0.3120
   36MOL   C57427244   7.011   2.934   2.090  0.0117 -0.0816 -0.3235
   36MOL   C57527245   7.136   2.859   2.114  0.6515  0.3352 -0.2185
   36MOL   C57627246   7.114   2.705   2.081 -0.1830 -0.3570 -0.5653
   36MOL   C57727247   7.236   2.612   2.054 -0.2470 -1.2497  0.3903
   36MOL   C57827248   7.334   2.612   2.170 -0.0922  0.3103 -0.5841
   36MOL   O57927249   7.315   2.545   2.272 -0.4746 -0.0619  0.2825
   36MOL   N58027250   7.432   2.697   2.162 -0.0529 -0.0817 -0.6113
   36MOL   C58127251   7.526   2.727   2.269  0.2177  0.0177 -0.3124
   36MOL   C58227252   7.600   2.861   2.249 -0.3664 -0.0219  0.9938
   36MOL   C58327253   7.500   2.973   2.230 -0.1786 -0.2441  0.0556
   36MOL   C58427254   7.551   3.106   2.166 -0.2553  0.0121  0.1973
   36MOL   C58527255   7.431   3.207   2.138 -0.4179  0.0359  0.0442
   36MOL   C58627256   7.490   3.349   2.100  0.4370  1.4551  0.5786
   36MOL   N58727257   7.399   3.457   2.137 -0.1914 -0.0175 -0.7509
   36MOL   H58827258   6.932   2.900   2.157  1.3014 -0.6450  0.9358
   36MOL   H58927259   6.969   2.907   1.993 -1.1506 -2.5404  0.8171
   36MOL   H59027260   7.216   2.907   2.058  0.7969 -1.2090 -1.3629
   36MOL   H59127261   7.159   2.866   2.220 -0.9284  1.2772  0.0707
   36MOL   H59227262   7.063   2.709   1.985  1.0398  3.1622 -1.1382
   36MOL   H59327263   7.053   2.654   2.155 -0.0997 -1.6924 -1.4000
   36MOL   H59427264   7.286   2.624   1.958  2.0404  1.6187  1.8758
   36MOL   H59527265   7.202   2.508   2.060 -1.1675 -0.9262  0.9470
   36MOL   H59627266   7.441   2.747   2.075 -0.9934 -2.1968 -1.9470
   36MOL   H59727267   7.474   2.731   2.365  0.6006 -0.2003 -0.0922
   36MOL   H59827268   7.595   2.643   2.278 -0.3535 -0.4248  0.0113
   36MOL   H59927269   7.656   2.873   2.342  0.9382  1.7178  0.0176
   36MOL   H60027270   7.661   2.848   2.159 -0.5078  1.0931  0.7289
   36MOL   H60127271   7.480   3.002   2.333 -0.2196  0.4822 -0.1545
   36MOL   H60227272   7.406   2.939   2.187  0.2084 -1.0208 -0.1882
   36MOL   H60327273   7.632   3.152   2.223  0.7769  0.9586 -1.9675
   36MOL   H60427274   7.592   3.078   2.069  0.6589 -1.0216  0.8744
   36MOL   H60527275   7.358   3.174   2.064 -1.6713 -2.0281  2.1429
   36MOL   H60627276   7.382   3.225   2.233  2.7581 -1.1345  1.9741
   36MOL   H60727277   7.515   3.367   1.995  1.0036  2.4140  0.8673
   36MOL   H60827278   7.585   3.367   2.150  0.6702  0.7365  0.3984
   36MOL   H60927279   7.358   3.507   2.059 -1.8239 -0.1408  0.0202
   36MOL   C61027280   7.384   3.503   2.262  0.3768 -0.2354 -0.5619
   36MOL   O61127281   7.447   3.459   2.359 -0.9730  0.0956  0.0048
   36MOL   C61227282   7.286   3.608   2.294 -0.6956 -0.1271 -0.0578
   36MOL   C61327283   7.352   3.752   2.297  0.3067 -0.5143 -0.1515
   36MOL   C61427284   7.370   3.801   2.441 -0.3228 -0.5380  0.4640
   36MOL   C61527285   7.423   3.947   2.445  0.6161 -0.5397 -0.5081
   36MOL   C61627286   7.426   4.010   2.584  0.1396 -0.5080 -0.6459
   36MOL   O61727287   7.319   4.040   2.640 -0.5664  0.2627 -0.9662
   36MOL   N61827288   7.549   4.029   2.636  0.4980 -0.3329  0.1790
   36MOL   C61927289   7.570   4.091   2.767  0.5770 -0.0494 -0.1848
   36MOL   C62027290   0.014   4.090   2.819 -0.7599  0.4185 -0.0742
   36MOL   C62127291   0.089   3.952   2.814 -0.2649 -0.1113 -0.0088
   36MOL   C62227292   0.209   3.948   2.908 -0.1408  0.0201  0.4339
   36MOL   C62327293   0.282   3.814   2.902 -0.9964  0.0808  0.0534
   36MOL   C62427294   0.407   3.827   2.990 -0.5466  0.4159 -0.3235
   36MOL   N62527295   0.472   3.697   3.009 -0.7786 -0.6311 -0.6285
   36MOL   H62627296   7.213   3.598   2.213  0.5541  0.7882 -1.3179
   36MOL   H62727297   7.241   3.576   2.388 -0.8752  1.7271  0.4957
   36MOL   H62827298   7.450   3.760   2.250  0.7062  3.6648  1.1831
   36MOL   H62927299   7.279   3.816   2.247 -0.1849 -0.8662  0.1046
   36MOL   H63027300   7.441   3.729   2.483 -0.0112 -1.7779 -2.1027
   36MOL   H63127301   7.275   3.792   2.494 -0.5888  1.0601  0.2777
   36MOL   H63227302   7.359   4.020   2.395  0.0231  0.3377  1.4567
   36MOL   H63327303   7.522   3.963   2.402  2.1316 -0.2389  2.8951
   36MOL   H63427304   7.619   4.013   2.565  0.2513  2.2357 -0.7030
   36MOL   H63527305   7.544   4.196   2.765  2.1783  0.4522  2.9992
   36MOL   H63627306   7.501   4.050   2.840  1.3907 -0.9795  0.0856
   36MOL   H63727307   0.074   4.164   2.766 -0.0917  0.8625  1.2719
   36MOL   H63827308   0.026   4.127   2.921  0.2566  4.1819 -1.4684
   36MOL   H63927309   0.132   3.938   2.715 -0.0882 -0.5969  0.1369
   36MOL   H64027310   0.015   3.877   2.841 -2.3035  2.0441  0.5510
   36MOL   H64127311   0.271   4.028   2.869  2.2116 -2.4715 -1.1709
   36MOL   H64227312   0.177   3.968   3.010 -2.4244 -1.2074 -0.0050
   36MOL   H64327313   0.221   3.726   2.924 -1.2051  1.0733  3.6307
   36MOL   H64427314   0.315   3.786   2.802  0.2861  1.2063  0.1502
   36MOL   H64527315   0.378   3.872   3.085 -1.0983  0.0141 -0.2952
   36MOL   H64627316   0.474   3.897   2.941 -1.2983  1.9638  0.8028
   36MOL   H64727317   0.537   3.685   2.933  0.3627  0.9824  0.0600
   36MOL   C64827318   0.460   3.617   3.111  0.4737 -0.0426  0.4191
   36MOL   O64927319   0.371   3.637   3.196  0.2640 -0.0570  0.1285
   36MOL   C65027320   0.560   3.495   3.119 -0.3173  0.9598 -0.0231
   36MOL   C65127321   0.629   3.466   3.254 -0.1049 -0.4497  0.3550
   36MOL   C65227322   0.776   3.513   3.275  0.1944 -0.1360  0.2473
   36MOL   C65327323   0.790   3.664   3.273  0.9531  0.1397  0.3471
   36MOL   C65427324   0.733   3.735   3.400 -0.1168 -0.3667  0.1593
   36MOL   O65527325   0.803   3.740   3.498 -0.1194 -0.1332  0.0907
   36MOL   N65627326   0.608   3.775   3.399  0.2746  0.2050 -0.4422
   36MOL   C65727327   0.536   3.832   3.520 -0.8005  0.5922  0.3379
   36MOL   C65827328   0.384   3.822   3.504 -0.3467 -0.0780 -0.0106
   36MOL   C65927329   0.324   3.919   3.403  0.3675  0.2454 -0.2697
   36MOL   C66027330   0.178   3.887   3.362 -0.1993  0.5840 -0.1846
   36MOL   C66127331   0.086   3.886   3.479 -0.6196  0.8362  0.0598
   36MOL   C66227332   7.652   3.867   3.432  0.7040 -0.1251 -0.6369
   36MOL   N66327333   7.568   3.878   3.552  0.0644  0.3033 -0.0626
   36MOL   H66427334   0.498   3.411   3.087  2.8433 -1.3466 -0.3819
   36MOL   H66527335   0.633   3.516   3.040 -0.6220  0.8135 -0.3481
   36MOL   H66627336   0.561   3.513   3.326  2.6694 -1.0317  3.4556
   36MOL   H66727337   0.620   3.360   3.276 -0.2406 -0.2160  1.4844
   36MOL   H66827338   0.832   3.480   3.187  0.0461 -0.1514  0.1585
   36MOL   H66927339   0.836   3.468   3.353  3.3303 -0.4967 -2.2814
   36MOL   H67027340   0.754   3.703   3.179  1.3151  0.0604  0.1726
   36MOL   H67127341   0.896   3.690   3.272  0.6138  1.4803 -0.4864
   36MOL   H67227342   0.559   3.777   3.310 -1.4850 -0.4568  0.4886
   36MOL   H67327343   0.580   3.788   3.609  0.5200 -1.2509 -1.1676
   36MOL   H67427344   0.551   3.939   3.524 -0.7827  0.5154  3.1505
   36MOL   H67527345   0.358   3.717   3.488 -0.8841  0.0240  0.2012
   36MOL   H67627346   0.337   3.846   3.599  0.9552  0.9614  0.3790
   36MOL   H67727347   0.389   3.907   3.316  0.6853 -0.3416  0.0472
   36MOL   H67827348   0.327   4.026   3.423 -4.8874  0.5148 -0.2713
   36MOL   H67927349   0.143   3.960   3.289 -2.8053 -0.7206 -0.2944
   36MOL   H68027350   0.175   3.791   3.311 -0.7631 -0.7260  2.2878
   36MOL   H68127351   0.114   3.808   3.549 -2.1811 -1.4762 -1.8341
   36MOL   H68227352   0.088   3.981   3.533  0.9421  1.0806 -0.4106
   36MOL   H68327353   7.631   3.765   3.398 -0.4877 -0.3627  0.7901
   36MOL   H68427354   7.610   3.934   3.357  0.0886  1.3840  1.0444
   36MOL   H68527355   7.593   3.817   3.629 -1.3977  0.6291  0.6854
   36MOL   C68627356   7.480   3.973   3.591  0.6796  0.3423 -0.4824
   36MOL   O68727357   7.458   3.999   3.709 -0.5222 -0.1940 -0.1956
   36MOL   C68827358   7.413   4.059   3.486  0.3026  0.3214  0.0234
   36MOL   C68927359   7.279   4.124   3.531  0.3416  0.8953 -0.3569
   36MOL   C69027360   7.193   4.184   3.417 -0.1070 -0.5973  0.0227
   36MOL   C69127361   7.257   4.304   3.342 -0.6090  0.2854 -0.1725
   36MOL   C69227362   7.351   4.266   3.227  0.1096 -0.1273 -0.3617
   36MOL   O69327363   7.338   4.162   3.163  0.5483 -0.1492  0.1306
   36MOL   N69427364   7.445   4.353   3.195 -0.1950 -0.1558  0.2012
   36MOL   C69527365   7.546   4.328   3.087 -0.3554 -0.2616  0.7732
   36MOL   C69627366   7.635   4.451   3.056 -0.9296 -0.0195  0.3641
   36MOL   C69727367   0.001   4.440   2.925  1.2056  0.0605  0.0478
   36MOL   C69827368   0.066   4.574   2.886 -0.7268 -0.2966  0.1347
   36MOL   C69927369   0.118   4.572   2.738 -0.1018 -0.3766 -0.3297
   36MOL   C70027370   0.236   4.481   2.707  0.6178 -0.4932 -0.4708
   36MOL   N70127371   0.224   4.432   2.576 -0.1719 -0.1412  0.1427
   36MOL   H70227372   7.484   4.128   3.439 -1.3094  1.7573 -0.3725
   36MOL   H70327373   7.380   3.991   3.408  1.4918  0.7039 -0.8393
   36MOL   H70427374   7.235   4.041   3.588 -0.5842  0.7715 -1.2340
   36MOL   H70527375   7.295   4.197   3.611 -1.0554 -0.3661  1.1260
   36MOL   H70627376   7.096   4.214   3.456 -0.2720 -0.3298 -0.5913
   36MOL   H70727377   7.161   4.098   3.359 -3.4812 -0.1000  1.0498
   36MOL   H70827378   7.319   4.365   3.407 -1.3019  1.7404 -0.8440
   36MOL   H70927379   7.183   4.367   3.294 -0.0710  1.1292  0.0939
   36MOL   H71027380   7.450   4.440   3.246  0.6912 -0.1568  0.1217
   36MOL   H71127381   7.606   4.241   3.113 -0.7039 -1.6780 -2.8458
   36MOL   H71227382   7.488   4.296   3.000  0.1296  0.8981  0.0083
   36MOL   H71327383   7.570   4.533   3.027  2.2434  1.9926 -1.3174
   36MOL   H71427384   7.700   4.484   3.136 -0.9905  1.0818 -0.0408
   36MOL   H71527385   7.644   4.394   2.851 -1.4652  0.2844  2.1796
   36MOL   H71627386   0.075   4.361   2.935  2.1297  0.9454  0.3402
   36MOL   H71727387   7.704   4.656   2.898 -0.3781  0.4452 -2.5044
   36MOL   H71827388   0.154   4.594   2.947  2.6028 -0.3017 -4.3680
   36MOL   H71927389   0.029   4.537   2.685  0.0644  0.8457 -1.4681
   36MOL   H72027390   0.134   4.674   2.702  0.0079 -1.3422 -3.1128
   36MOL   H72127391   0.243   4.402   2.782  0.9846  1.3654  1.5075
   36MOL   H72227392   0.326   4.539   2.731  0.3792 -0.2124 -0.2498
   36MOL   H72327393   0.138   4.380   2.562 -1.8264  1.7523  2.8776
   36MOL   C72427394   0.318   4.418   2.482 -0.1895  0.1420  0.0107
   36MOL   O72527395   0.432   4.476   2.493 -0.2665 -0.2791  0.3838
   36MOL   C72627396   0.280   4.337   2.366 -0.4853 -0.0873 -0.1756
   36MOL   C72727397   0.336   4.190   2.372 -0.6084  0.3766  0.1298
   36MOL   C72827398   0.282   4.115   2.240 -0.8888 -0.1762 -0.3854
   36MOL   C72927399   0.130   4.085   2.239 -1.0157 -0.0271  0.0415
   36MOL   C73027400   0.101   3.975   2.341  0.2072 -0.4781  0.2277
   36MOL   O73127401   0.054   4.013   2.451  0.6309 -0.2692 -1.1645
   36MOL   N73227402   0.105   3.849   2.304 -0.6902 -0.7668 -0.2480
   36MOL   C73327403   0.059   3.735   2.382 -0.0708  0.5196  0.0553
   36MOL   C73427404   0.160   3.672   2.485  0.0717 -0.4740 -0.5216
   36MOL   C73527405   0.112   3.549   2.554 -0.5647  0.6535  0.9388
   36MOL   C73627406   0.196   3.492   2.667  0.2643 -1.2601 -0.2620
   36MOL   C73727407   0.338   3.459   2.615  0.0643 -0.2752  0.0301
   36MOL   C73827408   0.414   3.392   2.732  0.4007  0.0571  0.0672
   36MOL   N73927409   0.553   3.394   2.707  0.4310  0.2497  0.4883
   36MOL   H74027410   0.175   4.341   2.336 -0.7030 -0.4814  0.5221
   36MOL   H74127411   0.335   4.381   2.283  0.2081  1.0110  0.8427
   36MOL   H74227412   0.445   4.188   2.370 -0.4620  1.8894  3.2934
   36MOL   H74327413   0.297   4.148   2.465 -0.6196  1.0260  0.4224
   36MOL   H74427414   0.335   4.021   2.235  1.0997  0.8219  1.1299
   36MOL   H74527415   0.318   4.162   2.148  2.3936 -0.1502  0.8482
   36MOL   H74627416   0.085   4.059   2.143  1.6939 -0.7905 -1.0632
   36MOL   H74727417   0.077   4.172   2.279  0.9252  0.5221  1.5057
   36MOL   H74827418   0.142   3.830   2.212 -1.2679  0.0992 -0.6701
   36MOL   H74927419   7.681   3.771   2.439  0.8246  2.0189  0.4972
   36MOL   H75027420   0.026   3.646   2.329  0.9248  0.1523  0.0463
   36MOL   H75127421   0.254   3.647   2.436 -0.4640 -2.0487 -0.7961
   36MOL   H75227422   0.181   3.747   2.561  0.3891  1.0813 -2.1248
   36MOL   H75327423   0.097   3.474   2.477  0.8313 -0.0035  1.3019
   36MOL   H75427424   0.010   3.578   2.580 -0.6973  1.7429 -0.6758
   36MOL   H75527425   0.200   3.554   2.757 -0.4525  0.0268 -1.1143
   36MOL   H75627426   0.132   3.410   2.699 -0.6451 -1.2973 -2.1173
   36MOL   H75727427   0.335   3.398   2.525  0.4487  2.0862 -1.6316
   36MOL   H75827428   0.390   3.554   2.602 -0.9956  0.5476  1.6104
   36MOL   H75927429   0.384   3.288   2.742  0.8407  0.1907  3.4054
   36MOL   H76027430   0.398   3.439   2.829  0.0645 -0.7849  0.4239
   36MOL   H76127431   0.578   3.370   2.612 -0.9041 -1.6904  0.6111
   36MOL   H76227432   0.586   3.490   2.715 -0.4737  0.4261  2.2637
   37MOL     C127433   7.608   6.109   5.364 -1.6244 -0.0731  0.0474
   37MOL     O227434   7.610   6.096   5.488  0.1733  0.4865 -0.1818
   37MOL     C327435   7.524   6.017   5.276  0.3040 -0.5938 -0.2129
   37MOL     C427436   7.477   5.883   5.342  0.0613  0.9442  0.1839
   37MOL     C527437   7.578   5.768   5.339  0.0446  0.4100  0.5409
   37MOL     C627438   7.625   5.731   5.195 -0.1910 -0.1529  0.4091
   37MOL     C727439   0.057   5.784   5.177  0.1846 -0.7867 -0.6750
   37MOL     O827440   0.070   5.889   5.113  0.4194 -0.1324 -0.1082
   37MOL     N927441   0.160   5.724   5.244  0.4319  0.1624 -0.2900
   37MOL    C1027442   0.298   5.767   5.238 -0.2845  0.9979 -0.0194
   37MOL    C1127443   0.343   5.828   5.366  0.5456  0.5112 -0.5136
   37MOL    C1227444   0.489   5.879   5.366  0.1818  0.1594  0.3997
   37MOL    C1327445   0.526   5.969   5.483 -0.1752  0.6054  0.1513
   37MOL    C1427446   0.674   6.000   5.480 -0.0319  0.5800 -0.4908
   37MOL    C1527447   0.707   6.118   5.560  0.1024  0.2987  0.0305
   37MOL    N1627448   0.849   6.152   5.559 -0.4391  0.1375  0.2049
   37MOL    H1727449   7.436   6.076   5.255 -0.2574 -0.4359  2.4205
   37MOL    H1827450   7.572   6.011   5.178  2.2685 -0.2323  0.7001
   37MOL    H1927451   7.452   5.901   5.446  3.6977  1.6714  1.0072
   37MOL    H2027452   7.388   5.860   5.284  0.9936  1.6364 -1.5522
   37MOL    H2127453   7.528   5.681   5.381  1.0286  0.2003  1.3081
   37MOL    H2227454   7.663   5.791   5.403  1.7559 -1.9156 -0.8251
   37MOL    H2327455   7.555   5.769   5.121  0.6827  1.9985  0.6686
   37MOL    H2427456   7.629   5.623   5.180 -1.4852  0.0608 -1.7440
   37MOL    H2527457   0.144   5.635   5.289  0.0703  0.6774  0.6031
   37MOL    H2627458   0.361   5.680   5.219 -0.5957  0.5589  0.9409
   37MOL    H2727459   0.306   5.829   5.148  1.9711  0.6185 -0.1189
   37MOL    H2827460   0.272   5.908   5.388  0.1585 -0.3615  1.5141
   37MOL    H2927461   0.340   5.757   5.448  1.9677  0.7725 -0.2109
   37MOL    H3027462   0.510   5.931   5.272  0.6155 -1.0190 -0.1650
   37MOL    H3127463   0.558   5.795   5.358  0.3801  0.3862 -0.3364
   37MOL    H3227464   0.465   6.060   5.492 -0.1604  0.4154  2.3526
   37MOL    H3327465   0.515   5.928   5.583 -0.2957  1.3817  0.4653
   37MOL    H3427466   0.734   5.914   5.510 -1.0226  0.1852  0.3741
   37MOL    H3527467   0.701   6.020   5.376 -0.6188  2.6310 -0.2871
   37MOL    H3627468   0.675   6.091   5.661  1.1357  0.5458  0.4361
   37MOL    H3727469   0.653   6.210   5.540  1.5172  0.7658 -1.7489
   37MOL    H3827470   0.907   6.104   5.492  1.5065  1.9493  0.5576
   37MOL    H3927471   7.669   6.187   5.317  2.4558 -3.6278 -0.9188
   37MOL    C4027472   0.905   6.251   5.632  0.1929 -0.2895  0.1751
   37MOL    O4127473   0.845   6.322   5.706 -0.2961  0.2449  0.4587
   37MOL    C4227474   1.049   6.286   5.614 -0.5890 -0.5102 -0.8437
   37MOL    C4327475   1.139   6.170   5.661  0.5265  0.4403 -0.8184
   37MOL    C4427476   1.139   6.165   5.819 -0.1701  0.0300 -0.9400
   37MOL    C4527477   1.236   6.063   5.883  0.3061  0.3995 -0.0905
   37MOL    C4627478   1.379   6.077   5.824 -0.1177  0.1964  0.7533
   37MOL    O4727479   1.419   5.999   5.735  0.1443  0.2001  0.5310
   37MOL    N4827480   1.453   6.173   5.876  0.0494  0.3254 -0.2782
   37MOL    C4927481   1.575   6.230   5.817  1.1720 -1.3100 -0.1674
   37MOL    C5027482   1.544   6.364   5.736 -0.0790 -0.1766 -0.7974
   37MOL    C5127483   1.545   6.337   5.587  0.3605  0.4479  0.0487
   37MOL    C5227484   1.513   6.456   5.493  0.2631 -0.7651  0.2652
   37MOL    C5327485   1.362   6.458   5.473  0.0784  0.0634  0.0742
   37MOL    C5427486   1.309   6.599   5.431 -0.3849  0.1105 -0.3891
   37MOL    N5527487   1.168   6.602   5.413 -0.3115 -0.3678  0.1313
   37MOL    H5627488   1.063   6.301   5.507 -0.2105 -0.7368 -0.8267
   37MOL    H5727489   1.068   6.385   5.655 -0.1284 -1.1029  0.3982
   37MOL    H5827490   1.098   6.085   5.607  0.3029  1.2201 -1.9065
   37MOL    H5927491   1.237   6.185   5.616  1.7454  2.3113  2.3178
   37MOL    H6027492   1.041   6.138   5.858 -0.6993  3.3789  0.2575
   37MOL    H6127493   1.176   6.257   5.864 -0.1917 -0.1901 -0.4758
   37MOL    H6227494   1.198   5.964   5.862 -1.6141  1.2579 -0.7655
   37MOL    H6327495   1.249   6.069   5.991  0.2922 -1.9253  0.0458
   37MOL    H6427496   1.401   6.223   5.947 -1.2903  0.5768 -1.4155
   37MOL    H6527497   1.640   6.240   5.903 -0.5326 -2.4083  1.2898
   37MOL    H6627498   1.629   6.157   5.756  1.3299  0.0476 -1.7008
   37MOL    H6727499   1.447   6.405   5.762 -0.0066  0.8996 -2.1585
   37MOL    H6827500   1.615   6.444   5.755 -1.1286  0.5787 -0.0519
   37MOL    H6927501   1.479   6.252   5.570 -0.9227  1.7828 -1.7777
   37MOL    H7027502   1.641   6.294   5.560  0.3037 -0.2879  0.9719
   37MOL    H7127503   1.552   6.550   5.531 -0.6563 -0.3858  0.2817
   37MOL    H7227504   1.559   6.438   5.396 -0.8473 -2.1875 -0.0220
   37MOL    H7327505   1.318   6.385   5.405  1.1873  1.4654 -2.2205
   37MOL    H7427506   1.309   6.430   5.564 -0.9113 -2.5550 -1.2551
   37MOL    H7527507   1.346   6.617   5.331 -0.4039  3.7734  0.2151
   37MOL    H7627508   1.345   6.681   5.493  0.6349 -0.8451  0.3208
   37MOL    H7727509   1.128   6.583   5.322 -1.6531 -0.3728  0.7127
   37MOL    C7827510   1.081   6.630   5.510 -0.4269 -0.1293 -0.1020
   37MOL    O7927511   1.119   6.658   5.629 -0.4584  0.1096 -0.0247
   37MOL    C8027512   0.932   6.653   5.472 -0.1193  0.0592 -0.5212
   37MOL    C8127513   0.865   6.783   5.535  0.2902 -0.2677 -0.0119
   37MOL    C8227514   0.906   6.916   5.476 -0.7983  0.0499 -0.3481
   37MOL    C8327515   0.830   7.047   5.515  0.7957  0.5542  0.5799
   37MOL    C8427516   0.816   7.069   5.663  0.6629 -0.2630  0.3621
   37MOL    O8527517   0.908   7.039   5.747  0.0785  0.2136 -0.0631
   37MOL    N8627518   0.710   7.139   5.699 -0.1139 -0.1222 -0.4624
   37MOL    C8727519   0.675   7.164   5.837 -0.0697  0.6695  0.0779
   37MOL    C8827520   0.546   7.246   5.843 -0.4071 -0.1819  0.3852
   37MOL    C8927521   0.514   7.305   5.975  0.1727  0.2984  0.7229
   37MOL    C9027522   0.445   7.218   6.076  0.2354 -0.2076  0.7516
   37MOL    C9127523   0.433   7.296   6.209  0.2787 -0.9318  0.5545
   37MOL    C9227524   0.347   7.227   6.310 -0.0398 -0.2848  0.0737
   37MOL    N9327525   0.349   7.284   6.443  0.3477  0.1067  0.6183
   37MOL    H9427526   0.932   6.655   5.363  2.1115  1.7969 -0.5272
   37MOL    H9527527   0.883   6.559   5.497 -0.7894 -0.3206 -3.1687
   37MOL    H9627528   0.758   6.770   5.525  0.5946 -1.5281 -1.9405
   37MOL    H9727529   0.895   6.778   5.640 -2.3842 -0.5516  0.7591
   37MOL    H9827530   0.917   6.923   5.367 -2.1202  0.2834 -0.4702
   37MOL    H9927531   1.005   6.937   5.516 -0.4686 -2.4023  0.1727
   37MOL   H10027532   0.731   7.030   5.472  0.5650 -1.3253  1.7866
   37MOL   H10127533   0.870   7.136   5.467  0.3232  0.2970 -0.3021
   37MOL   H10227534   0.646   7.168   5.626  0.1840 -0.2179 -0.7651
   37MOL   H10327535   0.672   7.072   5.895  0.7750 -0.1260 -1.1180
   37MOL   H10427536   0.755   7.217   5.888  1.3803 -0.6420 -0.7934
   37MOL   H10527537   0.564   7.338   5.787  0.5131 -0.5729  0.0414
   37MOL   H10627538   0.464   7.181   5.813 -1.2862  1.2403 -0.3337
   37MOL   H10727539   0.437   7.379   5.955 -0.1606  0.0954  1.2313
   37MOL   H10827540   0.590   7.371   6.016  0.8771  0.2915 -0.5600
   37MOL   H10927541   0.349   7.189   6.035  1.7389 -0.8538 -2.4707
   37MOL   H11027542   0.495   7.122   6.092  1.8187  0.6456  1.0579
   37MOL   H11127543   0.527   7.313   6.261 -0.4845 -1.9993  2.3538
   37MOL   H11227544   0.399   7.397   6.188 -1.0324 -1.0999  1.7686
   37MOL   H11327545   0.386   7.125   6.318  0.8202  0.1171  1.1616
   37MOL   H11427546   0.241   7.215   6.291 -0.1306 -0.1053  0.4623
   37MOL   H11527547   0.266   7.339   6.461  0.0865 -0.3395  0.7926
   37MOL   C11627548   0.438   7.255   6.539  0.0035 -0.0067  0.2977
   37MOL   O11727549   0.536   7.195   6.503  0.3639 -0.0365 -0.3682
   37MOL   C11827550   0.407   7.293   6.686 -0.0433 -0.0277  0.3342
   37MOL   C11927551   0.503   7.244   6.798 -0.1941 -0.3416 -0.4020
   37MOL   C12027552   0.642   7.305   6.781  0.0643  0.7705  0.0243
   37MOL   C12127553   0.738   7.296   6.905  0.4707 -0.5453 -0.4124
   37MOL   C12227554   0.699   7.398   7.012 -0.2795  0.4708  0.6131
   37MOL   O12327555   0.702   7.516   6.984  0.3389 -0.8046 -0.1757
   37MOL   N12427556   0.678   7.342   7.135  0.5288 -0.4290 -0.3883
   37MOL   C12527557   0.624   7.429   7.243 -0.4508  0.4868 -0.8977
   37MOL   C12627558   0.475   7.462   7.217 -0.2831  0.1739  1.1875
   37MOL   C12727559   0.381   7.342   7.202  0.0747  0.3574 -0.0263
   37MOL   C12827560   0.236   7.375   7.197 -0.3111  0.5738 -0.5534
   37MOL   C12927561   0.191   7.461   7.079  0.3099 -0.0267 -0.1709
   37MOL   C13027562   0.045   7.480   7.062  0.5123 -0.4382  0.0893
   37MOL   N13127563   0.029   7.556   6.937 -0.0245  0.2490  0.2522
   37MOL   H13227564   0.415   7.402   6.682  1.7100 -0.1830 -0.9370
   37MOL   H13327565   0.305   7.271   6.717  0.7615 -2.5408  1.2980
   37MOL   H13427566   0.452   7.275   6.889 -0.5947  2.0053 -1.4096
   37MOL   H13527567   0.508   7.136   6.811  1.4612  0.0450  2.3706
   37MOL   H13627568   0.635   7.407   6.743 -2.6109  0.6749  0.2207
   37MOL   H13727569   0.697   7.252   6.703  0.0903  2.1684 -0.9310
   37MOL   H13827570   0.845   7.296   6.885  0.3386 -0.0146 -1.1440
   37MOL   H13927571   0.711   7.200   6.949 -1.1688 -0.8146 -1.9441
   37MOL   H14027572   0.688   7.242   7.137 -0.2258 -0.4733  2.6286
   37MOL   H14127573   0.630   7.381   7.341 -2.2064 -0.9027 -1.4409
   37MOL   H14227574   0.674   7.525   7.251  2.0256 -0.8011 -0.1183
   37MOL   H14327575   0.440   7.544   7.279 -1.7237  2.3759 -2.3685
   37MOL   H14427576   0.476   7.514   7.121  1.5235 -0.2075  0.9895
   37MOL   H14527577   0.401   7.277   7.287  1.2280 -0.5787 -1.0167
   37MOL   H14627578   0.416   7.297   7.110  0.1771  0.0792  0.1478
   37MOL   H14727579   0.175   7.284   7.191 -1.3384  0.9013  3.3959
   37MOL   H14827580   0.204   7.429   7.286 -1.1639  2.0447 -1.7185
   37MOL   H14927581   0.247   7.555   7.067  1.9791 -1.2444 -2.2397
   37MOL   H15027582   0.226   7.410   6.990 -0.2314  0.8894 -0.9066
   37MOL   H15127583   0.003   7.544   7.140  0.0249  1.4410 -1.6510
   37MOL   H15227584   7.694   7.388   7.066 -1.1769  0.6446  0.9032
   37MOL   H15327585   0.095   7.547   6.862  0.3173  0.7511  0.4901
   37MOL   C15427586   7.651   7.654   6.926  0.5072  0.0036 -0.0429
   37MOL   O15527587   7.557   7.677   7.009  0.1880 -0.0213  0.4746
   37MOL   C15627588   7.664   0.031   6.800 -0.1735  0.1397 -0.6593
   37MOL   C15727589   0.002   0.174   6.823  0.1578 -0.1728 -0.5308
   37MOL   C15827590   0.150   0.180   6.872 -0.3538 -0.3977  0.2218
   37MOL   C15927591   0.253   0.185   6.756  0.3564 -0.2715 -0.3899
   37MOL   C16027592   0.304   0.053   6.705 -0.2264 -0.0767 -0.2347
   37MOL   O16127593   0.266   7.656   6.758 -0.0736 -0.2528 -0.7485
   37MOL   N16227594   0.386   0.048   6.599 -0.0332 -0.1316 -0.1063
   37MOL   C16327595   0.456   7.640   6.546  0.2258 -0.0662  0.1374
   37MOL   C16427596   0.509   7.664   6.402 -0.7983 -0.3828  0.5073
   37MOL   C16527597   0.413   7.692   6.286 -0.1204 -0.3209 -0.6310
   37MOL   C16627598   0.492   0.023   6.161 -0.0828  0.2847 -0.4044
   37MOL   C16727599   0.385   0.035   6.042 -0.1975  0.4805  0.2646
   37MOL   C16827600   0.457   0.077   5.911  0.0766 -0.4790  0.1826
   37MOL   N16927601   0.527   0.204   5.924 -0.3642  0.0519  0.2470
   37MOL   H17027602   0.014   7.695   6.719  0.1676 -1.3430  0.3757
   37MOL   H17127603   7.568   0.046   6.750  0.1204  1.7986 -0.7487
   37MOL   H17227604   7.701   0.228   6.729 -1.3499 -0.2512 -0.4350
   37MOL   H17327605   7.636   0.223   6.887 -0.0408  0.5728 -1.3188
   37MOL   H17427606   0.182   0.107   6.946  3.8177  2.4714  1.4396
   37MOL   H17527607   0.159   0.279   6.916  1.0028 -0.2521 -0.3657
   37MOL   H17627608   0.342   0.216   6.810  0.5837 -0.2149 -0.7964
   37MOL   H17727609   0.226   0.254   6.676 -0.0480  0.3481  0.2686
   37MOL   H17827610   0.404   0.130   6.542  0.8839 -0.4900 -0.3575
   37MOL   H17927611   0.548   7.610   6.595  0.0918 -0.8779 -0.0861
   37MOL   H18027612   0.380   7.561   6.548  0.1842 -0.0072  1.0562
   37MOL   H18127613   0.580   0.038   6.403 -0.1301 -0.9560  0.7698
   37MOL   H18227614   0.570   7.577   6.376  1.5279  0.7996  1.8709
   37MOL   H18327615   0.350   0.066   6.323 -2.6985 -2.6182  0.2498
   37MOL   H18427616   0.347   7.606   6.276 -0.4892 -0.2746  1.1751
   37MOL   H18527617   0.550   0.112   6.181  2.2307 -1.4823  1.0335
   37MOL   H18627618   0.557   7.644   6.148  0.2447  0.5467 -0.5301
   37MOL   H18727619   0.339   7.644   6.032 -0.6763  0.7207  0.0966
   37MOL   H18827620   0.307   0.102   6.074 -0.3167 -1.2737  3.8647
   37MOL   H18927621   0.386   0.075   5.828  1.5851  1.6301 -1.2068
   37MOL   H19027622   0.526   7.705   5.888  1.7762  0.8663  0.4740
   37MOL   H19127623   0.624   0.203   5.954 -0.1596  0.5813 -0.3619
   37MOL   C19227624   0.480   0.324   5.902  0.0301  0.0361  0.1232
   37MOL   O19327625   0.372   0.342   5.852 -0.2979  0.1832 -0.1029
   37MOL   C19427626   0.563   0.443   5.959 -0.1247  0.1016 -0.5509
   37MOL   C19527627   0.501   0.500   6.085 -0.6278 -0.0378 -0.3537
   37MOL   C19627628   0.525   0.420   6.212  0.6543 -0.6139 -0.5966
   37MOL   C19727629   0.458   0.497   6.335  0.3708 -0.0638 -0.1519
   37MOL   C19827630   0.483   0.434   6.469  0.6448  0.4813 -0.3862
   37MOL   O19927631   0.466   0.309   6.491 -0.2922  0.3749  0.3702
   37MOL   N20027632   0.526   0.521   6.566  0.4667 -0.0152  0.3689
   37MOL   C20127633   0.547   0.476   6.700  0.1316  0.3878 -0.4919
   37MOL   C20227634   0.564   0.599   6.796  0.0849  0.2897 -0.6535
   37MOL   C20327635   0.717   0.634   6.820  0.1187  0.0585  0.2914
   37MOL   C20427636   0.749   0.763   6.894 -1.1142 -0.8017  0.1863
   37MOL   C20527637   0.724   0.765   7.043 -0.1014 -0.2773  0.0344
   37MOL   C20627638   0.822   0.677   7.129  0.3034  0.1211  0.9277
   37MOL   N20727639   0.807   0.701   7.267 -0.3985 -0.0705 -0.3608
   37MOL   H20827640   0.667   0.410   5.963 -0.7190 -1.7998 -0.5698
   37MOL   H20927641   0.569   0.519   5.880 -0.3349  1.2098  0.4775
   37MOL   H21027642   0.547   0.598   6.095 -1.8200  0.4625  0.3488
   37MOL   H21127643   0.394   0.514   6.077 -0.6747  0.8445  1.5773
   37MOL   H21227644   0.631   0.397   6.222  0.6138 -1.1871 -1.4108
   37MOL   H21327645   0.472   0.325   6.201  0.4498 -0.5798  0.0659
   37MOL   H21427646   0.350   0.498   6.325  0.3274 -0.2326  0.2835
   37MOL   H21527647   0.481   0.603   6.334 -0.9877  0.2618  1.0987
   37MOL   H21627648   0.531   0.621   6.548 -1.0719 -0.1797 -1.1167
   37MOL   H21727649   0.465   0.414   6.737  0.6036  0.1008  0.0712
   37MOL   H21827650   0.637   0.417   6.711 -0.7554 -1.2625 -1.9084
   37MOL   H21927651   0.504   0.683   6.761 -0.8267 -0.8076 -1.7865
   37MOL   H22027652   0.528   0.575   6.896 -2.4836 -0.9041 -1.8361
   37MOL   H22127653   0.768   0.629   6.724  0.7063 -2.8269  0.6978
   37MOL   H22227654   0.767   0.560   6.883 -0.3853 -0.8985 -0.4204
   37MOL   H22327655   0.851   0.793   6.871 -0.4761 -2.1756  1.1289
   37MOL   H22427656   0.688   0.836   6.842 -1.5379 -3.0364 -2.6103
   37MOL   H22527657   0.744   0.868   7.071  2.4041 -0.9239  0.7574
   37MOL   H22627658   0.618   0.738   7.051 -0.4454  0.7523 -1.0676
   37MOL   H22727659   0.922   0.713   7.105 -0.3402  0.4048 -1.4706
   37MOL   H22827660   0.819   0.571   7.104  0.2494  0.5981 -1.2028
   37MOL   H22927661   0.731   0.761   7.297  1.0543  1.2364  0.7931
   37MOL   C23027662   0.879   0.642   7.362  0.5105  0.6596  0.1265
   37MOL   O23127663   0.963   0.559   7.333 -0.3997 -0.7582  0.0463
   37MOL   C23227664   0.839   0.674   7.504  0.2769  1.7218  0.5582
   37MOL   C23327665   0.940   0.756   7.584  0.6479 -0.6630 -0.4181
   37MOL   C23427666   0.924   0.911   7.573  0.4977  0.2465 -0.1144
   37MOL   C23527667   0.922   0.961   7.427 -0.3009  0.7726 -0.2263
   37MOL   C23627668   0.962   1.105   7.405  0.2880  0.8620 -0.1635
   37MOL   O23727669   0.973   1.176   7.504 -0.3416  0.0224  0.2763
   37MOL   N23827670   0.968   1.153   7.276  0.5578 -0.1437 -0.0234
   37MOL   C23927671   0.958   1.077   7.152  0.8003 -0.1436 -0.4773
   37MOL   C24027672   1.002   1.167   7.036  0.7357  0.2502  1.2023
   37MOL   C24127673   1.021   1.090   6.911  0.0995 -0.5526  0.9688
   37MOL   C24227674   0.899   1.085   6.822  0.5557  0.0249 -0.2091
   37MOL   C24327675   0.924   1.006   6.694 -0.3229 -0.1064  0.3955
   37MOL   C24427676   0.800   0.992   6.605 -0.1492 -0.5079 -0.3498
   37MOL   N24527677   0.825   0.908   6.488 -0.8826 -0.4355  0.3102
   37MOL   H24627678   0.741   0.721   7.514  0.6963  2.3338  1.7952
   37MOL   H24727679   0.835   0.576   7.552 -1.2873  1.6060  0.2340
   37MOL   H24827680   0.926   0.731   7.690 -2.7308 -0.7934 -0.8308
   37MOL   H24927681   1.039   0.720   7.560  1.1659  0.3715  0.1056
   37MOL   H25027682   1.000   0.959   7.634  0.2594  0.5221 -0.0291
   37MOL   H25127683   0.831   0.943   7.620  0.8292  1.5432 -0.3139
   37MOL   H25227684   0.821   0.947   7.386  0.3840  1.6160 -2.2986
   37MOL   H25327685   0.992   0.903   7.367  0.3649  0.5708  0.7392
   37MOL   H25427686   0.963   1.253   7.272 -0.3590 -0.1954 -0.3055
   37MOL   H25527687   1.019   0.987   7.154 -0.8766 -1.2573  1.4460
   37MOL   H25627688   0.859   1.034   7.144  1.3310 -1.6688  0.8692
   37MOL   H25727689   0.920   1.237   7.019  0.7208 -0.5029 -2.2103
   37MOL   H25827690   1.096   1.217   7.061  1.0985 -0.5132  1.3879
   37MOL   H25927691   1.061   0.989   6.918  0.4677 -0.3321  2.1144
   37MOL   H26027692   1.085   1.149   6.845  1.8337 -3.1052  0.3108
   37MOL   H26127693   0.814   1.047   6.880 -1.6677  4.5335 -0.3019
   37MOL   H26227694   0.861   1.186   6.810  1.7261  0.3896 -0.8103
   37MOL   H26327695   0.994   1.066   6.637  0.2156 -0.2965  0.8536
   37MOL   H26427696   0.960   0.905   6.709 -1.1146 -0.6142 -1.0413
   37MOL   H26527697   0.769   1.090   6.569  0.1490  0.7496  2.6817
   37MOL   H26627698   0.720   0.949   6.665  1.3724  1.8648  3.6129
   37MOL   H26727699   0.918   0.913   6.447 -1.7896 -0.5401 -1.8468
   37MOL   C26827700   0.749   0.810   6.441  0.3147 -0.5102  0.2804
   37MOL   O26927701   0.635   0.784   6.486 -0.6341 -0.0875  0.4174
   37MOL   C27027702   0.807   0.713   6.333  0.3403  0.4991  0.0225
   37MOL   C27127703   0.848   0.575   6.390  0.0846  0.1237  0.1386
   37MOL   C27227704   0.924   0.490   6.287 -0.4525  0.3525 -0.3698
   37MOL   C27327705   0.987   0.362   6.354 -1.6551  0.3502  0.0048
   37MOL   C27427706   0.879   0.262   6.415  0.1098 -0.3692 -1.2341
   37MOL   O27527707   0.828   0.177   6.342 -0.4010  0.2898  0.2279
   37MOL   N27627708   0.856   0.264   6.546 -0.8945  0.1506  0.0160
   37MOL   C27727709   0.779   0.162   6.622 -0.3493  0.0245 -0.0683
   37MOL   C27827710   0.825   0.176   6.761  0.0573 -0.1877 -0.1646
   37MOL   C27927711   0.760   0.070   6.849  0.1834  0.0934  0.0898
   37MOL   C28027712   0.628   0.119   6.900  0.2533  0.0940  0.4434
   37MOL   C28127713   0.630   0.204   7.031  0.3019 -0.2974 -0.1162
   37MOL   C28227714   0.502   0.195   7.111  0.0339  0.5538 -0.1350
   37MOL   N28327715   0.524   0.247   7.243  0.3161 -0.9457 -0.2083
   37MOL   H28427716   0.737   0.709   6.249  0.5987 -2.8290 -0.1006
   37MOL   H28527717   0.895   0.753   6.282  0.8266  1.3688  1.5062
   37MOL   H28627718   0.901   0.585   6.484 -2.1439  2.7249  1.2031
   37MOL   H28727719   0.758   0.515   6.403  0.9654 -2.2406 -3.6943
   37MOL   H28827720   0.996   0.555   6.237 -0.4526 -0.5269 -1.5577
   37MOL   H28927721   0.860   0.449   6.209 -0.0177 -2.1354  0.5324
   37MOL   H29027722   1.069   0.392   6.420 -1.9477 -1.7107  1.3624
   37MOL   H29127723   1.041   0.303   6.281  0.3759 -0.9186  2.4419
   37MOL   H29227724   0.914   0.326   6.600 -1.1612 -0.1084  0.6107
   37MOL   H29327725   0.671   0.173   6.609 -0.4979  0.4758  1.4689
   37MOL   H29427726   0.817   0.069   6.582 -0.7132 -0.0264 -0.2946
   37MOL   H29527727   0.930   0.144   6.757  0.2332  0.5803 -2.1838
   37MOL   H29627728   0.819   0.278   6.799  0.9084 -0.0786 -0.2974
   37MOL   H29727729   0.828   0.049   6.932  1.5756 -0.1485 -1.0918
   37MOL   H29827730   0.737   7.690   6.790  1.2137  0.3903 -0.7787
   37MOL   H29927731   0.564   0.165   6.825 -0.8844 -1.2582  0.5690
   37MOL   H30027732   0.576   0.027   6.927 -1.3339  1.5015  2.3326
   37MOL   H30127733   0.720   0.175   7.086  0.3900 -0.8494 -0.5518
   37MOL   H30227734   0.661   0.307   7.013 -0.3845  0.3851  2.3668
   37MOL   H30327735   0.469   0.091   7.122  1.1794  0.2766  0.7953
   37MOL   H30427736   0.418   0.252   7.073 -1.7831 -1.3541  0.9140
   37MOL   H30527737   0.538   0.183   7.320  1.2451 -1.2956 -0.6508
   37MOL   C30627738   0.515   0.376   7.280 -0.3351  0.6460  0.0827
   37MOL   O30727739   0.503   0.472   7.204  0.1020 -0.0177  0.0156
   37MOL   C30827740   0.551   0.397   7.428  0.1945  0.1585 -0.1375
   37MOL   C30927741   0.411   0.402   7.503  0.0164  0.3067  0.3855
   37MOL   C31027742   0.426   0.462   7.645  0.0133 -0.1052 -0.3914
   37MOL   C31127743   0.297   0.485   0.014 -0.5896 -0.3191  0.5822
   37MOL   C31227744   0.304   0.581   0.138 -0.4239  0.1172 -0.1219
   37MOL   O31327745   0.407   0.648   0.159 -1.0062 -0.4210  0.5031
   37MOL   N31427746   0.205   0.575   0.226 -0.3697  0.3277  0.1815
   37MOL   C31527747   0.195   0.616   0.363  0.2712  0.3722  0.2890
   37MOL   C31627748   0.299   0.535   0.450 -1.1392  0.2954 -0.7557
   37MOL   C31727749   0.257   0.549   0.600 -0.2269  0.0896 -0.1017
   37MOL   C31827750   0.247   0.697   0.649  0.0162 -0.9675  0.2279
   37MOL   C31927751   0.213   0.705   0.796  0.0275 -0.0349  0.3913
   37MOL   C32027752   0.161   0.835   0.856 -0.3884  0.0226  0.3681
   37MOL   N32127753   0.253   0.949   0.860  0.2107  0.1806 -0.6285
   37MOL   H32227754   0.612   0.320   7.476 -2.6391 -0.7409  2.1988
   37MOL   H32327755   0.607   0.491   7.426  3.6108 -1.7341  1.4750
   37MOL   H32427756   0.344   0.470   7.452 -0.5787  1.0203  2.0803
   37MOL   H32527757   0.357   0.307   7.502  0.6729 -0.0744  0.7564
   37MOL   H32627758   0.480   0.557   7.642 -0.1389 -0.0422 -1.3818
   37MOL   H32727759   0.484   0.392   7.706  0.9211 -0.8216 -2.0487
   37MOL   H32827760   0.258   0.392   0.054  0.9427 -1.9038 -1.4788
   37MOL   H32927761   0.228   0.523   7.646 -1.2151  0.8315  1.7015
   37MOL   H33027762   0.135   0.506   0.202 -2.4396  1.5885  2.3452
   37MOL   H33127763   0.197   0.723   0.381  0.9012 -0.0381  2.8369
   37MOL   H33227764   0.093   0.594   0.396  0.0019 -0.2198 -0.9002
   37MOL   H33327765   0.304   0.429   0.428  1.5662  0.5110 -1.2495
   37MOL   H33427766   0.398   0.578   0.437 -0.0902 -1.5099  0.9359
   37MOL   H33527767   0.337   0.498   0.654  0.2104  0.9945  0.1120
   37MOL   H33627768   0.161   0.500   0.612 -0.5089  0.9758  1.4070
   37MOL   H33727769   0.334   0.756   0.622 -1.1630  0.9646  0.5276
   37MOL   H33827770   0.162   0.749   0.603  3.1744  1.8128 -2.7499
   37MOL   H33927771   0.132   0.633   0.810 -0.5842  0.3197 -1.1559
   37MOL   H34027772   0.291   0.645   0.844 -0.0902 -1.2163 -0.8455
   37MOL   H34127773   0.122   0.809   0.955  0.5875  1.9926  1.2924
   37MOL   H34227774   0.074   0.868   0.800 -1.2566 -2.4281  0.2055
   37MOL   H34327775   0.301   0.966   0.772  4.6392 -0.1518  1.5893
   37MOL   C34427776   0.265   1.035   0.960  0.1712 -0.1392  0.2510
   37MOL   O34527777   0.194   1.032   1.063  0.3044 -0.0365  0.4007
   37MOL   C34627778   0.355   1.152   0.932  0.3239 -0.1278  0.3210
   37MOL   C34727779   0.283   1.278   0.894 -0.0846  0.3521  0.9425
   37MOL   C34827780   0.383   1.375   0.828 -0.5158 -0.1121 -1.0643
   37MOL   C34927781   0.461   1.453   0.932 -0.3241 -0.1710  0.6517
   37MOL   C35027782   0.385   1.576   0.975 -0.0503 -0.2009 -0.0974
   37MOL   O35127783   0.280   1.559   1.038  0.1795 -0.1812  0.4374
   37MOL   N35227784   0.443   1.696   0.954  0.1233  0.3197 -0.6067
   37MOL   C35327785   0.393   1.822   1.006 -0.3832 -0.3042  0.3553
   37MOL   C35427786   0.339   1.905   0.890  0.2650  0.0081 -0.6986
   37MOL   C35527787   0.311   2.050   0.939  0.2469 -0.5161 -0.3858
   37MOL   C35627788   0.198   2.065   1.044  0.2155 -0.4557 -0.0203
   37MOL   C35727789   0.064   2.006   0.996 -0.1782  0.2756 -0.3154
   37MOL   C35827790   0.009   2.062   0.869  0.0315  0.4491 -0.2826
   37MOL   N35927791   7.578   2.024   0.852  0.1130 -0.6485  0.6973
   37MOL   H36027792   0.420   1.158   1.020  0.9273 -0.6456 -0.0871
   37MOL   H36127793   0.424   1.119   0.854 -0.7728  1.7461 -1.4988
   37MOL   H36227794   0.199   1.270   0.824  1.5902 -2.8838 -0.8342
   37MOL   H36327795   0.234   1.319   0.982 -0.3058 -0.9109  1.4270
   37MOL   H36427796   0.333   1.442   0.758 -0.2247 -0.4353 -1.5829
   37MOL   H36527797   0.451   1.316   0.766  0.0224 -0.1038 -0.4892
   37MOL   H36627798   0.556   1.475   0.884 -0.9873 -0.3099 -0.7474
   37MOL   H36727799   0.486   1.399   1.023 -0.3507 -0.1446  0.6749
   37MOL   H36827800   0.522   1.692   0.892  0.3996  1.2679 -0.3219
   37MOL   H36927801   0.315   1.799   1.079 -2.2630 -0.5690 -1.6725
   37MOL   H37027802   0.478   1.858   1.064 -1.0518  0.8967  0.6101
   37MOL   H37127803   0.401   1.931   0.805  0.4348  1.6486 -0.0997
   37MOL   H37227804   0.246   1.864   0.851  0.5156 -1.0292 -0.2151
   37MOL   H37327805   0.291   2.112   0.851  0.3200  1.8632  1.2353
   37MOL   H37427806   0.407   2.083   0.978  1.0770 -0.2984 -2.5067
   37MOL   H37527807   0.220   2.015   1.138 -0.6106 -0.6704  0.0561
   37MOL   H37627808   0.190   2.172   1.065 -0.3117 -0.8186  1.6736
   37MOL   H37727809   0.071   1.897   0.987  0.2148  0.3073 -0.4149
   37MOL   H37827810   7.706   2.029   1.079  0.2888  1.7141 -0.3345
   37MOL   H37927811   0.065   2.031   0.781  0.8047  1.5984 -0.2025
   37MOL   H38027812   0.004   2.170   0.871 -4.3501  0.3567 -1.2860
   37MOL   H38127813   7.518   2.003   0.930 -2.1042 -0.7573 -0.9897
   37MOL   C38227814   7.519   1.998   0.740  0.4754  0.5699  0.3588
   37MOL   O38327815   7.575   2.024   0.634 -0.5489 -0.0741 -0.1455
   37MOL   C38427816   7.371   1.957   0.762 -0.3644  0.0044  0.3767
   37MOL   C38527817   7.282   1.998   0.645 -0.8872  0.4740 -0.2855
   37MOL   C38627818   7.140   1.935   0.637 -0.2546 -0.2354  0.0025
   37MOL   C38727819   7.136   1.785   0.607  0.3846 -0.3425  0.2952
   37MOL   C38827820   7.169   1.756   0.456 -0.2464 -0.7075 -0.3680
   37MOL   O38927821   7.087   1.750   0.366  0.2932  0.4303 -0.5958
   37MOL   N39027822   7.304   1.731   0.432 -0.6958 -0.5975  0.0233
   37MOL   C39127823   7.354   1.717   0.298  0.1096 -0.1721  0.0587
   37MOL   C39227824   7.501   1.667   0.305 -0.2408  0.5833  0.3712
   37MOL   C39327825   7.543   1.637   0.157  0.2466 -0.3916  0.5311
   37MOL   C39427826   7.690   1.595   0.139 -0.2599  0.4434 -0.2919
   37MOL   C39527827   0.020   1.444   0.158  0.1383  0.3512 -0.5608
   37MOL   C39627828   0.167   1.422   0.155  0.0411  0.3465 -0.5677
   37MOL   N39727829   0.232   1.452   0.283  0.6594 -0.2692  0.1127
   37MOL   H39827830   7.369   1.848   0.768  1.2426 -0.0892 -0.4116
   37MOL   H39927831   7.332   2.005   0.851 -1.5121 -0.4454  0.1262
   37MOL   H40027832   7.288   2.106   0.649  0.4900  0.4239 -0.6828
   37MOL   H40127833   7.333   1.989   0.549 -0.4815 -0.0151 -0.0322
   37MOL   H40227834   7.086   1.991   0.561 -0.9954  0.1172  0.7750
   37MOL   H40327835   7.075   1.954   0.723 -0.3469  0.2069 -0.1632
   37MOL   H40427836   7.042   1.747   0.646  1.0220 -0.7218  1.4785
   37MOL   H40527837   7.205   1.722   0.663  0.4740 -0.3100  0.2230
   37MOL   H40627838   7.366   1.708   0.509  0.4770  0.3038 -0.6530
   37MOL   H40727839   7.294   1.656   0.230  2.0054 -0.1488 -1.6625
   37MOL   H40827840   7.348   1.815   0.253 -0.0772 -0.0196  0.4079
   37MOL   H40927841   7.568   1.744   0.341  2.4233 -2.0837  1.3360
   37MOL   H41027842   7.512   1.586   0.378 -0.2308 -0.0495 -0.3229
   37MOL   H41127843   7.526   1.722   0.091  1.5781 -0.8883 -0.5005
   37MOL   H41227844   7.477   1.562   0.113 -0.4425  0.5985 -0.1326
   37MOL   H41327845   0.011   1.627   0.039 -1.5726  1.4031 -0.3918
   37MOL   H41427846   0.045   1.657   0.202  2.8476 -2.2231 -0.6448
   37MOL   H41527847   7.690   1.399   0.250 -0.5896 -0.9879 -1.4930
   37MOL   H41627848   7.687   1.378   0.081  2.2006 -2.1388  0.3955
   37MOL   H41727849   0.211   1.483   0.076  1.6442 -0.7236 -0.5153
   37MOL   H41827850   0.192   1.319   0.131  0.3710  0.3720 -0.3422
   37MOL   H41927851   0.205   1.540   0.323  1.1488  0.6530 -1.5492
   37MOL   C42027852   0.348   1.400   0.326  0.1601  0.4878  0.0447
   37MOL   O42127853   0.405   1.310   0.268  0.1721  0.4233 -0.5655
   37MOL   C42227854   0.412   1.466   0.450  0.1866  0.4258 -0.0063
   37MOL   C42327855   0.455   1.614   0.427  0.1568  0.4837  0.2281
   37MOL   C42427856   0.505   1.679   0.552  0.1121 -0.2031  0.3866
   37MOL   C42527857   0.645   1.619   0.589 -0.3284 -0.8189  0.2892
   37MOL   C42627858   0.716   1.713   0.684  1.2213 -0.0560  0.2714
   37MOL   O42727859   0.649   1.764   0.770  0.2899  0.2076 -0.0363
   37MOL   N42827860   0.845   1.720   0.657 -0.2762 -0.6613 -0.0369
   37MOL   C42927861   0.942   1.778   0.747  0.0216  0.3851 -0.3311
   37MOL   C43027862   1.073   1.708   0.735  0.3693 -0.3836  0.6061
   37MOL   C43127863   1.191   1.774   0.813  0.7341 -0.4881 -0.8691
   37MOL   C43227864   1.303   1.674   0.848 -0.2293  0.3939 -0.1456
   37MOL   C43327865   1.268   1.576   0.961  0.3121  0.0939 -0.8724
   37MOL   C43427866   1.400   1.519   1.018  0.6587  0.0533  0.1858
   37MOL   N43527867   1.375   1.418   1.123  0.5401  0.3895  0.1143
   37MOL   H43627868   0.343   1.451   0.533  0.8923  0.3822  0.5832
   37MOL   H43727869   0.495   1.397   0.465  0.4915  0.3470 -2.0189
   37MOL   H43827870   0.525   1.607   0.343 -0.9053  2.2119 -0.8266
   37MOL   H43927871   0.367   1.662   0.385 -0.3431  1.7429  2.6527
   37MOL   H44027872   0.428   1.676   0.629  0.0872 -0.4628  0.3497
   37MOL   H44127873   0.520   1.782   0.521  0.4231 -0.9371 -1.9936
   37MOL   H44227874   0.705   1.610   0.499 -1.7564  0.4230 -0.8096
   37MOL   H44327875   0.638   1.514   0.620  1.0275 -0.9246  0.2766
   37MOL   H44427876   0.885   1.677   0.575 -0.1928  1.4417 -1.1495
   37MOL   H44527877   0.958   1.883   0.721 -2.9280  1.0340  0.3037
   37MOL   H44627878   0.897   1.782   0.846 -0.8530  0.1780 -0.7153
   37MOL   H44727879   1.061   1.605   0.767 -1.4709 -0.2328  0.4380
   37MOL   H44827880   1.100   1.703   0.629 -0.9880  0.4044  0.2169
   37MOL   H44927881   1.159   1.820   0.906  0.2107  0.7380 -1.6356
   37MOL   H45027882   1.228   1.867   0.768 -1.1854  0.3655 -0.7447
   37MOL   H45127883   1.359   1.621   0.771  0.5893 -1.5543  1.7360
   37MOL   H45227884   1.386   1.739   0.875  0.1416  0.0566 -0.4637
   37MOL   H45327885   1.210   1.627   1.038 -1.4746 -4.2166  0.8055
   37MOL   H45427886   1.200   1.493   0.942 -1.5470  0.7152  2.5241
   37MOL   H45527887   1.453   1.602   1.065 -0.1052 -0.2557  1.6105
   37MOL   H45627888   1.463   1.472   0.942 -2.2407 -3.3473 -0.2238
   37MOL   H45727889   1.384   1.444   1.220  1.0120  0.6046  0.0147
   37MOL   C45827890   1.346   1.287   1.097 -0.2640  0.1250  0.4045
   37MOL   O45927891   1.321   1.247   0.986  0.5170  0.6850  0.2680
   37MOL   C46027892   1.314   1.183   1.206 -0.0490  0.3840  0.8860
   37MOL   C46127893   1.161   1.194   1.234 -0.5424  0.0860  0.6636
   37MOL   C46227894   1.119   1.068   1.298 -0.6908 -0.1638 -0.4831
   37MOL   C46327895   0.979   1.079   1.368 -0.4439 -0.0622  0.1681
   37MOL   C46427896   0.872   1.075   1.261  0.2109  1.2137 -1.1864
   37MOL   O46527897   0.834   1.181   1.213 -0.1549  0.1260  0.0722
   37MOL   N46627898   0.823   0.952   1.231 -0.1740  0.6442 -0.7088
   37MOL   C46727899   0.717   0.942   1.127  0.0930 -0.1110  0.0380
   37MOL   C46827900   0.750   0.818   1.047 -0.1989 -0.6613  0.1419
   37MOL   C46927901   0.654   0.784   0.934  0.9562 -0.3412  0.2875
   37MOL   C47027902   0.692   0.657   0.857 -0.1436  1.0926  0.4472
   37MOL   C47127903   0.625   0.619   0.725 -0.4242  0.0259 -0.0323
   37MOL   C47227904   0.658   0.480   0.684  0.5330  0.1673 -0.4259
   37MOL   N47327905   0.610   0.453   0.549 -1.4534  0.3476  0.1560
   37MOL   H47427906   1.355   1.085   1.180  0.6579  0.5503  1.3661
   37MOL   H47527907   1.378   1.213   1.289  2.4764 -0.8199 -0.5929
   37MOL   H47627908   1.153   1.279   1.302  0.9455 -0.1317  1.1300
   37MOL   H47727909   1.109   1.210   1.139  1.6650 -1.7058 -0.9218
   37MOL   H47827910   1.190   1.050   1.379  0.8136  0.4638 -1.6539
   37MOL   H47927911   1.132   0.994   1.220  0.4715 -0.1070 -0.3424
   37MOL   H48027912   0.979   1.169   1.430 -0.0231  1.7314 -2.3190
   37MOL   H48127913   0.959   0.988   1.424  1.7048 -0.6440  0.0370
   37MOL   H48227914   0.855   0.874   1.285 -0.9133  0.8598  0.0587
   37MOL   H48327915   0.612   0.946   1.156 -0.3672 -4.2465 -0.7717
   37MOL   H48427916   0.727   1.028   1.060  2.6682 -0.6672 -0.3708
   37MOL   H48527917   0.855   0.813   1.020 -0.1720  2.4814 -0.5285
   37MOL   H48627918   0.738   0.740   1.122 -2.7822 -0.4764 -0.0179
   37MOL   H48727919   0.638   0.857   0.854  1.7675 -0.0291  0.4062
   37MOL   H48827920   0.554   0.775   0.977  1.5190 -2.0331  1.2736
   37MOL   H48927921   0.799   0.656   0.834 -0.3043 -3.4487 -0.5398
   37MOL   H49027922   0.677   0.573   0.924 -0.8194 -0.2107 -1.2893
   37MOL   H49127923   0.522   0.648   0.742 -0.7549 -0.6669 -0.8097
   37MOL   H49227924   0.673   0.681   0.650 -0.0653  0.0767  0.2320
   37MOL   H49327925   0.611   0.403   0.745  0.3741 -1.3328 -2.3674
   37MOL   H49427926   0.760   0.450   0.707  0.0803  0.4212  1.9639
   37MOL   H49527927   0.516   0.481   0.528 -1.3784  0.2623 -0.3088
   37MOL   C49627928   0.685   0.382   0.461  0.0519  0.0020  0.5768
   37MOL   O49727929   0.800   0.340   0.472  0.0899  0.0182  0.1109
   37MOL   C49827930   0.615   0.353   0.326 -0.3135 -0.0615  0.0096
   37MOL   C49927931   0.580   0.206   0.303  0.1043 -0.7872  0.1417
   37MOL   C50027932   0.473   0.147   0.395  0.2512 -0.0859  0.2781
   37MOL   C50127933   0.438   0.000   0.350 -0.6570  0.7617  0.0017
   37MOL   C50227934   0.361   7.628   0.457 -0.2307  0.2303  0.7680
   37MOL   O50327935   0.238   7.642   0.469  0.1420  0.0923  0.2674
   37MOL   N50427936   0.424   7.537   0.530 -0.5518  0.0104 -0.0453
   37MOL   C50527937   0.374   7.479   0.656  0.8567 -0.6335  0.0232
   37MOL   C50627938   0.471   7.376   0.719  0.7470  0.2381 -0.2867
   37MOL   C50727939   0.478   7.244   0.634  0.0424 -0.1348 -0.3839
   37MOL   C50827940   0.535   7.132   0.714  0.2937 -0.1868  0.2134
   37MOL   C50927941   0.561   7.011   0.631  0.0477 -0.0841 -0.6879
   37MOL   C51027942   0.562   6.882   0.721 -0.4126  0.1956 -0.8057
   37MOL   N51127943   0.587   6.760   0.644  0.6583 -0.0551  0.0085
   37MOL   H51227944   0.525   0.413   0.313 -0.8852 -1.0794 -0.8267
   37MOL   H51327945   0.678   0.384   0.242 -0.1831  2.0037  0.8374
   37MOL   H51427946   0.537   0.202   0.203 -3.0574 -0.7945  1.4542
   37MOL   H51527947   0.670   0.145   0.309  0.2538 -0.5674  0.1485
   37MOL   H51627948   0.383   0.207   0.389 -1.4224 -2.4085  1.1841
   37MOL   H51727949   0.520   0.143   0.493 -0.3614  0.2705  0.5863
   37MOL   H51827950   0.525   7.655   0.310 -0.6983  0.4020  0.3947
   37MOL   H51927951   0.371   0.013   0.264  0.5410  0.8529 -0.9423
   37MOL   H52027952   0.510   7.497   0.497 -0.6937 -0.8035  0.5506
   37MOL   H52127953   0.355   7.564   0.722 -3.4199 -1.1692 -0.3430
   37MOL   H52227954   0.277   7.431   0.641  0.2342  0.7718 -0.5722
   37MOL   H52327955   0.565   7.430   0.729  0.9094 -0.0083 -0.4689
   37MOL   H52427956   0.430   7.347   0.816  1.6623 -2.0553 -0.5493
   37MOL   H52527957   0.540   7.273   0.550  1.8436 -1.5241  0.4270
   37MOL   H52627958   0.379   7.216   0.597  0.7934 -0.6631 -1.9907
   37MOL   H52727959   0.631   7.166   0.753  0.5135  1.3014 -1.5676
   37MOL   H52827960   0.475   7.107   0.801 -0.2561 -0.8962 -0.3654
   37MOL   H52927961   0.501   6.998   0.541  2.1312 -1.5234 -1.9248
   37MOL   H53027962   0.663   7.023   0.593  0.2944  2.0460  0.5277
   37MOL   H53127963   0.456   6.871   0.747 -0.2176 -1.7088 -0.7330
   37MOL   H53227964   0.623   6.889   0.811  1.9102  0.4804 -2.3712
   37MOL   H53327965   0.674   6.716   0.667  1.1285  0.8577  0.0044
   37MOL   C53427966   0.506   6.677   0.577  0.4790 -0.8244 -0.2783
   37MOL   O53527967   0.403   6.715   0.519  0.5058 -0.3933  0.0210
   37MOL   C53627968   0.529   6.521   0.573  0.1664 -0.8866  0.7573
   37MOL   C53727969   0.432   6.425   0.502 -0.0378  0.2130 -0.4937
   37MOL   C53827970   0.461   6.279   0.530  0.3936 -0.0328  0.0915
   37MOL   C53927971   0.400   6.191   0.416  0.2169 -0.3982  0.0939
   37MOL   C54027972   0.382   6.046   0.458 -0.3092  0.2499 -0.8096
   37MOL   O54127973   0.469   5.991   0.520  0.6396 -0.1265  0.0780
   37MOL   N54227974   0.276   5.982   0.417  0.4092  0.5493  0.0870
   37MOL   C54327975   0.222   5.859   0.469 -0.0022  0.1421  0.2571
   37MOL   C54427976   0.088   5.823   0.406  0.0766 -0.6354  0.4242
   37MOL   C54527977   0.014   5.689   0.450 -1.2265  0.8537 -0.0553
   37MOL   C54627978   7.580   5.679   0.408 -0.7669 -0.5474  0.2654
   37MOL   C54727979   7.519   5.537   0.410  0.5010  0.8318  0.1672
   37MOL   C54827980   7.363   5.542   0.388 -0.1923 -0.0350  0.0834
   37MOL   N54927981   7.302   5.408   0.366 -0.7957  0.0558  0.3486
   37MOL   H55027982   0.626   6.519   0.523 -0.2363  1.7094 -0.2093
   37MOL   H55127983   0.531   6.496   0.679 -1.2058  2.0764  1.5342
   37MOL   H55227984   0.330   6.456   0.525  0.3388  1.0439  0.1183
   37MOL   H55327985   0.446   6.442   0.396 -1.3517  0.0230 -0.7039
   37MOL   H55427986   0.428   6.256   0.632  1.3940  1.6675  0.8203
   37MOL   H55527987   0.569   6.270   0.530  0.4120 -1.1229  4.3303
   37MOL   H55627988   0.464   6.186   0.329 -0.6540 -3.5028 -0.4153
   37MOL   H55727989   0.299   6.229   0.399  0.3702  0.3372  0.7689
   37MOL   H55827990   0.218   6.028   0.349 -0.1996  0.3629  0.4734
   37MOL   H55927991   0.290   5.774   0.459 -1.9338 -1.2142 -1.6089
   37MOL   H56027992   0.218   5.870   0.578  0.7417 -1.4747  0.4608
   37MOL   H56127993   0.023   5.898   0.452  2.6081  2.7538 -1.2868
   37MOL   H56227994   0.080   5.842   0.299  2.1101 -0.8401  0.2172
   37MOL   H56327995   0.020   5.671   0.558  0.5550 -1.8338 -0.5626
   37MOL   H56427996   0.064   5.604   0.405 -0.6402  0.6546  0.9360
   37MOL   H56527997   7.532   5.738   0.487  0.5551 -0.7494  1.2530
   37MOL   H56627998   7.561   5.733   0.315  1.7904  0.5068  0.2942
   37MOL   H56727999   7.569   5.474   0.337  1.2783  1.7109 -0.0546
   37MOL   H56828000   7.551   5.478   0.495 -0.0477  0.0847 -0.1332
   37MOL   H56928001   7.343   5.602   0.300  3.4090  1.1191 -0.0458
   37MOL   H57028002   7.316   5.603   0.466 -2.1711 -1.7766  0.3042
   37MOL   H57128003   7.307   5.346   0.446  1.0767 -1.3518 -0.8020
   37MOL   C57228004   7.280   5.358   0.246 -0.4315 -0.1644 -0.2967
   37MOL   O57328005   7.302   5.411   0.139 -0.0494 -0.0841  0.5089
   37MOL   C57428006   7.201   5.222   0.239 -0.9731 -0.3389 -0.6474
   37MOL   C57528007   7.078   5.226   0.149 -0.0649  0.2550  0.1739
   37MOL   C57628008   6.962   5.318   0.190 -0.0388  0.3495  0.5074
   37MOL   C57728009   6.878   5.385   0.079  0.1419  0.3690  0.1728
   37MOL   C57828010   6.959   5.494   0.008 -0.0009  0.8781 -0.6240
   37MOL   O57928011   7.035   5.464   7.623  0.0337  0.0324  0.2625
   37MOL   N58028012   6.951   5.619   0.046 -0.1206  0.3461 -0.1305
   37MOL   C58128013   7.024   5.729   7.701 -0.2844 -0.2521  0.2249
   37MOL   C58228014   7.160   5.738   0.065  0.5644  0.5523  0.5148
   37MOL   C58328015   7.245   5.853   0.001 -0.8204 -0.1515 -0.0508
   37MOL   C58428016   7.384   5.870   0.052  0.0597  0.0963  0.8361
   37MOL   C58528017   7.410   6.010   0.114  0.3989  0.5698  0.2235
   37MOL   C58628018   7.556   6.020   0.163  0.1183  0.1250 -0.6086
   37MOL   N58728019   7.587   6.143   0.237  0.5125 -0.0405 -0.1190
   37MOL   H58828020   7.268   5.149   0.194  0.9019  1.4923 -0.9027
   37MOL   H58928021   7.181   5.191   0.342 -1.9554  0.4572 -0.5891
   37MOL   H59028022   7.107   5.258   0.049  0.4684 -1.3847 -0.2038
   37MOL   H59128023   7.040   5.124   0.141  0.5349 -0.1369  1.9798
   37MOL   H59228024   7.005   5.392   0.258  0.0076 -0.8000  1.7284
   37MOL   H59328025   6.906   5.246   0.249 -0.7121  1.6192  1.4397
   37MOL   H59428026   6.790   5.426   0.128 -0.1985 -1.0074  0.7232
   37MOL   H59528027   6.844   5.313   0.005 -1.2432  1.5804 -0.4139
   37MOL   H59628028   6.892   5.639   0.126 -0.6045 -0.6900 -0.2254
   37MOL   H59728029   7.021   5.726   7.592 -2.7634  2.3530  0.1684
   37MOL   H59828030   6.973   5.823   0.013 -1.0145 -0.5368 -0.2839
   37MOL   H59928031   7.141   5.752   0.172 -5.4607  0.0774 -0.3504
   37MOL   H60028032   7.208   5.641   0.056  0.5315  0.7640 -2.5235
   37MOL   H60128033   7.188   5.945   7.703 -2.8242 -1.3754 -0.6091
   37MOL   H60228034   7.248   5.833   7.602  0.3515  1.6939 -0.3802
   37MOL   H60328035   7.395   5.784   0.119 -1.9941  0.3591  1.5420
   37MOL   H60428036   7.454   5.861   7.677 -0.5046  1.6276  0.1887
   37MOL   H60528037   7.383   6.093   0.048 -0.1740 -0.5571 -0.9891
   37MOL   H60628038   7.332   6.034   0.185  0.9179 -3.1683  2.1711
   37MOL   H60728039   7.625   5.994   0.083  1.3429  1.2245  0.0606
   37MOL   H60828040   7.573   5.940   0.235 -1.3059 -0.0930 -0.5112
   37MOL   H60928041   7.513   6.186   0.292 -2.0398 -1.4491 -2.3672
   37MOL   C61028042   0.003   6.199   0.245  0.6775 -0.3869 -1.1443
   37MOL   O61128043   0.112   6.152   0.205  0.2183 -0.0122 -0.5769
   37MOL   C61228044   0.007   6.340   0.301  0.1514  0.1518 -0.6310
   37MOL   C61328045   0.052   6.445   0.198 -0.1607 -0.1531 -0.3706
   37MOL   C61428046   0.013   6.592   0.231  0.6867 -0.0744  0.0963
   37MOL   C61528047   0.106   6.640   0.352  0.1809 -0.0070  0.0579
   37MOL   C61628048   0.080   6.785   0.372 -0.2356  0.1570 -0.2174
   37MOL   O61728049   7.681   6.829   0.355 -0.5725 -0.3644  1.1006
   37MOL   N61828050   0.184   6.853   0.409 -0.1441  0.7127 -0.3146
   37MOL   C61928051   0.200   6.995   0.390  0.1844 -0.5506  0.4101
   37MOL   C62028052   0.127   7.088   0.495  0.5325 -0.4535 -0.0942
   37MOL   C62128053   0.117   7.229   0.440 -0.1046 -0.0940  0.3449
   37MOL   C62228054   0.015   7.252   0.324 -0.0422 -0.4760  1.5437
   37MOL   C62328055   0.031   7.385   0.259  0.5496  0.2309 -0.8706
   37MOL   C62428056   7.654   7.410   0.133 -0.0733  0.2769  0.2996
   37MOL   N62528057   7.509   7.416   0.149  0.0750 -0.1022  0.1318
   37MOL   H62628058   7.616   6.364   0.337  0.1545 -0.0942 -0.4591
   37MOL   H62728059   0.067   6.352   0.391 -2.2356  2.9459  0.6486
   37MOL   H62828060   0.160   6.449   0.178 -0.2309  0.2402 -0.6965
   37MOL   H62928061   0.004   6.417   0.104  0.0026 -0.6221 -0.3158
   37MOL   H63028062   7.616   6.592   0.262  0.4158  1.1925 -0.8065
   37MOL   H63128063   0.029   6.667   0.154 -0.6964  1.0920  0.8957
   37MOL   H63228064   0.211   6.619   0.336  0.4146 -0.7236  2.2902
   37MOL   H63328065   0.085   6.587   0.445 -0.1847  0.6406  0.3520
   37MOL   H63428066   0.268   6.799   0.425 -1.1539 -1.0345 -0.7806
   37MOL   H63528067   0.308   7.011   0.396  0.0700  1.0322 -1.1526
   37MOL   H63628068   0.166   7.011   0.288 -1.0110 -0.5727  0.7959
   37MOL   H63728069   0.025   7.052   0.507  0.6045 -1.0707 -1.2593
   37MOL   H63828070   0.187   7.080   0.586  0.5699  0.1946 -0.0578
   37MOL   H63928071   0.215   7.265   0.409 -0.8981  1.3199 -0.5871
   37MOL   H64028072   0.082   7.294   0.520  1.2562  0.4279  0.5264
   37MOL   H64128073   0.025   7.176   0.247  2.0904  1.6354 -0.3090
   37MOL   H64228074   7.623   7.230   0.362 -0.0284 -2.5819  0.3955
   37MOL   H64328075   0.019   7.466   0.330  1.9397  1.6825 -2.2432
   37MOL   H64428076   0.132   7.397   0.219  1.3805  1.2704  1.4420
   37MOL   H64528077   7.664   7.330   0.060  2.6983  1.4942 -0.7000
   37MOL   H64628078   7.696   7.504   0.098  0.6093 -0.0810  0.1518
   37MOL   H64728079   7.451   7.341   0.116 -0.0613  0.5516 -1.1227
   37MOL   C64828080   7.440   7.522   0.191  0.2999  0.2641 -0.2149
   37MOL   O64928081   7.492   7.628   0.220 -0.5741  0.0928 -0.2399
   37MOL   C65028082   7.292   7.498   0.205 -0.4689  0.3733 -0.0898
   37MOL   C65128083   7.219   7.619   0.276  0.4784  0.0426 -0.2681
   37MOL   C65228084   7.071   7.582   0.308  0.5387  0.0821 -0.2392
   37MOL   C65328085   6.968   7.634   0.204 -0.0657 -0.4394 -0.0942
   37MOL   C65428086   6.960   7.520   0.101 -1.1988  0.3695 -0.2006
   37MOL   O65528087   6.902   7.415   0.122  0.3378  0.2220 -0.1687
   37MOL   N65628088   7.019   7.547   7.687 -0.1260 -0.0531 -0.0717
   37MOL   C65728089   6.988   7.463   7.574 -0.0168  0.4601 -0.0290
   37MOL   C65828090   6.937   7.545   7.450 -0.6081  0.4783 -0.0083
   37MOL   C65928091   6.806   7.627   7.484  0.0102  0.4767  0.4568
   37MOL   C66028092   6.757   0.019   7.385 -0.1362  0.6242  0.8836
   37MOL   C66128093   6.724   7.667   7.248  0.2645  0.0591  0.0969
   37MOL   C66228094   6.702   0.066   7.143 -1.0087  0.4844 -0.8632
   37MOL   N66328095   6.621   0.183   7.193 -0.2284 -0.3227 -0.5225
   37MOL   H66428096   7.259   7.464   0.107 -1.2312  1.5258 -0.2352
   37MOL   H66528097   7.284   7.409   0.269 -1.3045  0.4688 -0.0680
   37MOL   H66628098   7.278   7.651   0.361  0.0735  1.6684 -0.5930
   37MOL   H66728099   7.216   0.003   0.218 -0.4978 -0.4565 -1.0301
   37MOL   H66828100   7.038   7.635   0.397 -0.1999 -0.8392  0.0524
   37MOL   H66928101   7.060   7.476   0.331  0.7587  0.2091  0.4604
   37MOL   H67028102   7.000   0.022   0.164  2.3507 -1.6993 -1.2915
   37MOL   H67128103   6.874   7.654   0.255  0.1360  0.8811 -0.2265
   37MOL   H67228104   7.068   7.635   7.680  0.8481 -0.5563  0.2400
   37MOL   H67328105   7.085   7.420   7.549 -0.5105 -1.7230  1.6663
   37MOL   H67428106   6.916   7.383   7.592  1.5560 -1.0597 -0.4130
   37MOL   H67528107   7.002   7.630   7.427  2.3141 -1.3261  1.3145
   37MOL   H67628108   6.934   7.480   7.363  0.6420 -0.9248  0.9606
   37MOL   H67728109   6.820   7.680   7.578  1.0519 -0.7834  1.0151
   37MOL   H67828110   6.732   7.549   7.502  1.8866 -1.6191 -0.7468
   37MOL   H67928111   6.661   0.041   7.431 -0.8608  1.4229 -0.9526
   37MOL   H68028112   6.807   0.116   7.384 -1.9995  1.6303  2.5727
   37MOL   H68128113   6.803   7.602   7.211  0.0876 -0.6156  0.9154
   37MOL   H68228114   6.629   7.615   7.245 -0.4407  1.3965 -1.3431
   37MOL   H68328115   6.655   0.017   7.057  0.5049 -3.1196  0.2262
   37MOL   H68428116   6.799   0.098   7.104  0.1982  1.1171  2.5389
   37MOL   H68528117   6.672   0.263   7.228  0.6231 -1.3111  0.5854
   37MOL   C68628118   6.491   0.185   7.220  0.3136  0.3735 -0.6797
   37MOL   O68728119   6.426   0.081   7.210  0.2533 -0.0144  0.3652
   37MOL   C68828120   6.428   0.306   7.283  0.2003 -0.1434  0.5701
   37MOL   C68928121   6.314   0.374   7.205  0.5461  0.4521  0.1770
   37MOL   C69028122   6.352   0.447   7.072  0.1143 -0.5677  0.2862
   37MOL   C69128123   6.230   0.516   7.003 -0.6891  0.0021  0.3495
   37MOL   C69228124   6.151   0.608   7.101  0.0771 -0.0642  0.2642
   37MOL   O69328125   6.198   0.688   7.184  0.1288 -0.1501  0.1773
   37MOL   N69428126   6.017   0.588   7.093  0.4579  0.1285  0.1592
   37MOL   C69528127   5.919   0.634   7.186 -0.1624  0.5757  0.1485
   37MOL   C69628128   5.860   0.767   7.140  1.2547 -0.3109  0.2897
   37MOL   C69728129   5.791   0.866   7.243  0.0744 -0.3295 -0.1812
   37MOL   C69828130   5.711   0.973   7.170  0.3011 -0.3510  0.6609
   37MOL   C69928131   5.795   1.074   7.087  0.6752  0.1601  0.1837
   37MOL   C70028132   5.702   1.173   7.007  0.4676  0.2834 -0.4435
   37MOL   N70128133   5.784   1.285   6.962  0.6728  0.0978  0.2953
   37MOL   H70228134   6.409   0.278   7.386 -3.7539  0.5112  0.1004
   37MOL   H70328135   6.501   0.387   7.291 -0.2654  0.2529  0.7791
   37MOL   H70428136   6.232   0.304   7.185  1.9254 -1.8515  2.2395
   37MOL   H70528137   6.276   0.449   7.274  0.7614  0.6336  0.0986
   37MOL   H70628138   6.376   0.368   7.000 -1.8139  0.4679 -1.5566
   37MOL   H70728139   6.430   0.518   7.095  0.6253 -1.9201  2.8325
   37MOL   H70828140   6.159   0.436   6.981  1.3368 -1.0379 -2.7714
   37MOL   H70928141   6.254   0.570   6.911  0.7551 -2.9470 -1.0866
   37MOL   H71028142   5.986   0.531   7.016 -0.6233 -0.7847  1.2380
   37MOL   H71128143   5.841   0.559   7.200 -0.4698  0.4768 -1.9511
   37MOL   H71228144   5.974   0.653   7.278 -2.5361  0.8640  1.5360
   37MOL   H71328145   5.939   0.826   7.092  0.4143  0.8461  0.2956
   37MOL   H71428146   5.784   0.754   7.063  1.6289 -0.4080 -0.0628
   37MOL   H71528147   5.863   0.911   7.311 -0.5119 -1.3103  1.1196
   37MOL   H71628148   5.731   0.802   7.308 -0.7421  0.1113 -0.4888
   37MOL   H71728149   5.639   0.930   7.100  1.7123  1.2989 -1.9080
   37MOL   H71828150   5.658   1.025   7.250 -1.6745 -0.6162 -0.4328
   37MOL   H71928151   5.855   1.133   7.157 -1.3779  0.3562  1.8030
   37MOL   H72028152   5.855   1.010   7.022 -0.0499 -0.5343  0.1968
   37MOL   H72128153   5.627   1.219   7.072 -0.2357  1.1513 -1.8616
   37MOL   H72228154   5.652   1.118   6.928 -1.5652  0.1192  0.9207
   37MOL   H72328155   5.873   1.280   7.009  0.2075  0.5263  1.2355
   37MOL   C72428156   5.749   1.365   6.869  0.0229 -0.6653  0.4600
   37MOL   O72528157   5.645   1.351   6.805 -0.2792  0.4764  0.1141
   37MOL   C72628158   5.828   1.491   6.838  0.2275 -0.0652 -0.0700
   37MOL   C72728159   5.898   1.507   6.706  0.1411  0.7854 -0.1916
   37MOL   C72828160   5.988   1.386   6.679  0.2056 -0.6950  0.1042
   37MOL   C72928161   6.076   1.406   6.549 -0.6082 -0.5947  0.3271
   37MOL   C73028162   6.005   1.389   6.418 -0.0207  0.5116  0.3990
   37MOL   O73128163   5.912   1.310   6.411  0.1682  0.0678  0.0409
   37MOL   N73228164   6.036   1.470   6.315  0.0863 -0.0277 -0.0993
   37MOL   C73328165   6.114   1.597   6.312 -0.4599  0.1101  0.0526
   37MOL   C73428166   6.051   1.709   6.394  0.0788  0.2133  0.6493
   37MOL   C73528167   6.127   1.844   6.383 -0.3663 -0.1219  0.3867
   37MOL   C73628168   6.084   1.945   6.489  0.1998  0.0521  0.6145
   37MOL   C73728169   6.133   2.090   6.461  0.5282 -0.5238 -0.1282
   37MOL   C73828170   6.107   2.171   6.584 -0.2612 -0.6892 -0.2557
   37MOL   N73928171   6.193   2.292   6.580  0.1618 -0.0836  0.1604
   37MOL   H74028172   5.759   1.573   6.859  0.5197 -0.1941  1.4985
   37MOL   H74128173   5.899   1.493   6.921 -0.5718 -0.5506  0.6298
   37MOL   H74228174   5.829   1.514   6.622  0.1202 -2.8116 -0.5145
   37MOL   H74328175   5.952   1.602   6.710  1.2001  0.1246  1.6543
   37MOL   H74428176   5.916   1.306   6.665 -1.1578  0.4121  0.6372
   37MOL   H74528177   6.054   1.364   6.763 -1.3047 -1.0014  1.2170
   37MOL   H74628178   6.157   1.333   6.543 -0.3101 -0.1988 -0.5901
   37MOL   H74728179   6.137   1.497   6.549  0.3266 -1.2107 -0.5480
   37MOL   H74828180   5.986   1.460   6.228 -0.6193 -1.7188  0.4845
   37MOL   H74928181   6.208   1.574   6.362 -0.1797 -0.8733 -0.8817
   37MOL   H75028182   6.125   1.638   6.211 -0.9653  3.1612  1.1985
   37MOL   H75128183   5.955   1.724   6.345  0.6002 -1.2361 -0.8479
   37MOL   H75228184   6.029   1.687   6.499 -2.6654 -0.2048  0.0266
   37MOL   H75328185   6.109   1.883   6.283 -1.4942  1.4955  1.2003
   37MOL   H75428186   6.233   1.821   6.398 -0.6517 -0.1828  2.4948
   37MOL   H75528187   5.976   1.949   6.502 -0.0947 -2.3373 -0.7125
   37MOL   H75628188   6.126   1.919   6.586  1.3073  1.1518  0.4365
   37MOL   H75728189   6.241   2.081   6.450  0.6629  1.0666 -0.2247
   37MOL   H75828190   6.092   2.145   6.377 -0.4295  1.0572  1.3478
   37MOL   H75928191   6.119   2.107   6.672 -0.5860  1.9678  1.7736
   37MOL   H76028192   6.005   2.205   6.600  0.2645  1.3074 -1.0635
   37MOL   H76128193   6.136   2.362   6.535  0.3867  1.2893  1.9858
   37MOL   H76228194   6.233   2.319   6.669 -0.6150 -2.3656  1.2566
   38MOL     C128195   6.328   3.365   3.745  0.4228  0.0711 -0.0436
   38MOL     O228196   6.237   3.441   3.736  0.6234 -0.3784  0.4020
   38MOL     C328197   6.336   3.246   3.848  0.0282 -0.2820 -0.0792
   38MOL     C428198   6.230   3.142   3.827 -0.2731  0.4402 -0.1223
   38MOL     C528199   6.264   3.058   3.702 -0.7262  0.0173  0.2840
   38MOL     C628200   6.162   2.952   3.672 -0.6871  0.1283  1.2965
   38MOL     C728201   6.192   2.869   3.539 -0.5391  0.0150  0.1573
   38MOL     O828202   6.310   2.847   3.505 -0.2328 -0.1415 -0.3752
   38MOL     N928203   6.089   2.823   3.480 -0.0456 -0.0540  0.4471
   38MOL    C1028204   6.090   2.748   3.359 -0.1614  0.0273  0.7305
   38MOL    C1128205   5.947   2.737   3.303  0.1289 -0.1846  0.1602
   38MOL    C1228206   5.930   2.669   3.163 -0.0329 -0.2987  0.5584
   38MOL    C1328207   5.945   2.765   3.043 -0.1207 -0.0284  0.3286
   38MOL    C1428208   6.081   2.833   3.022  0.3165  0.3709 -0.2360
   38MOL    C1528209   6.091   2.904   2.893  1.1323 -0.0903 -0.4311
   38MOL    N1628210   6.210   2.987   2.879 -0.1109 -0.2411  0.0664
   38MOL    H1728211   6.437   3.206   3.841  0.6038  0.9261  1.1899
   38MOL    H1828212   6.318   3.299   3.942  0.2060  1.2339 -0.8844
   38MOL    H1928213   6.216   3.081   3.917 -0.6224  1.2736  0.3977
   38MOL    H2028214   6.130   3.184   3.818 -0.9312 -1.1880 -0.6679
   38MOL    H2128215   6.359   3.008   3.725 -0.1507  1.9492  2.3143
   38MOL    H2228216   6.295   3.114   3.615  0.9338 -0.2739  0.6692
   38MOL    H2328217   6.065   3.000   3.657  0.2876  1.6777 -0.1245
   38MOL    H2428218   6.161   2.879   3.753  1.1952 -0.6302  0.6790
   38MOL    H2528219   6.006   2.820   3.538  1.2664 -3.2437  2.3222
   38MOL    H2628220   6.151   2.809   3.292 -0.3138 -0.0942  0.4811
   38MOL    H2728221   6.116   2.643   3.373  1.2316  0.2101 -0.2966
   38MOL    H2828222   5.882   2.683   3.371 -1.0835  0.2630 -0.6349
   38MOL    H2928223   5.909   2.839   3.299  0.8418  0.0486 -1.6825
   38MOL    H3028224   5.836   2.615   3.152  0.5408 -1.2399  0.1781
   38MOL    H3128225   6.007   2.592   3.166 -1.3399 -1.7331 -1.1829
   38MOL    H3228226   5.940   2.710   2.949  1.0860  0.5357 -0.0852
   38MOL    H3328227   5.876   2.848   3.054 -0.3812  0.0242 -1.5155
   38MOL    H3428228   6.110   2.898   3.105  1.7383 -0.3197 -0.1916
   38MOL    H3528229   6.144   2.745   3.017 -0.2261  0.0030 -0.6545
   38MOL    H3628230   5.999   2.961   2.878  0.8344 -0.8281 -1.4148
   38MOL    H3728231   6.097   2.831   2.812  0.3206  1.5245 -1.9827
   38MOL    H3828232   6.273   2.995   2.957  2.2062 -3.2684 -1.3841
   38MOL    H3928233   6.412   3.375   3.676 -1.0488  2.4355 -1.5797
   38MOL    C4028234   6.252   3.030   2.760  0.7383  0.5028 -0.5157
   38MOL    O4128235   6.194   2.997   2.654  0.5339  0.4059 -0.1308
   38MOL    C4228236   6.371   3.129   2.761 -0.0701  0.3240 -0.3128
   38MOL    C4328237   6.339   3.269   2.710  0.0008  0.2837 -0.7075
   38MOL    C4428238   6.240   3.348   2.802 -0.4365 -0.0481  0.0428
   38MOL    C4528239   6.224   3.492   2.758 -0.2341 -0.1390 -0.6836
   38MOL    C4628240   6.121   3.550   2.856  0.6344 -0.7164 -0.4603
   38MOL    O4728241   6.033   3.480   2.911 -0.6264  0.1232  0.1091
   38MOL    N4828242   6.133   3.678   2.885  0.1471  0.2551  0.0186
   38MOL    C4928243   6.054   3.762   2.980  0.3528 -0.1622 -0.6492
   38MOL    C5028244   5.970   3.867   2.909  0.6096  0.0213 -0.5376
   38MOL    C5128245   6.045   3.983   2.845  0.0809 -0.2694  0.5317
   38MOL    C5228246   5.946   4.071   2.766 -0.8944 -0.2882  0.8909
   38MOL    C5328247   6.011   4.203   2.720  0.2958 -0.2324 -1.1307
   38MOL    C5428248   5.907   4.268   2.623  0.6230 -0.2956 -0.4845
   38MOL    N5528249   5.923   4.414   2.611 -0.5573  0.1594  0.5621
   38MOL    H5628250   6.423   3.136   2.856  1.1936  1.0037 -1.0417
   38MOL    H5728251   6.450   3.093   2.695 -0.7590  2.0056 -2.1063
   38MOL    H5828252   6.432   3.325   2.699 -0.7722  1.7155 -0.0446
   38MOL    H5928253   6.297   3.264   2.609  1.4041 -0.2350 -1.2751
   38MOL    H6028254   6.277   3.349   2.905 -2.4836  1.4938  0.7868
   38MOL    H6128255   6.142   3.300   2.799 -0.1371 -0.5534 -3.3208
   38MOL    H6228256   6.186   3.488   2.656 -0.7902 -0.1663 -0.4780
   38MOL    H6328257   6.318   3.546   2.773  0.5703 -1.7937  0.4643
   38MOL    H6428258   6.209   3.720   2.833  1.0802  0.9413  1.8766
   38MOL    H6528259   5.991   3.700   3.043  0.9484 -1.9247 -1.7534
   38MOL    H6628260   6.127   3.809   3.046  0.3284 -0.4545 -0.4121
   38MOL    H6728261   5.901   3.823   2.838 -0.9081  0.7647  0.4356
   38MOL    H6828262   5.915   3.920   2.988 -1.3255 -0.9808 -1.1835
   38MOL    H6928263   6.120   3.950   2.773  0.4591  1.3420  0.1674
   38MOL    H7028264   6.088   4.037   2.929 -0.1093 -0.1073  0.5258
   38MOL    H7128265   5.912   4.013   2.681 -0.1849  0.7030 -0.0866
   38MOL    H7228266   5.865   4.093   2.836 -0.4533  0.5667  1.1406
   38MOL    H7328267   6.028   4.266   2.807  1.0383  0.0363 -1.4707
   38MOL    H7428268   6.111   4.209   2.678  1.8706 -1.7327  2.2526
   38MOL    H7528269   5.807   4.241   2.658  0.6775  1.4320  1.0933
   38MOL    H7628270   5.920   4.222   2.525  0.1483  0.6126 -0.9745
   38MOL    H7728271   5.895   4.468   2.692 -1.9988 -0.8241  0.7318
   38MOL    C7828272   5.959   4.481   2.499 -0.1382  0.5473 -0.2236
   38MOL    O7928273   6.009   4.425   2.397  0.7612 -0.1952 -0.3500
   38MOL    C8028274   5.924   4.632   2.503 -0.0474  0.8816 -0.1785
   38MOL    C8128275   6.036   4.718   2.459 -0.0858  0.4134  0.2808
   38MOL    C8228276   6.055   4.724   2.302  0.0804  0.2075  0.3080
   38MOL    C8328277   6.192   4.799   2.271 -0.2010  0.4004  0.8299
   38MOL    C8428278   6.315   4.712   2.272 -0.5829 -0.3254 -0.2542
   38MOL    O8528279   6.417   4.749   2.210  0.0864 -0.1899  0.6110
   38MOL    N8628280   6.326   4.598   2.340 -0.3283  0.4648  0.4289
   38MOL    C8728281   6.447   4.511   2.348  0.2949 -0.2445  0.3263
   38MOL    C8828282   6.495   4.501   2.493  0.5433  0.8189  0.0622
   38MOL    C8928283   6.380   4.462   2.591 -0.1172 -0.3683 -0.0553
   38MOL    C9028284   6.432   4.442   2.733  0.6218 -0.2087  0.1365
   38MOL    C9128285   6.344   4.346   2.818 -0.4069 -0.8406  0.3043
   38MOL    C9228286   6.397   4.314   2.956  0.4164  0.2492 -0.2935
   38MOL    N9328287   6.325   4.208   3.021  0.4371 -0.5994 -0.2162
   38MOL    H9428288   5.836   4.645   2.439 -0.8083  0.2886  0.7379
   38MOL    H9528289   5.881   4.643   2.603  1.9708 -1.3285  0.9888
   38MOL    H9628290   6.019   4.817   2.501 -1.2307 -0.2528  1.4270
   38MOL    H9728291   6.120   4.685   2.520 -1.9220  2.2181  3.9586
   38MOL    H9828292   5.973   4.778   2.254  1.5590  2.4326  0.2085
   38MOL    H9928293   6.060   4.624   2.259  1.3897  0.6589 -0.5975
   38MOL   H10028294   6.198   4.893   2.325 -0.3050  0.7363  0.2499
   38MOL   H10128295   6.181   4.830   2.168 -0.4177  1.2597  1.1094
   38MOL   H10228296   6.233   4.569   2.364 -0.8033 -0.9647 -2.7745
   38MOL   H10328297   6.423   4.406   2.332  0.0130 -0.3310  1.2692
   38MOL   H10428298   6.524   4.542   2.277  1.5095 -0.2633  1.6042
   38MOL   H10528299   6.567   4.419   2.499 -0.7114 -0.3968 -0.8815
   38MOL   H10628300   6.536   4.597   2.525 -0.2168  0.6748  1.5365
   38MOL   H10728301   6.335   4.369   2.556  0.0356 -1.9830  3.7841
   38MOL   H10828302   6.294   4.528   2.594  1.8384  2.1853  2.0408
   38MOL   H10928303   6.537   4.414   2.727  0.3929 -1.4974  1.6821
   38MOL   H11028304   6.433   4.540   2.782 -0.5534  0.5888 -1.3857
   38MOL   H11128305   6.242   4.384   2.820 -0.2740 -0.5027  0.9266
   38MOL   H11228306   6.355   4.246   2.777 -0.6828 -0.8313  0.2138
   38MOL   H11328307   6.395   4.405   3.016  3.2007  1.0304 -1.3099
   38MOL   H11428308   6.503   4.297   2.937  0.1862 -1.6316 -0.0055
   38MOL   H11528309   6.329   4.123   2.967 -1.3963 -0.7452 -0.1421
   38MOL   C11628310   6.280   4.201   3.147  0.1170 -0.1057  0.6797
   38MOL   O11728311   6.267   4.296   3.221 -0.8068 -0.0326  0.1803
   38MOL   C11828312   6.236   4.065   3.189  0.0799 -0.1637  0.6454
   38MOL   C11928313   6.183   4.053   3.327  0.1300 -0.0764 -0.8928
   38MOL   C12028314   6.059   4.131   3.359  0.5862 -0.8977 -0.7824
   38MOL   C12128315   6.004   4.096   3.496 -0.7324  0.4837  0.1214
   38MOL   C12228316   5.875   4.174   3.535  0.5213 -0.3949  0.1360
   38MOL   O12328317   5.834   4.273   3.477  0.2514  0.8758 -0.4934
   38MOL   N12428318   5.816   4.124   3.642 -0.4473  0.4178 -0.2755
   38MOL   C12528319   5.682   4.156   3.695  0.1727  0.1093  0.6649
   38MOL   C12628320   5.635   4.050   3.793  0.2246 -0.3341  0.3710
   38MOL   C12728321   5.704   4.074   3.931  0.0580  0.3319  0.4800
   38MOL   C12828322   5.635   4.002   4.048  0.0315  0.1922 -1.1920
   38MOL   C12928323   5.698   4.038   4.184  0.4522  0.4469 -0.6845
   38MOL   C13028324   5.645   3.938   4.286  0.3289  0.0073 -0.3723
   38MOL   N13128325   5.749   3.925   4.383  0.0708  0.3253 -0.3226
   38MOL   H13228326   6.155   4.035   3.122 -1.9926 -0.1144  3.0666
   38MOL   H13328327   6.325   4.002   3.185 -0.0468 -0.2478 -1.5564
   38MOL   H13428328   6.163   3.947   3.343  1.9219 -0.5431 -1.6428
   38MOL   H13528329   6.258   4.075   3.404 -0.5135  2.2781 -0.9062
   38MOL   H13628330   5.988   4.098   3.283 -1.1882  0.5712  0.1963
   38MOL   H13728331   6.070   4.240   3.359 -1.6558 -0.5917  2.7707
   38MOL   H13828332   6.085   4.129   3.561 -1.1849  2.2358 -0.1838
   38MOL   H13928333   5.981   3.991   3.513  1.3805 -0.1732 -0.8325
   38MOL   H14028334   5.872   4.054   3.690 -0.2959  0.8403  0.1691
   38MOL   H14128335   5.674   4.254   3.742  1.2960 -0.0793  1.2712
   38MOL   H14228336   5.624   4.151   3.603  1.5328 -0.6353 -0.1634
   38MOL   H14328337   5.526   4.052   3.794  0.1632 -1.7798 -1.1947
   38MOL   H14428338   5.656   3.950   3.755  2.0459  1.1532 -2.6655
   38MOL   H14528339   5.709   4.181   3.951 -0.1212  0.2543  0.9478
   38MOL   H14628340   5.808   4.041   3.923 -0.9073 -2.3741 -1.6602
   38MOL   H14728341   5.534   4.044   4.050 -0.3343 -0.6869 -0.9598
   38MOL   H14828342   5.633   3.894   4.033  0.5956  0.0417 -0.2547
   38MOL   H14928343   5.807   4.034   4.190  0.2888 -1.9266  1.8427
   38MOL   H15028344   5.667   4.139   4.212 -0.5312  0.0434 -0.2952
   38MOL   H15128345   5.622   3.840   4.246  0.5183  0.9803 -2.9839
   38MOL   H15228346   5.564   3.982   4.344 -0.2407 -1.9149  0.3045
   38MOL   H15328347   5.798   4.010   4.404  0.4656 -0.2892  1.3304
   38MOL   C15428348   5.798   3.807   4.428  0.4010  0.0817 -0.1113
   38MOL   O15528349   5.755   3.704   4.388  0.0635  0.6140  0.0254
   38MOL   C15628350   5.908   3.816   4.535 -0.2216  0.3672 -0.0274
   38MOL   C15728351   6.006   3.695   4.536 -0.0259 -0.4095  0.1281
   38MOL   C15828352   5.963   3.595   4.647 -0.9268  0.9338 -0.4089
   38MOL   C15928353   6.071   3.487   4.679  0.5044  0.0044  1.0038
   38MOL   C16028354   6.012   3.360   4.747  0.1803  0.9067 -0.4428
   38MOL   O16128355   5.955   3.272   4.683 -0.1806 -0.5931  0.3447
   38MOL   N16228356   6.012   3.364   4.882  0.6099  0.3542  0.0853
   38MOL   C16328357   5.931   3.270   4.972  0.2665 -0.4700  0.1471
   38MOL   C16428358   6.005   3.139   4.997 -0.2894  0.4349 -0.0130
   38MOL   C16528359   5.913   3.036   5.063 -0.7303 -0.1203  0.5705
   38MOL   C16628360   5.780   2.997   4.996 -0.1307  0.7503  0.5071
   38MOL   C16728361   5.700   2.903   5.080 -0.0473 -0.1836 -0.2335
   38MOL   C16828362   5.565   2.860   5.017  0.2550 -0.3245  0.0747
   38MOL   N16928363   5.488   2.978   4.970 -0.3545  0.2142 -0.2228
   38MOL   H17028364   5.966   3.905   4.514 -0.4116  0.3158 -0.7902
   38MOL   H17128365   5.878   3.839   4.638 -0.1205  0.0170  0.0830
   38MOL   H17228366   6.030   3.650   4.440  2.7825 -1.0983  1.0759
   38MOL   H17328367   6.107   3.726   4.563  0.6147  0.3636 -2.9696
   38MOL   H17428368   5.873   3.550   4.607 -0.2394 -0.3754 -0.5153
   38MOL   H17528369   5.927   3.651   4.733  0.0979  0.8791  0.0675
   38MOL   H17628370   6.167   3.522   4.716  0.3257 -0.9307  2.3636
   38MOL   H17728371   6.096   3.448   4.580  0.3037 -0.2112  1.0366
   38MOL   H17828372   6.075   3.430   4.926  1.1236 -0.4343  0.5655
   38MOL   H17928373   5.927   3.305   5.075 -0.9308 -1.6341  0.5146
   38MOL   H18028374   5.827   3.260   4.942 -0.1599 -0.7947  1.6911
   38MOL   H18128375   6.040   3.103   4.900 -0.0263 -1.3189  0.7260
   38MOL   H18228376   6.092   3.158   5.059 -0.8270  1.7631  0.3767
   38MOL   H18328377   5.891   3.053   5.168  0.2075  1.0706  0.5777
   38MOL   H18428378   5.966   2.941   5.069 -1.4253 -0.4826  1.0193
   38MOL   H18528379   5.720   3.087   4.981 -1.1017  0.1095  0.5517
   38MOL   H18628380   5.790   2.953   4.897 -0.4811 -0.0393  0.8233
   38MOL   H18728381   5.773   2.826   5.104  2.1573  1.4778 -1.4046
   38MOL   H18828382   5.687   2.939   5.182  1.0207 -0.5628  0.0393
   38MOL   H18928383   5.500   2.802   5.083 -1.1594  0.5684 -0.5028
   38MOL   H19028384   5.595   2.808   4.926 -1.0002 -0.4276 -0.2902
   38MOL   H19128385   5.500   3.073   5.000  0.1835  0.1250 -0.1543
   38MOL   C19228386   5.364   2.971   4.915 -0.5429  0.0006 -0.3342
   38MOL   O19328387   5.304   2.862   4.896 -0.2771  0.1760  0.2010
   38MOL   C19428388   5.304   3.101   4.868  0.8782 -0.2893 -0.1857
   38MOL   C19528389   5.173   3.140   4.935 -0.4375  0.1895  0.3849
   38MOL   C19628390   5.042   3.092   4.877  0.5047  0.2187  0.2245
   38MOL   C19728391   4.972   2.961   4.933  0.5641 -0.3182  0.1946
   38MOL   C19828392   4.942   2.852   4.832  0.6417  0.5199 -0.1510
   38MOL   O19928393   4.832   2.852   4.777  0.0001  0.5099 -0.3994
   38MOL   N20028394   5.031   2.754   4.833  0.7023 -0.4387  0.1444
   38MOL   C20128395   5.022   2.631   4.755  0.3079 -0.1542 -0.1097
   38MOL   C20228396   5.061   2.652   4.608  0.6622 -0.5331 -0.7499
   38MOL   C20328397   5.216   2.677   4.587  0.7657 -0.0945 -0.6349
   38MOL   C20428398   5.251   2.717   4.439  0.1225 -0.0788 -0.2628
   38MOL   C20528399   5.406   2.727   4.412  0.0778  0.8508  0.7546
   38MOL   C20628400   5.444   2.726   4.264  0.5242  0.1091 -0.8101
   38MOL   N20728401   5.577   2.772   4.245 -0.2067  1.2006  0.3726
   38MOL   H20828402   5.380   3.179   4.861 -0.6564  1.4390  1.7310
   38MOL   H20928403   5.288   3.072   4.764  2.5223  5.0011 -2.1076
   38MOL   H21028404   5.177   3.121   5.042 -1.8402 -0.8111  0.2771
   38MOL   H21128405   5.180   3.248   4.929 -2.2695  0.2545 -1.2050
   38MOL   H21228406   5.060   3.093   4.769  1.5272  1.0075  0.3937
   38MOL   H21328407   4.962   3.165   4.892 -0.2206 -1.3926  4.8309
   38MOL   H21428408   4.878   2.984   4.985  0.0696 -0.2885 -0.7048
   38MOL   H21528409   5.031   2.912   5.011 -0.7987 -0.1632  1.3576
   38MOL   H21628410   5.113   2.783   4.884  0.7128  2.4743 -1.4312
   38MOL   H21728411   5.086   2.559   4.806 -0.2944 -0.4869  0.1820
   38MOL   H21828412   4.920   2.593   4.754  0.7971 -1.5543  1.3597
   38MOL   H21928413   5.022   2.567   4.551  0.0366 -0.9479  0.2881
   38MOL   H22028414   5.004   2.735   4.566  0.6059  0.6895  1.6494
   38MOL   H22128415   5.272   2.589   4.620  0.1870  0.8016  2.9105
   38MOL   H22228416   5.248   2.750   4.661  1.0740 -2.2880  1.4729
   38MOL   H22328417   5.230   2.635   4.370 -0.1420 -1.0211  0.9320
   38MOL   H22428418   5.203   2.808   4.401 -0.4336  0.1997  1.0852
   38MOL   H22528419   5.454   2.811   4.462 -4.6353  2.0945  3.5473
   38MOL   H22628420   5.448   2.636   4.454 -1.6501 -1.7543 -2.8559
   38MOL   H22728421   5.371   2.783   4.208 -3.6731 -2.3599  1.9036
   38MOL   H22828422   5.446   2.624   4.227  0.1088 -1.1171  2.3838
   38MOL   H22928423   5.621   2.823   4.320 -0.9705  1.2928  0.7630
   38MOL   C23028424   5.641   2.745   4.134  0.5120 -0.4840 -0.9546
   38MOL   O23128425   5.591   2.685   4.036  0.5036  0.4956 -0.0351
   38MOL   C23228426   5.775   2.819   4.129 -0.4837 -0.0902  0.4977
   38MOL   C23328427   5.876   2.781   4.011 -0.0045  0.0521  0.4425
   38MOL   C23428428   5.826   2.811   3.867 -0.0096 -0.3412  0.2519
   38MOL   C23528429   5.765   2.951   3.840 -0.7266  0.1727 -0.2152
   38MOL   C23628430   5.728   2.957   3.688  0.3949 -0.3214 -0.3605
   38MOL   O23728431   5.787   2.887   3.608 -0.9245 -0.1446  0.0814
   38MOL   N23828432   5.636   3.053   3.659  0.6131 -0.1339 -0.6258
   38MOL   C23928433   5.569   3.095   3.536 -0.3740  0.1935  0.5481
   38MOL   C24028434   5.572   2.994   3.422  0.2405  0.1039  0.2644
   38MOL   C24128435   5.472   3.037   3.312 -0.2666 -0.2432 -0.2993
   38MOL   C24228436   5.460   2.940   3.188  1.0828  0.3543  0.3929
   38MOL   C24328437   5.338   2.988   3.103  0.3102  0.2453 -0.0322
   38MOL   C24428438   5.334   2.909   2.967  0.2573 -0.0089  0.0072
   38MOL   N24528439   5.207   2.939   2.898  0.2045 -0.1520  0.0461
   38MOL   H24628440   5.750   2.926   4.126 -3.3716 -0.7146  0.5675
   38MOL   H24728441   5.828   2.819   4.224 -0.4158  0.7332  0.4641
   38MOL   H24828442   5.958   2.848   4.036 -0.0912  0.5719 -0.6424
   38MOL   H24928443   5.908   2.677   4.017  0.7337  0.2852  0.5594
   38MOL   H25028444   5.751   2.741   3.829  0.8208  0.0575 -2.1792
   38MOL   H25128445   5.911   2.789   3.803 -0.1482  2.3585 -0.9196
   38MOL   H25228446   5.831   3.026   3.883  1.0135 -1.7498  0.5987
   38MOL   H25328447   5.680   2.957   3.907  0.1138 -1.1001  0.9988
   38MOL   H25428448   5.618   3.117   3.735 -0.0337 -0.7164 -0.2854
   38MOL   H25528449   5.465   3.121   3.556 -0.0763  1.0874  0.9904
   38MOL   H25628450   5.618   3.179   3.487 -1.8417 -0.5220 -2.2541
   38MOL   H25728451   5.672   2.994   3.379 -0.1362 -1.5026 -0.6775
   38MOL   H25828452   5.553   2.891   3.453 -0.4447 -0.4705 -1.9505
   38MOL   H25928453   5.509   3.131   3.272 -1.6143  0.7350  0.6909
   38MOL   H26028454   5.375   3.050   3.358  0.1995  0.1838  0.5827
   38MOL   H26128455   5.550   2.944   3.128  0.3597  1.1164 -0.6503
   38MOL   H26228456   5.458   2.839   3.228  2.0966 -0.4201 -1.4631
   38MOL   H26328457   5.251   2.959   3.162  0.7188  0.1338  0.5236
   38MOL   H26428458   5.331   3.096   3.097  2.0650  0.3627 -0.1458
   38MOL   H26528459   5.327   2.805   3.001  2.0500  0.9614  3.5661
   38MOL   H26628460   5.422   2.914   2.903  1.8554 -0.0831  2.1404
   38MOL   H26728461   5.218   2.984   2.808 -2.6996 -0.4826 -0.5165
   38MOL   C26828462   5.076   2.916   2.936  0.4073 -0.0475  0.9880
   38MOL   O26928463   5.043   2.860   3.040 -0.4724  0.4452 -0.1110
   38MOL   C27028464   4.971   2.985   2.848 -0.5600 -0.1955 -0.2432
   38MOL   C27128465   4.837   3.012   2.928 -0.1185  0.2226 -0.5674
   38MOL   C27228466   4.758   3.129   2.861  0.3773 -0.2046 -0.0675
   38MOL   C27328467   4.653   3.185   2.960  0.0749  0.2144 -0.1915
   38MOL   C27428468   4.533   3.255   2.903 -0.0690  0.0501  0.0988
   38MOL   O27528469   4.437   3.186   2.868  0.0648  0.0620 -0.4546
   38MOL   N27628470   4.539   3.390   2.890  0.5872  0.1884  0.5101
   38MOL   C27728471   4.440   3.480   2.840  0.0140 -0.2840 -0.0062
   38MOL   C27828472   4.389   3.584   2.941  0.7982  0.0299 -0.0692
   38MOL   C27928473   4.265   3.656   2.889  1.0189 -0.2046 -0.4757
   38MOL   C28028474   4.202   3.755   2.994 -0.5057 -0.1756  0.3786
   38MOL   C28128475   4.111   3.853   2.924 -0.1711  0.1279 -0.6526
   38MOL   C28228476   3.987   3.785   2.859 -0.1487  0.5748  0.1501
   38MOL   N28328477   3.886   3.889   2.818 -0.8074 -0.4660 -0.5448
   38MOL   H28428478   5.010   3.082   2.817 -1.8854  0.6027  0.5573
   38MOL   H28528479   4.953   2.926   2.758 -0.4469  1.5556 -1.4417
   38MOL   H28628480   4.773   2.924   2.924 -1.8575  1.3486  1.2354
   38MOL   H28728481   4.860   3.023   3.035 -1.1289  2.0879 -0.5315
   38MOL   H28828482   4.697   3.098   2.777 -1.1272  1.5618  0.3499
   38MOL   H28928483   4.828   3.205   2.826 -1.6227  0.8919 -1.7562
   38MOL   H29028484   4.704   3.258   3.023  3.1406 -2.1695  0.2065
   38MOL   H29128485   4.624   3.117   3.040 -2.5950  0.7899 -0.6274
   38MOL   H29228486   4.628   3.433   2.910  0.8519  0.7772 -1.7167
   38MOL   H29328487   4.487   3.532   2.756  0.2892  0.9226  0.8785
   38MOL   H29428488   4.347   3.434   2.805  0.0426 -0.8092  0.6121
   38MOL   H29528489   4.365   3.541   3.038 -0.6582 -0.7902 -0.7805
   38MOL   H29628490   4.468   3.652   2.972 -0.4270  2.3798 -1.9653
   38MOL   H29728491   4.187   3.588   2.853 -1.3314  2.4783 -0.6117
   38MOL   H29828492   4.295   3.711   2.799  1.7567 -0.7948 -0.5980
   38MOL   H29928493   4.149   3.715   3.080 -1.2317 -0.0324  0.0013
   38MOL   H30028494   4.276   3.821   3.040 -2.3798  1.3272  1.3192
   38MOL   H30128495   4.074   3.925   2.996 -1.0194 -1.3115  0.3784
   38MOL   H30228496   4.163   3.908   2.846  2.2372 -2.6094 -1.0627
   38MOL   H30328497   3.943   3.725   2.939 -0.3554  0.2497 -0.1992
   38MOL   H30428498   4.013   3.728   2.769  1.1796 -1.9344  2.0848
   38MOL   H30528499   3.923   3.976   2.782  0.3666 -0.0129  1.7094
   38MOL   C30628500   3.755   3.867   2.810  0.4442 -0.5383 -0.1976
   38MOL   O30728501   3.705   3.757   2.831  0.1159  0.2014  0.1458
   38MOL   C30828502   3.672   3.987   2.773 -0.3650 -0.2434 -0.1537
   38MOL   C30928503   3.662   4.006   2.619 -0.0897  0.1836 -0.6362
   38MOL   C31028504   3.599   3.891   2.542  0.5460 -0.9929 -0.3744
   38MOL   C31128505   3.567   3.933   2.398  0.1544 -0.9266 -0.0529
   38MOL   C31228506   3.693   3.935   2.303  0.1255  0.4722 -0.9028
   38MOL   O31328507   3.791   3.878   2.341 -0.4516  0.1360  0.1088
   38MOL   N31428508   3.689   3.991   2.183  0.4091  0.0414  0.9454
   38MOL   C31528509   3.798   3.986   2.088  0.1756 -0.3329 -0.1453
   38MOL   C31628510   3.910   4.084   2.127  0.1715  0.0887  0.5269
   38MOL   C31728511   4.019   4.102   2.022 -0.2247  0.0998  0.7027
   38MOL   C31828512   4.130   3.998   2.012 -0.3250  0.2635  0.2059
   38MOL   C31928513   4.232   4.009   1.893 -0.1109 -0.0147  0.0074
   38MOL   C32028514   4.181   3.930   1.774 -0.4191  0.3692 -0.3899
   38MOL   N32128515   4.285   3.879   1.689 -0.0403 -0.1897  0.0442
   38MOL   H32228516   3.566   3.974   2.799 -0.6145  2.3548  0.1983
   38MOL   H32328517   3.714   4.076   2.818  0.4873 -0.4420 -0.5529
   38MOL   H32428518   3.603   4.095   2.599 -0.1683  0.2788  0.0339
   38MOL   H32528519   3.763   4.019   2.578 -0.6996 -1.1386 -2.6448
   38MOL   H32628520   3.509   3.865   2.599 -1.2988 -0.7421 -3.0659
   38MOL   H32728521   3.668   3.807   2.548  0.5917 -1.1481 -2.4657
   38MOL   H32828522   3.525   4.034   2.388  2.5769  0.0801 -0.3677
   38MOL   H32928523   3.492   3.865   2.357 -1.8864  1.0464  0.2608
   38MOL   H33028524   3.614   4.056   2.163  1.3913  1.0712  0.5653
   38MOL   H33128525   3.847   3.888   2.090  1.4236  0.2835 -0.0449
   38MOL   H33228526   3.766   3.997   1.984 -2.5301  0.3585  0.7394
   38MOL   H33328527   3.869   4.181   2.155 -2.7764 -1.0355  0.2940
   38MOL   H33428528   3.953   4.052   2.222 -1.6721  2.8431  2.3712
   38MOL   H33528529   4.059   4.203   2.034 -1.3315  0.5721  0.4232
   38MOL   H33628530   3.974   4.101   1.923  0.2016 -3.3380  0.4834
   38MOL   H33728531   4.189   4.015   2.102 -0.0740  1.1546 -0.1232
   38MOL   H33828532   4.098   3.894   2.011  1.0674 -0.1801 -0.5469
   38MOL   H33928533   4.245   4.111   1.856 -1.3077  0.1226 -0.0533
   38MOL   H34028534   4.334   3.982   1.923 -0.2156 -1.4198 -0.8503
   38MOL   H34128535   4.117   3.993   1.712 -1.3971  0.8007  1.0399
   38MOL   H34228536   4.113   3.851   1.806 -1.3959  0.2846 -2.5973
   38MOL   H34328537   4.280   3.778   1.686  0.0289 -0.1810 -0.3522
   38MOL   C34428538   4.378   3.933   1.612  0.1729 -0.2745  0.2622
   38MOL   O34528539   4.408   4.057   1.616 -0.1902  0.2447  1.0174
   38MOL   C34628540   4.458   3.837   1.513 -0.0359 -0.2454  0.0148
   38MOL   C34728541   4.537   3.901   1.396 -0.8839 -0.1673  0.1718
   38MOL   C34828542   4.685   3.923   1.428 -0.8397 -0.7034 -0.1425
   38MOL   C34928543   4.705   4.030   1.529  0.2217  0.1050 -0.1503
   38MOL   C35028544   4.855   4.065   1.539 -0.3328  0.3650  0.5402
   38MOL   O35128545   4.923   4.014   1.623 -0.2558 -0.4874 -0.4824
   38MOL   N35228546   4.909   4.153   1.455 -0.0983 -0.1267  0.7245
   38MOL   C35328547   5.049   4.181   1.458 -0.1352  0.7348  0.1018
   38MOL   C35428548   5.096   4.285   1.353 -0.1896 -0.1242 -0.0262
   38MOL   C35528549   5.252   4.284   1.349  0.1978 -0.4237 -0.3729
   38MOL   C35628550   5.303   4.398   1.259  0.6189 -0.2427  0.0883
   38MOL   C35728551   5.442   4.399   1.205 -0.0549  0.1384 -0.6297
   38MOL   C35828552   5.485   4.511   1.108 -0.8736  0.3548 -0.4341
   38MOL   N35928553   5.616   4.482   1.049  0.1897 -0.2749  0.2700
   38MOL   H36028554   4.527   3.780   1.575  0.0666  0.6084  0.6811
   38MOL   H36128555   4.389   3.759   1.481 -0.5885  1.0231 -1.9955
   38MOL   H36228556   4.527   3.838   1.307  0.9925  2.3822 -1.9520
   38MOL   H36328557   4.490   3.995   1.366  0.0090 -0.1242 -1.1872
   38MOL   H36428558   4.725   3.943   1.329  0.1053  3.7661  1.0377
   38MOL   H36528559   4.737   3.832   1.458 -0.2893  0.1731  1.6066
   38MOL   H36628560   4.681   3.995   1.630  0.7605 -1.1754 -0.4478
   38MOL   H36728561   4.647   4.113   1.490 -1.0375 -0.5164  0.3655
   38MOL   H36828562   4.857   4.198   1.381  0.4429  1.7724  1.4878
   38MOL   H36928563   5.084   4.208   1.558 -0.4950 -1.7916  0.9462
   38MOL   H37028564   5.095   4.086   1.430 -0.9128 -0.0890  1.5507
   38MOL   H37128565   5.057   4.266   1.253  0.4119  1.4293 -0.5668
   38MOL   H37228566   5.063   4.384   1.387 -2.1791 -1.0233  0.7706
   38MOL   H37328567   5.292   4.189   1.313  0.9825  1.1156 -3.7167
   38MOL   H37428568   5.290   4.295   1.451  2.4454 -1.1838 -1.1038
   38MOL   H37528569   5.235   4.393   1.174  0.1334 -1.6121  0.5461
   38MOL   H37628570   5.302   4.493   1.313 -1.0704  0.2664 -0.7715
   38MOL   H37728571   5.509   4.402   1.290 -0.0449  1.0289 -0.6594
   38MOL   H37828572   5.462   4.307   1.151  0.2683 -0.3124  0.2536
   38MOL   H37928573   5.490   4.613   1.148  1.2898  0.7979 -1.7560
   38MOL   H38028574   5.410   4.518   1.030 -0.3881  0.3856 -0.9067
   38MOL   H38128575   5.664   4.407   1.096  0.1562 -1.0319 -0.8825
   38MOL   C38228576   5.662   4.549   0.943 -0.3179  0.1569 -0.0385
   38MOL   O38328577   5.600   4.650   0.908  0.0346 -0.1071 -0.4639
   38MOL   C38428578   5.783   4.499   0.865  0.4866  0.3033  0.5758
   38MOL   C38528579   5.757   4.400   0.746 -0.6183  0.2457 -0.1650
   38MOL   C38628580   5.674   4.446   0.626 -0.6254  0.1503 -0.6416
   38MOL   C38728581   5.522   4.428   0.642  0.5281  0.3499  0.4071
   38MOL   C38828582   5.436   4.507   0.543 -0.5971 -0.3512  0.7352
   38MOL   O38928583   5.469   4.505   0.426 -0.1818  0.0187  0.3725
   38MOL   N39028584   5.325   4.573   0.581  0.2028 -0.4647  0.1375
   38MOL   C39128585   5.232   4.641   0.488  0.9384 -0.4574 -0.0245
   38MOL   C39228586   5.124   4.555   0.435  0.1283 -0.3600  0.2188
   38MOL   C39328587   5.025   4.632   0.345  0.1725  0.7789  0.0692
   38MOL   C39428588   5.069   4.619   0.198  0.0728  0.4473 -0.1990
   38MOL   C39528589   4.997   4.698   0.095  0.1503 -0.8416  0.7561
   38MOL   C39628590   5.065   4.679   7.666  0.4248 -0.1435  0.0881
   38MOL   N39728591   5.019   4.771   7.565  0.6514 -0.2092  0.2431
   38MOL   H39828592   5.847   4.577   0.824  1.5570 -2.1227 -2.5290
   38MOL   H39928593   5.836   4.447   0.945  0.3827 -0.4543  0.1483
   38MOL   H40028594   5.852   4.372   0.701 -1.0804 -2.7857  0.6000
   38MOL   H40128595   5.722   4.304   0.786  0.4597 -1.2027 -2.5971
   38MOL   H40228596   5.708   4.409   0.529  2.0283 -1.1756  0.7607
   38MOL   H40328597   5.692   4.554   0.618 -1.0014  0.1266 -1.9515
   38MOL   H40428598   5.488   4.455   0.742 -0.3420  1.4219 -0.1549
   38MOL   H40528599   5.511   4.321   0.629  0.4410  0.2126  1.5589
   38MOL   H40628600   5.298   4.559   0.677  0.3962 -0.9683  0.1175
   38MOL   H40728601   5.177   4.722   0.537  0.3185 -0.8620 -0.0389
   38MOL   H40828602   5.291   4.686   0.408  1.7323  3.0378  2.4011
   38MOL   H40928603   5.150   4.458   0.391 -3.1034 -2.3506  2.4850
   38MOL   H41028604   5.072   4.526   0.527 -1.3588 -3.1748 -1.4411
   38MOL   H41128605   5.025   4.733   0.385  2.8735  1.3004 -1.1324
   38MOL   H41228606   4.922   4.603   0.362 -0.2524  1.5651 -1.1048
   38MOL   H41328607   5.176   4.643   0.194 -0.2679  1.7611 -1.9211
   38MOL   H41428608   5.075   4.517   0.161  0.5213  0.8597 -1.2822
   38MOL   H41528609   4.892   4.671   0.083  0.4489 -2.2383  1.1529
   38MOL   H41628610   4.990   4.800   0.134  2.2565  0.4129 -1.9645
   38MOL   H41728611   5.043   4.578   7.631  0.9731 -0.3005  0.1814
   38MOL   H41828612   5.174   4.683   7.667  0.4397  3.9554 -2.5957
   38MOL   H41928613   4.977   4.859   7.592 -1.7696 -1.1607 -0.2293
   38MOL   C42028614   5.060   4.776   7.443 -0.3993 -0.0457  0.4361
   38MOL   O42128615   5.123   4.683   7.397 -0.2111 -0.2403  0.4938
   38MOL   C42228616   5.022   4.905   7.372 -0.6248  0.4922 -0.0951
   38MOL   C42328617   5.098   4.933   7.236  0.1316  0.4220 -0.0435
   38MOL   C42428618   5.052   4.850   7.115 -0.2112  1.0387  0.5298
   38MOL   C42528619   5.137   4.889   6.989 -0.1669  0.0176  0.8855
   38MOL   C42628620   5.145   4.798   6.868  0.0394  0.2992  0.5794
   38MOL   O42728621   5.043   4.741   6.836 -0.1231 -0.2719 -0.2501
   38MOL   N42828622   5.252   4.803   6.793 -0.1309  0.4769 -0.4283
   38MOL   C42928623   5.283   4.713   6.682 -0.1650  0.2812  0.4701
   38MOL   C43028624   5.416   4.639   6.708 -0.7420  0.3060 -0.0001
   38MOL   C43128625   5.447   4.523   6.600  0.1878 -0.3817 -0.5470
   38MOL   C43228626   5.576   4.454   6.634 -0.2013 -0.3298  0.4073
   38MOL   C43328627   5.703   4.543   6.629  0.4776 -0.6966 -0.0174
   38MOL   C43428628   5.837   4.467   6.626 -0.0621 -0.3760 -0.0201
   38MOL   N43528629   5.958   4.528   6.689  1.2501 -0.0984 -0.5333
   38MOL   H43628630   4.915   4.903   7.352 -0.4416  1.0916 -1.2239
   38MOL   H43728631   5.039   4.986   7.444 -1.5664 -1.1702  2.0454
   38MOL   H43828632   5.082   5.039   7.218 -1.4250  0.0955 -0.6682
   38MOL   H43928633   5.203   4.923   7.261  0.4981 -0.3787 -1.8347
   38MOL   H44028634   4.947   4.867   7.095  0.4330  2.0975 -2.2085
   38MOL   H44128635   5.075   4.744   7.128  0.1388  0.8257 -1.6662
   38MOL   H44228636   5.238   4.894   7.030 -0.0761  0.4114  0.6223
   38MOL   H44328637   5.114   4.991   6.955 -0.9532 -0.2810  0.5102
   38MOL   H44428638   5.325   4.861   6.833 -0.2393  0.0524  0.3922
   38MOL   H44528639   5.200   4.649   6.651 -0.3733  0.1897  1.1967
   38MOL   H44628640   5.298   4.771   6.592 -1.3017  2.2637  1.5293
   38MOL   H44728641   5.497   4.711   6.716  1.2743 -2.0229  1.2625
   38MOL   H44828642   5.422   4.593   6.807  0.5193 -0.1556 -0.2865
   38MOL   H44928643   5.459   4.570   6.503  1.1300  1.3431  0.3736
   38MOL   H45028644   5.357   4.462   6.603 -1.1108  1.4728 -0.5921
   38MOL   H45128645   5.562   4.399   6.727 -1.9145  0.6322  0.7461
   38MOL   H45228646   5.585   4.370   6.566 -2.2406 -0.7926  0.6562
   38MOL   H45328647   5.703   4.599   6.535 -0.3307 -2.3918 -1.0393
   38MOL   H45428648   5.719   4.613   6.711  1.8311 -1.3884  0.3133
   38MOL   H45528649   5.862   4.439   6.524 -0.0073 -0.0299 -0.1025
   38MOL   H45628650   5.839   4.368   6.672 -2.1671 -1.1061 -1.4599
   38MOL   H45728651   5.982   4.488   6.779  0.3325 -0.1452 -0.2970
   38MOL   C45828652   6.047   4.616   6.637  0.1018 -0.3094 -0.0865
   38MOL   O45928653   6.016   4.683   6.540 -0.4312 -0.1961  0.2962
   38MOL   C46028654   6.186   4.625   6.699 -0.2477  0.5940 -0.3998
   38MOL   C46128655   6.294   4.697   6.603  0.0518 -0.2585 -0.1909
   38MOL   C46228656   6.438   4.682   6.640  0.0704 -0.1698 -0.4538
   38MOL   C46328657   6.538   4.715   6.531 -0.4318  0.1699  0.4469
   38MOL   C46428658   6.542   4.632   6.406  0.9330  0.1225 -0.0122
   38MOL   O46528659   6.516   4.512   6.408 -0.8987 -0.0372  0.6052
   38MOL   N46628660   6.550   4.697   6.294  0.6977 -0.0670  0.2745
   38MOL   C46728661   6.539   4.629   6.161 -0.9059  0.8683  0.4156
   38MOL   C46828662   6.391   4.604   6.113 -0.3884 -0.7633  0.4610
   38MOL   C46928663   6.364   4.496   6.006  0.2257  0.2024 -0.1506
   38MOL   C47028664   6.225   4.492   5.950 -0.5877 -0.4829 -0.0791
   38MOL   C47128665   6.212   4.404   5.822 -0.1426 -0.4000  0.1058
   38MOL   C47228666   6.068   4.363   5.799 -0.0684 -0.1724  0.4844
   38MOL   N47328667   5.982   4.473   5.749  0.8009  0.0292  0.1052
   38MOL   H47428668   6.175   4.666   6.799 -0.9445  1.7994 -0.9576
   38MOL   H47528669   6.211   4.520   6.714  0.0919  0.9722  1.7317
   38MOL   H47628670   6.269   4.671   6.501  2.6277 -0.4933 -0.7998
   38MOL   H47728671   6.265   4.801   6.618  1.8321  0.1358  0.6119
   38MOL   H47828672   6.451   4.575   6.660  1.1043  0.0570  0.1423
   38MOL   H47928673   6.451   4.752   6.723 -1.4070 -1.0805  0.5699
   38MOL   H48028674   6.638   4.711   6.573 -0.0623  1.2180 -0.3277
   38MOL   H48128675   6.522   4.820   6.509 -0.4089 -0.3535 -2.3523
   38MOL   H48228676   6.571   4.796   6.301 -0.1889  0.2586 -1.3224
   38MOL   H48328677   6.578   4.695   6.083 -0.2602 -0.8278 -0.7271
   38MOL   H48428678   6.601   4.539   6.160  1.1916  2.2757 -0.1495
   38MOL   H48528679   6.337   4.574   6.203 -0.9334 -0.1784  0.3355
   38MOL   H48628680   6.358   4.700   6.073  2.5957 -0.5212 -1.5718
   38MOL   H48728681   6.388   4.394   6.039 -3.5463 -0.3228  1.1515
   38MOL   H48828682   6.434   4.506   5.923 -0.9456  0.5873 -1.1013
   38MOL   H48928683   6.169   4.448   6.033  2.1126 -0.3907  1.8426
   38MOL   H49028684   6.187   4.591   5.924  0.3161  0.1083  0.8116
   38MOL   H49128685   6.261   4.452   5.738  0.3872 -0.2963  0.4681
   38MOL   H49228686   6.268   4.310   5.829  0.5394  0.0745  1.1566
   38MOL   H49328687   6.018   4.324   5.887 -2.1301 -1.1480 -1.0639
   38MOL   H49428688   6.070   4.293   5.715  0.5413  2.3128 -1.6474
   38MOL   H49528689   6.037   4.546   5.705  0.5774 -0.0148 -0.2468
   38MOL   C49628690   5.849   4.497   5.761  0.3824 -0.0062 -0.3269
   38MOL   O49728691   5.766   4.412   5.791  0.1511 -0.4847  0.3103
   38MOL   C49828692   5.810   4.644   5.763  0.4384  0.3826  0.0142
   38MOL   C49928693   5.780   4.693   5.908 -0.9161  0.3959 -0.0507
   38MOL   C50028694   5.887   4.665   6.021  0.5425 -1.1108 -0.0478
   38MOL   C50128695   5.859   4.718   6.162 -0.1377 -0.0063  0.3347
   38MOL   C50228696   5.920   4.856   6.176 -0.4749  0.1148 -0.0268
   38MOL   O50328697   5.884   4.945   6.103  0.8102 -0.0539 -0.3968
   38MOL   N50428698   6.008   4.875   6.271 -0.0676  0.2351 -0.2869
   38MOL   C50528699   6.066   5.006   6.300 -0.7465 -0.0230 -0.2856
   38MOL   C50628700   6.227   5.004   6.298 -0.3355 -0.0717 -0.0713
   38MOL   C50728701   6.301   5.141   6.302  0.4404 -0.0419  0.0358
   38MOL   C50828702   6.287   5.209   6.439 -0.6658  0.2628  0.6125
   38MOL   C50928703   6.383   5.152   6.545 -0.2186  0.4665  0.0944
   38MOL   C51028704   6.342   5.188   6.687  0.6401  0.2712 -0.4138
   38MOL   N51128705   6.208   5.139   6.709 -0.2000  0.1421  0.7656
   38MOL   H51228706   5.896   4.698   5.722  1.1898  0.1315  1.2462
   38MOL   H51328707   5.722   4.672   5.705  0.8258 -0.3450 -0.9553
   38MOL   H51428708   5.767   4.801   5.903  0.9176  0.7287  1.6940
   38MOL   H51528709   5.681   4.664   5.944 -0.5826 -0.5756  0.1171
   38MOL   H51628710   5.984   4.702   5.989  0.1954  0.5472  0.7693
   38MOL   H51728711   5.899   4.557   6.029 -0.6895 -1.1859  0.8721
   38MOL   H51828712   5.903   4.646   6.231  2.1218 -0.0032 -1.0469
   38MOL   H51928713   5.753   4.733   6.179 -0.3058  0.6387 -1.2078
   38MOL   H52028714   6.043   4.798   6.326 -0.6356 -0.3184 -0.6953
   38MOL   H52128715   6.037   5.086   6.232 -2.4958 -0.5981 -0.2317
   38MOL   H52228716   6.018   5.033   6.394 -1.6069 -2.1605 -0.0805
   38MOL   H52328717   6.266   4.940   6.377 -2.4716 -1.7765 -0.3811
   38MOL   H52428718   6.268   4.943   6.217  2.2417  0.4315  0.7937
   38MOL   H52528719   6.269   5.201   6.216 -2.1869  0.7637  1.5169
   38MOL   H52628720   6.406   5.120   6.284  0.2255 -0.3465 -0.8958
   38MOL   H52728721   6.311   5.314   6.425 -1.3845  0.4348  0.6258
   38MOL   H52828722   6.181   5.203   6.463 -0.6986  0.1988  0.4509
   38MOL   H52928723   6.384   5.043   6.541  1.0221  0.3581  2.3437
   38MOL   H53028724   6.485   5.189   6.528 -0.5423 -0.2842 -3.8218
   38MOL   H53128725   6.362   5.295   6.673 -0.8423  0.7906  1.2714
   38MOL   H53228726   6.414   5.153   6.761 -1.1116  0.9975  1.6735
   38MOL   H53328727   6.129   5.199   6.689 -1.5990 -1.3822  1.5526
   38MOL   C53428728   6.171   5.025   6.779 -0.4219  0.0221 -0.4222
   38MOL   O53528729   6.242   4.962   6.852 -0.2114  0.1997 -0.3229
   38MOL   C53628730   6.020   4.988   6.761  0.0091 -0.4296 -0.9955
   38MOL   C53728731   5.943   4.975   6.895 -0.1929  0.0488 -0.6813
   38MOL   C53828732   5.905   5.117   6.948  0.3238  0.8401  0.5590
   38MOL   C53928733   5.867   5.110   7.095 -0.1675  0.4185  0.0168
   38MOL   C54028734   5.876   5.243   7.165  0.0372  0.6494 -0.1409
   38MOL   O54128735   5.935   5.339   7.111 -0.0924  0.9476  0.5960
   38MOL   N54228736   5.798   5.255   7.275 -0.1285 -0.0922 -0.3533
   38MOL   C54328737   5.784   5.378   7.361 -0.2491  0.3341 -0.1734
   38MOL   C54428738   5.918   5.417   7.434 -0.4513 -0.5205 -0.4831
   38MOL   C54528739   5.894   5.535   7.535  0.1814  0.1247 -0.0573
   38MOL   C54628740   5.901   5.672   7.479 -0.5429 -0.0651 -0.0276
   38MOL   C54728741   5.911   5.788   7.577 -0.1187 -0.1811  0.3705
   38MOL   C54828742   5.951   5.924   7.513  0.4056  0.2308  0.1337
   38MOL   N54928743   5.854   5.965   7.418  0.0488  0.0245 -0.4095
   38MOL   H55028744   5.958   5.055   6.700  0.3866  1.1864  0.3549
   38MOL   H55128745   6.012   4.895   6.705 -1.5508 -1.2244  0.5113
   38MOL   H55228746   5.854   4.913   6.885  0.4014 -0.8145 -0.7602
   38MOL   H55328747   6.014   4.918   6.956 -1.8267 -0.6684  0.5638
   38MOL   H55428748   5.830   5.164   6.885 -1.2259  1.6391  2.8957
   38MOL   H55528749   5.997   5.172   6.929 -0.0004 -0.0730 -4.2625
   38MOL   H55628750   5.946   5.050   7.140 -1.9942 -2.2622 -0.1919
   38MOL   H55728751   5.770   5.063   7.110  0.9242 -1.5634  1.1997
   38MOL   H55828752   5.739   5.179   7.308 -0.2919  0.6191  1.0289
   38MOL   H55928753   5.756   5.463   7.298 -0.9186  0.1441 -0.1352
   38MOL   H56028754   5.705   5.359   7.433  0.4909 -0.3151  0.4625
   38MOL   H56128755   5.959   5.329   7.484 -1.0853 -1.0925 -0.9646
   38MOL   H56228756   6.002   5.451   7.373 -0.9100 -0.2732 -0.9685
   38MOL   H56328757   5.978   5.533   7.604 -2.2500 -0.9144  2.9797
   38MOL   H56428758   5.811   5.522   7.605  1.4566  0.3489  1.5273
   38MOL   H56528759   5.983   5.676   7.407  0.2386 -0.1326  0.8559
   38MOL   H56628760   5.807   5.676   7.423 -0.7576 -2.7462  0.0510
   38MOL   H56728761   5.830   5.816   7.644  0.0406 -1.1100  0.9650
   38MOL   H56828762   5.994   5.777   7.646  1.4146  2.2283 -1.0368
   38MOL   H56928763   6.047   5.908   7.463 -1.4817  0.7192 -3.8509
   38MOL   H57028764   5.980   5.988   7.597  0.2468  1.8649 -1.0140
   38MOL   H57128765   5.759   5.936   7.435 -0.8358  0.6710 -3.7834
   38MOL   C57228766   5.874   6.043   7.309  0.6016  0.3560  0.1191
   38MOL   O57328767   5.985   6.094   7.287 -0.5747  0.0666  0.4324
   38MOL   C57428768   5.754   6.066   7.221  0.0746  0.2729  1.0300
   38MOL   C57528769   5.682   6.206   7.248 -0.1723 -0.1426 -0.4838
   38MOL   C57628770   5.600   6.252   7.122 -0.7815  0.0903  0.4743
   38MOL   C57728771   5.500   6.362   7.171 -0.2886  0.0685 -0.2874
   38MOL   C57828772   5.360   6.309   7.213 -0.2884 -0.7823 -0.2196
   38MOL   O57928773   5.347   6.221   7.294  0.6804 -0.2928  0.3161
   38MOL   N58028774   5.254   6.366   7.156  0.2916 -0.3735  0.0111
   38MOL   C58128775   5.113   6.349   7.196 -0.0702 -0.7993  0.1265
   38MOL   C58228776   5.042   6.220   7.140 -1.1204  0.3442 -0.7416
   38MOL   C58328777   5.043   6.199   6.994 -0.1728 -0.6122  0.2903
   38MOL   C58428778   4.961   6.298   6.908 -0.4728  0.2739 -0.0338
   38MOL   C58528779   4.953   6.261   6.764 -0.4814  0.3282 -0.0960
   38MOL   C58628780   4.871   6.364   6.689 -0.5238  0.4688 -0.0737
   38MOL   N58728781   4.848   6.337   6.548  0.5939 -0.5854 -0.9045
   38MOL   H58828782   5.791   6.081   7.119  1.3057  0.1045  1.4392
   38MOL   H58928783   5.679   5.988   7.236  0.1507  0.2603  1.3409
   38MOL   H59028784   5.611   6.204   7.332 -0.5122  1.9572 -0.6998
   38MOL   H59128785   5.755   6.282   7.272  1.7985 -2.3641  0.7855
   38MOL   H59228786   5.551   6.160   7.092  0.3062 -0.6476  0.9364
   38MOL   H59328787   5.662   6.278   7.036  1.8240  0.9545  2.5312
   38MOL   H59428788   5.487   6.429   7.085 -1.4746 -0.4652 -0.5341
   38MOL   H59528789   5.551   6.423   7.246 -2.0108 -2.0676  2.7172
   38MOL   H59628790   5.264   6.408   7.064 -0.4235 -2.3916 -1.0346
   38MOL   H59728791   5.113   6.352   7.305  0.7786 -1.3366  0.1573
   38MOL   H59828792   5.049   6.434   7.175 -0.2988  0.0386  3.9892
   38MOL   H59928793   5.087   6.132   7.185  2.0627  2.0918 -0.3162
   38MOL   H60028794   4.938   6.236   7.169 -0.4108  1.9719  1.0398
   38MOL   H60128795   5.003   6.100   6.971  0.4464 -1.1050  1.3180
   38MOL   H60228796   5.146   6.199   6.958  0.0152  1.3754  0.7562
   38MOL   H60328797   4.859   6.312   6.943 -1.1627  0.8045 -2.1899
   38MOL   H60428798   5.010   6.394   6.925  1.0409 -0.7732  1.8262
   38MOL   H60528799   5.048   6.260   6.711  0.6046  2.6527  1.7132
   38MOL   H60628800   4.918   6.163   6.731 -1.5257  1.0716 -1.2597
   38MOL   H60728801   4.899   6.469   6.701  0.3745  0.5906 -2.9983
   38MOL   H60828802   4.768   6.360   6.724 -1.1720  1.0759 -1.8786
   38MOL   H60928803   4.755   6.311   6.517 -0.6465 -1.5449  3.2822
   38MOL   C61028804   4.945   6.370   6.460 -0.0910  0.1144  0.4983
   38MOL   O61128805   5.057   6.407   6.495 -0.0125 -0.0322 -0.0210
   38MOL   C61228806   4.900   6.362   6.315  0.1007 -0.6641  0.4671
   38MOL   C61328807   4.969   6.243   6.247  0.6178 -0.2182  0.5846
   38MOL   C61428808   4.893   6.191   6.123 -0.5552  0.0405  0.2314
   38MOL   C61528809   4.869   6.295   6.001 -0.3811  0.3944 -0.6350
   38MOL   C61628810   4.748   6.382   6.036  0.3110  0.1982 -0.0206
   38MOL   O61728811   4.763   6.504   6.031 -0.3059  0.1196 -0.2144
   38MOL   N61828812   4.637   6.327   6.086  0.1790  0.3739  0.2792
   38MOL   C61928813   4.529   6.401   6.159 -0.6677 -0.8366  0.4844
   38MOL   C62028814   4.434   6.474   6.064  0.6018 -0.3953 -0.1904
   38MOL   C62128815   4.344   6.558   6.156 -0.3577 -0.4801 -0.0985
   38MOL   C62228816   4.283   6.671   6.077 -0.3301  0.6195  0.2640
   38MOL   C62328817   4.177   6.632   5.978  0.1595  0.5939 -0.1459
   38MOL   C62428818   4.044   6.595   6.046  0.5632 -1.1838  0.2127
   38MOL   N62528819   3.942   6.576   5.943  0.0954 -0.2583 -0.8448
   38MOL   H62628820   4.792   6.349   6.300 -0.2786  3.4043 -1.0172
   38MOL   H62728821   4.919   6.448   6.252  0.9217 -2.4626 -1.7966
   38MOL   H62828822   5.076   6.255   6.231  0.9487  1.2776  3.5418
   38MOL   H62928823   4.979   6.161   6.318 -0.0901 -1.8102 -1.1088
   38MOL   H63028824   4.803   6.137   6.152 -2.6194  2.4626 -1.3912
   38MOL   H63128825   4.944   6.104   6.081 -0.5336  0.3675 -0.4233
   38MOL   H63228826   4.859   6.256   5.900 -1.6025  1.2443 -0.8653
   38MOL   H63328827   4.952   6.365   5.990 -1.8125  2.6308  1.9591
   38MOL   H63428828   4.639   6.226   6.094 -1.0495  0.3685  0.5449
   38MOL   H63528829   4.475   6.331   6.223 -0.7067 -1.2349  0.0187
   38MOL   H63628830   4.582   6.481   6.211  0.2970 -0.5125 -0.9761
   38MOL   H63728831   4.489   6.545   6.003  1.8223  0.3544  1.7165
   38MOL   H63828832   4.374   6.411   5.998 -1.2461  1.6405 -0.5051
   38MOL   H63928833   4.408   6.594   6.235  1.2125 -2.9752 -0.1878
   38MOL   H64028834   4.260   6.502   6.198 -0.0233 -0.3236  0.7616
   38MOL   H64128835   4.228   6.735   6.146  0.0997 -0.0166  1.1979
   38MOL   H64228836   4.366   6.728   6.036 -1.0308  0.5136 -1.3498
   38MOL   H64328837   4.163   6.723   5.919 -1.7488  1.9333  2.3048
   38MOL   H64428838   4.209   6.564   5.900  0.1673  2.2555 -1.6334
   38MOL   H64528839   4.016   6.684   6.102  1.1719 -0.9599  0.1584
   38MOL   H64628840   4.054   6.508   6.111 -0.2987 -0.9503  0.6760
   38MOL   H64728841   3.927   6.479   5.918 -0.5488 -0.2078 -0.6559
   38MOL   C64828842   3.868   6.664   5.879  0.1512  0.1243  0.1538
   38MOL   O64928843   3.880   6.781   5.906 -0.3381 -0.2541  0.1013
   38MOL   C65028844   3.769   6.603   5.771  0.3561 -0.7529 -0.2943
   38MOL   C65128845   3.631   6.556   5.828  0.3333  0.4990  0.5990
   38MOL   C65228846   3.539   6.524   5.701  0.7490  1.0138  0.5311
   38MOL   C65328847   3.420   6.432   5.729 -0.3247  0.0363  0.0982
   38MOL   C65428848   3.313   6.500   5.810  0.8152 -0.5725 -0.2223
   38MOL   O65528849   3.276   6.612   5.772  0.3332  0.1394  0.3300
   38MOL   N65628850   3.244   6.426   5.903  0.2253 -0.1901  0.2873
   38MOL   C65728851   3.118   6.465   5.972 -0.0576  0.1706  0.4637
   38MOL   C65828852   3.137   6.469   6.124 -0.4047 -0.1875 -0.2420
   38MOL   C65928853   3.011   6.514   6.201 -0.2091  0.1704  0.2596
   38MOL   C66028854   3.027   6.520   6.359 -0.5569 -0.7112  0.3901
   38MOL   C66128855   3.148   6.597   6.420 -0.1695  0.0731  0.0980
   38MOL   C66228856   3.155   6.590   6.571  0.1023  0.3349 -0.8937
   38MOL   N66328857   3.258   6.673   6.618 -0.2068 -0.0343 -0.4397
   38MOL   H66428858   3.755   6.690   5.706  1.7040  1.7521  2.6402
   38MOL   H66528859   3.817   6.524   5.715 -0.4999 -1.9218  0.5959
   38MOL   H66628860   3.642   6.470   5.893 -2.5731  0.1555  0.6880
   38MOL   H66728861   3.589   6.639   5.884  1.5580  0.0792  2.1582
   38MOL   H66828862   3.605   6.476   5.628 -1.2548 -0.9480 -0.0636
   38MOL   H66928863   3.505   6.609   5.643 -1.5271 -1.1644 -1.4216
   38MOL   H67028864   3.443   6.338   5.781  1.0025  0.7278  0.7885
   38MOL   H67128865   3.386   6.397   5.632 -0.9031 -2.2021  1.0750
   38MOL   H67228866   3.285   6.339   5.933  1.6454 -0.1170 -1.3344
   38MOL   H67328867   3.069   6.553   5.929  1.5296  1.2046  0.7605
   38MOL   H67428868   3.050   6.381   5.952 -0.4492  0.6863 -0.4212
   38MOL   H67528869   3.173   6.374   6.162  3.4337  0.4713 -2.0129
   38MOL   H67628870   3.219   6.539   6.140 -0.6202  0.7356 -2.7839
   38MOL   H67728871   2.932   6.442   6.178 -0.7687  0.4201  1.3686
   38MOL   H67828872   2.987   6.613   6.161 -0.5535 -0.9333 -2.3692
   38MOL   H67928873   2.934   6.573   6.381  0.0965  1.5700 -2.1245
   38MOL   H68028874   3.014   6.430   6.418 -3.5962  1.1302  2.6801
   38MOL   H68128875   3.227   6.538   6.372 -0.2252  0.9501 -1.0970
   38MOL   H68228876   3.153   6.700   6.385  1.7465 -0.5603 -1.6224
   38MOL   H68328877   3.187   6.488   6.594 -2.9737 -0.7653 -1.2814
   38MOL   H68428878   3.062   6.625   6.616  1.1171 -0.1762  1.6727
   38MOL   H68528879   3.284   6.746   6.552 -1.5100  0.9814  0.1367
   38MOL   C68628880   3.323   6.664   6.737 -0.2105  0.7557  0.3693
   38MOL   O68728881   3.295   6.571   6.811 -0.4515  0.6847  0.2408
   38MOL   C68828882   3.442   6.756   6.771 -0.3913  0.3710 -0.0453
   38MOL   C68928883   3.462   6.795   6.921  0.0673  0.1051  0.6155
   38MOL   C69028884   3.596   6.861   6.953  0.6387 -0.0477 -0.7242
   38MOL   C69128885   3.628   6.870   7.101  0.5530  0.4573 -0.9755
   38MOL   C69228886   3.696   6.749   7.162  0.0535 -0.2831 -0.5563
   38MOL   O69328887   3.786   6.691   7.103  0.3092  0.3678  0.0547
   38MOL   N69428888   3.662   6.709   7.285 -0.2625 -0.3057  0.2658
   38MOL   C69528889   3.719   6.593   7.351  1.1574 -0.1124  0.1450
   38MOL   C69628890   3.862   6.626   7.391  0.5462  0.1303  0.6307
   38MOL   C69728891   3.914   6.513   7.475 -0.0206  0.2467 -0.1919
   38MOL   C69828892   4.065   6.535   7.499  0.2021 -0.3432 -0.6702
   38MOL   C69928893   4.118   6.440   7.601  0.3458 -0.0338 -0.1044
   38MOL   C70028894   4.252   6.489   7.651  0.2343  0.3348  0.1598
   38MOL   N70128895   4.301   6.421   0.063  0.1092 -0.0604  0.4788
   38MOL   H70228896   3.526   6.694   6.739  0.7392  2.7818 -1.9222
   38MOL   H70328897   3.445   6.847   6.711  1.1797  0.4440  0.1049
   38MOL   H70428898   3.385   6.868   6.948  0.0251  1.4233 -2.7399
   38MOL   H70528899   3.450   6.717   6.997 -0.9440  1.1638  1.5692
   38MOL   H70628900   3.597   6.961   6.909 -1.4939  0.1949 -0.2728
   38MOL   H70728901   3.689   6.814   6.922  1.5319 -0.4449  2.3152
   38MOL   H70828902   3.543   6.896   7.163 -0.8162 -2.1088 -1.7125
   38MOL   H70928903   3.705   6.943   7.129  2.3221 -1.5968 -0.3200
   38MOL   H71028904   3.595   6.759   7.340  0.4271 -1.7644  2.4802
   38MOL   H71128905   3.651   6.552   7.426  1.3412  2.5281  1.8353
   38MOL   H71228906   3.720   6.509   7.282  0.3603 -0.8320  0.9954
   38MOL   H71328907   3.927   6.627   7.304  0.1784 -0.6577  0.3414
   38MOL   H71428908   3.872   6.719   7.447  1.4490 -0.5319  1.6152
   38MOL   H71528909   3.917   6.418   7.421 -1.9271 -0.7850  1.4405
   38MOL   H71628910   3.853   6.497   7.564  0.2490 -0.7510 -0.1797
   38MOL   H71728911   4.109   6.525   7.400  0.2564  0.4274 -0.7297
   38MOL   H71828912   4.068   6.638   7.537 -1.8881 -0.8241  0.9011
   38MOL   H71928913   4.044   6.430   7.680  0.8603  0.5137  0.4439
   38MOL   H72028914   4.118   6.344   7.548 -1.0956 -0.6062  0.9219
   38MOL   H72128915   4.244   6.597   7.669 -1.0684 -0.1692  2.9180
   38MOL   H72228916   4.328   6.469   7.576  1.0374 -1.9175  1.5370
   38MOL   H72328917   4.253   6.338   0.095 -1.4515  2.0344  3.8732
   38MOL   C72428918   4.408   6.461   0.133  0.1134  0.1851 -0.2424
   38MOL   O72528919   4.478   6.558   0.090  0.3051  0.4845 -0.1129
   38MOL   C72628920   4.424   6.394   0.272 -0.6041  0.2047  0.0696
   38MOL   C72728921   4.516   6.473   0.360  0.1436 -0.4356  0.0936
   38MOL   C72828922   4.528   6.405   0.498 -0.6669  0.3532  0.1193
   38MOL   C72928923   4.634   6.476   0.587  0.0781  0.3683 -0.0302
   38MOL   C73028924   4.649   6.419   0.729  0.3515 -0.3960 -0.2865
   38MOL   O73128925   4.583   6.461   0.824 -0.1403 -0.2622 -0.2293
   38MOL   N73228926   4.737   6.320   0.739 -0.7645 -0.1457 -0.0990
   38MOL   C73328927   4.771   6.229   0.848 -0.2258  0.1979  0.2249
   38MOL   C73428928   4.651   6.169   0.922  0.0331  0.0530  0.2450
   38MOL   C73528929   4.545   6.095   0.836 -0.5085 -0.2893  0.1867
   38MOL   C73628930   4.579   5.963   0.774 -0.6810 -0.4044  1.2062
   38MOL   C73728931   4.469   5.917   0.674  0.1752  0.0635 -0.5167
   38MOL   C73828932   4.480   5.981   0.538 -0.2291 -0.3370 -0.2917
   38MOL   N73928933   4.597   5.920   0.461 -0.0410 -0.0155  0.3510
   38MOL   H74028934   4.329   6.394   0.325 -0.6920 -1.0463 -0.0893
   38MOL   H74128935   4.442   6.287   0.270 -0.6320  0.1720  1.0469
   38MOL   H74228936   4.609   6.474   0.304 -1.8746 -0.7074 -3.3625
   38MOL   H74328937   4.482   6.576   0.370  0.3785 -0.5367  2.3500
   38MOL   H74428938   4.560   6.302   0.480  0.7845  0.5429  1.4804
   38MOL   H74528939   4.433   6.410   0.549 -0.4191  1.9468  0.4351
   38MOL   H74628940   4.607   6.582   0.588 -0.0094  0.3569 -0.9091
   38MOL   H74728941   4.731   6.476   0.538 -0.2262  1.6206 -0.6638
   38MOL   H74828942   4.767   6.279   0.652 -0.8726 -3.1172  1.2358
   38MOL   H74928943   4.833   6.154   0.799  1.3903 -2.1926  5.5351
   38MOL   H75028944   4.840   6.288   0.907  1.1599  1.6463 -2.7411
   38MOL   H75128945   4.670   6.109   1.012 -2.8305  2.6724  2.7176
   38MOL   H75228946   4.594   6.253   0.961 -0.7236 -0.4919  0.3282
   38MOL   H75328947   4.501   6.164   0.763 -0.0600  0.8547  0.9762
   38MOL   H75428948   4.471   6.068   0.912  0.9211 -0.7073  1.4540
   38MOL   H75528949   4.675   5.970   0.721 -0.7132 -0.9445  1.0750
   38MOL   H75628950   4.607   5.891   0.851  1.3312 -1.8546 -0.8037
   38MOL   H75728951   4.483   5.813   0.647 -0.9766 -0.0674 -0.6220
   38MOL   H75828952   4.374   5.929   0.726  0.4847 -1.5987  0.4652
   38MOL   H75928953   4.496   6.087   0.557 -0.2182 -0.6107  1.2343
   38MOL   H76028954   4.392   5.965   0.475 -0.7607 -1.0341  0.6064
   38MOL   H76128955   4.684   5.953   0.501  0.4533 -2.7863  1.6627
   38MOL   H76228956   4.597   5.820   0.477  1.3221 -0.5532 -2.6596
   39MOL     C128957   1.112   0.510   0.969  0.0978 -0.2736 -0.5086
   39MOL     O228958   1.040   0.471   1.057  0.0153  0.5544 -0.1996
   39MOL     C328959   1.213   0.410   0.900  0.1210 -0.1325  0.3077
   39MOL     C428960   1.267   0.297   0.992  0.1536 -0.7620 -0.6579
   39MOL     C528961   1.344   0.339   1.125 -0.2498 -0.6140 -0.5541
   39MOL     C628962   1.471   0.410   1.100 -0.6107 -0.0153 -0.2549
   39MOL     C728963   1.543   0.446   1.234  0.1674  0.1548  1.0697
   39MOL     O828964   1.484   0.420   1.339  0.3238 -0.4090 -0.4994
   39MOL     N928965   1.661   0.504   1.235 -0.0452 -0.0269  0.1360
   39MOL    C1028966   1.710   0.581   1.345  0.2591  0.1178 -0.2330
   39MOL    C1128967   1.769   0.491   1.451  0.4314 -0.1639  0.4949
   39MOL    C1228968   1.820   0.560   1.582  0.4186 -0.2781 -0.0433
   39MOL    C1328969   1.703   0.621   1.671 -0.5981  0.4833  0.2634
   39MOL    C1428970   1.579   0.533   1.708  0.5218  0.1795  0.5558
   39MOL    C1528971   1.488   0.606   1.807  1.0150 -0.3438  0.4741
   39MOL    N1628972   1.392   0.519   1.869 -0.1036  0.1263 -0.3822
   39MOL    H1728973   1.164   0.372   0.811 -1.7830 -0.1624  1.3496
   39MOL    H1828974   1.294   0.477   0.872  0.0253 -0.2656 -0.3006
   39MOL    H1928975   1.185   0.229   1.014  0.3197 -0.8370 -0.2725
   39MOL    H2028976   1.341   0.240   0.936  2.0164 -2.0532  2.9405
   39MOL    H2128977   1.370   0.252   1.185  3.3124  0.5030 -0.3920
   39MOL    H2228978   1.263   0.392   1.175 -0.2501  0.5069 -1.7068
   39MOL    H2328979   1.452   0.493   1.032  1.8325 -0.1953 -1.2343
   39MOL    H2428980   1.528   0.340   1.038  1.0217  1.6075 -0.6202
   39MOL    H2528981   1.711   0.518   1.148 -0.2448 -0.7364 -0.0975
   39MOL    H2628982   1.784   0.659   1.327 -0.7054  1.6231  2.0742
   39MOL    H2728983   1.630   0.647   1.379 -0.5789 -0.5857 -0.7931
   39MOL    H2828984   1.705   0.405   1.469 -2.1847  1.7648  0.6791
   39MOL    H2928985   1.858   0.448   1.404  0.3391  0.7616 -0.5491
   39MOL    H3028986   1.886   0.644   1.558  0.1913  0.0440  0.4270
   39MOL    H3128987   1.877   0.491   1.644  1.9901  0.9779 -0.0474
   39MOL    H3228988   1.751   0.643   1.766  2.2841  0.4493 -1.1363
   39MOL    H3328989   1.678   0.722   1.641  1.4140  0.2611 -2.3191
   39MOL    H3428990   1.537   0.513   1.610 -0.3796 -0.2805  1.0300
   39MOL    H3528991   1.613   0.439   1.752  0.2472 -1.1010 -1.8538
   39MOL    H3628992   1.443   0.693   1.760 -2.2341 -1.5899  1.1336
   39MOL    H3728993   1.556   0.629   1.888  0.9831  0.2191  0.3408
   39MOL    H3828994   1.444   0.442   1.909  2.6535  1.7441 -0.7527
   39MOL    H3928995   1.130   0.607   0.923  1.3159 -0.3710 -0.2585
   39MOL    C4028996   1.265   0.511   1.861  0.5265  0.0011 -0.2151
   39MOL    O4128997   1.201   0.595   1.794  0.0208 -0.3256 -0.2733
   39MOL    C4228998   1.193   0.392   1.919 -0.1339  0.4266 -0.6752
   39MOL    C4328999   1.120   0.437   2.049  0.6561  0.1558  0.5011
   39MOL    C4429000   1.214   0.467   2.170 -0.2849  0.0476  0.5909
   39MOL    C4529001   1.163   0.442   2.318 -0.2801  0.2898  0.6231
   39MOL    C4629002   1.166   0.303   2.374  0.3037 -0.0282  0.3627
   39MOL    O4729003   1.093   0.213   2.327  0.6862  0.4835 -0.1213
   39MOL    N4829004   1.250   0.280   2.473 -0.5847 -0.3896  0.3668
   39MOL    C4929005   1.288   0.149   2.524 -0.2168 -0.1984 -0.3261
   39MOL    C5029006   1.370   0.160   2.651  0.0781 -0.3585  0.9780
   39MOL    C5129007   1.443   0.025   2.687  0.1046 -0.6045  0.4021
   39MOL    C5229008   1.513   0.034   2.825  0.6774 -0.9637 -0.3841
   39MOL    C5329009   1.421   0.051   2.943  0.3505  0.0850  1.0055
   39MOL    C5429010   1.489   0.020   3.080 -0.6906  0.6937  0.9183
   39MOL    N5529011   1.401   0.056   3.187 -0.2829  0.1862  0.0672
   39MOL    H5629012   1.123   0.356   1.843 -0.5384  0.0038 -0.1087
   39MOL    H5729013   1.258   0.305   1.929 -0.0098  0.7322  1.3759
   39MOL    H5829014   1.053   0.517   2.017  0.5177 -0.2807 -0.3083
   39MOL    H5929015   1.058   0.354   2.086 -1.0979  0.8786 -0.7330
   39MOL    H6029016   1.232   0.571   2.145  1.3164 -0.1260  1.0009
   39MOL    H6129017   1.306   0.409   2.159 -0.8003 -1.1273  2.2201
   39MOL    H6229018   1.056   0.463   2.308  0.1245  1.2051 -2.1800
   39MOL    H6329019   1.198   0.519   2.387 -0.7708  1.0098  0.0767
   39MOL    H6429020   1.304   0.357   2.510 -2.1135  0.0679  1.7111
   39MOL    H6529021   1.196   0.091   2.531 -1.6123  1.7699 -1.6230
   39MOL    H6629022   1.346   0.111   2.439  0.3269 -0.8707  0.3456
   39MOL    H6729023   1.446   0.238   2.654  0.4487 -0.5122 -1.9932
   39MOL    H6829024   1.310   0.194   2.735  0.2378  2.9436 -0.1564
   39MOL    H6929025   1.520   7.702   2.616  0.0102  0.0435  0.0164
   39MOL    H7029026   1.364   7.659   2.692  0.2992 -0.8098  0.4641
   39MOL    H7129027   1.575   7.653   2.831  2.8883  0.4532 -1.4716
   39MOL    H7229028   1.579   0.121   2.830 -0.3930 -0.0678 -1.2463
   39MOL    H7329029   1.385   0.154   2.944 -1.5688 -0.5680  1.1967
   39MOL    H7429030   1.328   7.704   2.933  1.5632 -1.8240 -0.0179
   39MOL    H7529031   1.582   0.077   3.090 -0.7698  1.2530 -1.3895
   39MOL    H7629032   1.526   7.626   3.094  0.2154  0.7174 -1.0666
   39MOL    H7729033   1.368   7.681   3.233  0.6313  0.5287  1.3435
   39MOL    C7829034   1.376   0.181   3.242 -0.2142  0.1188  0.0985
   39MOL    O7929035   1.439   0.280   3.205  0.4836 -0.2541 -0.3569
   39MOL    C8029036   1.289   0.186   3.368 -0.6449  0.2665 -0.6717
   39MOL    C8129037   1.301   0.319   3.454 -0.0755  0.0420  0.2637
   39MOL    C8229038   1.417   0.314   3.561 -0.1114  0.5941  0.0869
   39MOL    C8329039   1.401   0.427   3.659  0.6800 -0.0973  0.1350
   39MOL    C8429040   1.525   0.484   3.729  0.2292  0.5245 -0.0733
   39MOL    O8529041   1.635   0.433   3.703  0.2729  0.1321 -0.4743
   39MOL    N8629042   1.515   0.589   3.807  0.7569 -0.4761 -0.4191
   39MOL    C8729043   1.628   0.661   3.865  0.0691 -0.9894 -0.7991
   39MOL    C8829044   1.614   0.813   3.836 -0.2785 -0.6060 -0.1332
   39MOL    C8929045   1.737   0.895   3.900  0.2750  0.4458 -1.2063
   39MOL    C9029046   1.752   1.024   3.817  0.3348  0.2617 -0.0004
   39MOL    C9129047   1.851   1.121   3.865 -0.8203 -0.3141 -0.7399
   39MOL    C9229048   1.873   1.247   3.775  0.1597 -0.4029  1.0843
   39MOL    N9329049   1.940   1.350   3.846  0.1594 -0.2363 -0.2638
   39MOL    H9429050   1.186   0.163   3.343 -0.7842  0.3618 -0.1903
   39MOL    H9529051   1.302   0.100   3.433 -1.5165  1.7846  1.5742
   39MOL    H9629052   1.309   0.409   3.393  2.9532 -1.6644 -1.9758
   39MOL    H9729053   1.200   0.330   3.494 -1.2340 -2.5095 -1.7798
   39MOL    H9829054   1.509   0.301   3.505  0.3261  2.2009  0.4102
   39MOL    H9929055   1.418   0.221   3.619 -0.4874  0.0964 -0.6968
   39MOL   H10029056   1.334   0.393   3.738 -0.3023  0.6739 -0.3522
   39MOL   H10129057   1.352   0.513   3.613  1.6396 -0.6642 -2.0185
   39MOL   H10229058   1.422   0.625   3.822  2.0020  1.7120  2.6614
   39MOL   H10329059   1.638   0.629   3.969 -1.7411 -0.2336 -0.3750
   39MOL   H10429060   1.727   0.630   3.833  0.3578 -1.7378  0.7515
   39MOL   H10529061   1.624   0.834   3.730  1.6246 -1.7473 -0.1993
   39MOL   H10629062   1.518   0.856   3.864  0.9332  2.3047 -0.2332
   39MOL   H10729063   1.824   0.830   3.897 -0.3689 -0.4205 -1.5646
   39MOL   H10829064   1.722   0.910   4.006  3.0231 -0.1343 -0.7159
   39MOL   H10929065   1.778   0.998   3.715  1.9341 -0.3485  0.5459
   39MOL   H11029066   1.654   1.072   3.810 -0.7589 -2.2012 -2.9521
   39MOL   H11129067   1.833   1.155   3.967 -1.1011  0.2647 -0.9767
   39MOL   H11229068   1.941   1.060   3.875 -2.3385 -2.5340 -0.4717
   39MOL   H11329069   1.776   1.282   3.737  0.8594  0.1942 -0.1932
   39MOL   H11429070   1.927   1.223   3.683 -0.2397  1.1462  0.4277
   39MOL   H11529071   2.024   1.325   3.896 -1.4919 -1.0798  2.1784
   39MOL   C11629072   1.913   1.476   3.823 -0.0192  0.0955  0.0435
   39MOL   O11729073   1.808   1.522   3.777 -0.0120  0.2777  0.1470
   39MOL   C11829074   2.037   1.565   3.850  0.0249  0.0489  0.0700
   39MOL   C11929075   2.000   1.712   3.885  0.5225 -0.2517  0.1160
   39MOL   C12029076   2.123   1.792   3.917 -0.4186 -0.8437  0.4694
   39MOL   C12129077   2.080   1.932   3.944 -0.4300 -0.0240  0.5919
   39MOL   C12229078   2.177   2.029   3.875  0.4236  0.2996  0.6094
   39MOL   O12329079   2.298   2.006   3.871 -0.1410  0.0200 -0.2592
   39MOL   N12429080   2.128   2.139   3.814 -0.1895 -0.1681 -0.4520
   39MOL   C12529081   2.212   2.233   3.736 -0.8730  0.1277  0.1500
   39MOL   C12629082   2.134   2.295   3.617 -0.5846  0.3664 -0.2728
   39MOL   C12729083   2.068   2.197   3.516  0.1360 -0.4419 -0.4817
   39MOL   C12829084   2.157   2.090   3.450 -0.2611  0.2700 -0.3881
   39MOL   C12929085   2.147   1.953   3.510 -0.4156  0.2249  0.3761
   39MOL   C13029086   2.248   1.856   3.446  0.5007 -0.3965  0.5891
   39MOL   N13129087   2.225   1.836   3.301 -0.2136 -0.2045  0.1725
   39MOL   H13229088   2.096   1.533   3.936  1.0498  2.2746  0.2262
   39MOL   H13329089   2.090   1.554   3.756 -0.3731 -0.7746 -0.0652
   39MOL   H13429090   1.944   1.755   3.802  2.0817 -0.0515 -0.8429
   39MOL   H13529091   1.926   1.711   3.966  2.1356 -3.0956  1.6544
   39MOL   H13629092   2.197   1.782   3.837  1.3181  0.5673  1.8382
   39MOL   H13729093   2.183   1.760   4.003  0.1167 -1.3916 -0.1067
   39MOL   H13829094   2.091   1.947   4.052 -0.4112 -0.8308  0.7012
   39MOL   H13929095   1.976   1.959   3.924  0.0273  1.6169  0.3284
   39MOL   H14029096   2.030   2.162   3.818 -0.2760 -0.3803 -1.3801
   39MOL   H14129097   2.259   2.313   3.793 -3.6765  2.0768 -0.1331
   39MOL   H14229098   2.297   2.180   3.692  1.0810  3.6978 -0.5299
   39MOL   H14329099   2.053   2.362   3.644  0.0688  0.3096  1.8722
   39MOL   H14429100   2.205   2.359   3.565 -1.5711  2.4765  0.9221
   39MOL   H14529101   2.044   2.266   3.435  0.5030  0.9093  0.5319
   39MOL   H14629102   1.975   2.153   3.550  1.2731 -2.7573 -0.3089
   39MOL   H14729103   2.133   2.103   3.345 -0.3353  0.4523 -0.3496
   39MOL   H14829104   2.265   2.102   3.454 -0.2067 -0.5245  1.1359
   39MOL   H14929105   2.182   1.959   3.613  0.0084  1.1262  0.1887
   39MOL   H15029106   2.048   1.909   3.514 -0.5614  0.5105 -0.0413
   39MOL   H15129107   2.227   1.765   3.502 -2.7293  0.2678  0.5072
   39MOL   H15229108   2.354   1.871   3.469  0.2842  1.2094  0.5612
   39MOL   H15329109   2.135   1.866   3.267 -0.4005  0.6910  1.4193
   39MOL   C15429110   2.317   1.823   3.207  0.1258  0.2917 -1.2696
   39MOL   O15529111   2.438   1.814   3.240 -0.0909  0.4357  0.1444
   39MOL   C15629112   2.278   1.823   3.062  0.1869  0.4587 -0.3523
   39MOL   C15729113   2.272   1.676   2.998 -0.6102 -0.5883 -0.2186
   39MOL   C15829114   2.214   1.667   2.854  0.3985  0.8956  0.3320
   39MOL   C15929115   2.321   1.692   2.745  0.3119  0.1385 -0.1705
   39MOL   C16029116   2.401   1.563   2.724 -0.3452  0.4010  0.6508
   39MOL   O16129117   2.338   1.458   2.707 -0.6355 -0.0645  0.0922
   39MOL   N16229118   2.535   1.573   2.717 -0.2247  0.1387  0.0488
   39MOL   C16329119   2.636   1.463   2.717 -0.4454 -0.3987  0.3058
   39MOL   C16429120   2.758   1.500   2.630 -0.0044  0.1511 -0.1551
   39MOL   C16529121   2.878   1.409   2.648  0.2710 -0.0143  0.3134
   39MOL   C16629122   2.990   1.455   2.552  1.1793  0.0927  0.1796
   39MOL   C16729123   3.107   1.363   2.540  0.3109 -0.7001 -0.6861
   39MOL   C16829124   3.212   1.419   2.434 -0.7570 -0.6319 -0.2910
   39MOL   N16929125   3.160   1.437   2.301  0.1834  0.0110 -0.3042
   39MOL   H17029126   2.178   1.866   3.064 -0.4479 -0.9354 -1.0655
   39MOL   H17129127   2.355   1.887   3.019 -1.1042  1.7518 -0.7658
   39MOL   H17229128   2.365   1.621   3.008 -0.4257 -0.1388  0.6642
   39MOL   H17329129   2.209   1.606   3.054  0.7415 -0.4155  1.5805
   39MOL   H17429130   2.132   1.737   2.838 -0.0272 -0.1843 -2.5358
   39MOL   H17529131   2.172   1.566   2.849  0.7878  0.4735  3.9519
   39MOL   H17629132   2.393   1.769   2.772  1.9689 -1.5583  0.3766
   39MOL   H17729133   2.286   1.723   2.647 -0.1926  1.3820  0.3968
   39MOL   H17829134   2.574   1.665   2.726 -0.7642  0.4194 -0.4219
   39MOL   H17929135   2.677   1.429   2.812  3.2480 -0.2033 -1.1565
   39MOL   H18029136   2.594   1.369   2.681 -0.6254 -0.2670  0.1679
   39MOL   H18129137   2.730   1.512   2.526 -1.6134 -0.2653  0.2020
   39MOL   H18229138   2.785   1.598   2.670 -0.6391 -0.3533  1.5609
   39MOL   H18329139   2.855   1.305   2.626 -2.7768  1.0231 -1.7434
   39MOL   H18429140   2.907   1.406   2.753  0.6688  1.3268  0.2424
   39MOL   H18529141   2.945   1.446   2.453  1.1229  0.8304  0.1328
   39MOL   H18629142   3.031   1.555   2.569  0.3631  0.6601 -1.0491
   39MOL   H18729143   3.149   1.360   2.640 -0.0055 -1.2831 -0.5703
   39MOL   H18829144   3.080   1.265   2.502  2.2168 -1.5398  0.0681
   39MOL   H18929145   3.296   1.350   2.431 -0.2846 -0.0634 -0.1466
   39MOL   H19029146   3.257   1.515   2.459 -0.6101 -0.6397 -0.5311
   39MOL   H19129147   3.124   1.530   2.290 -2.2859 -0.6597  1.6136
   39MOL   C19229148   3.177   1.367   2.192  0.0578  0.5416  0.2801
   39MOL   O19329149   3.212   1.248   2.196  0.0471 -0.0359  0.2817
   39MOL   C19429150   3.153   1.440   2.058 -0.4246 -0.0446  0.1199
   39MOL   C19529151   3.015   1.419   1.999  0.2485  0.1565  0.0687
   39MOL   C19629152   2.890   1.485   2.069 -0.6617  0.2620 -0.5444
   39MOL   C19729153   2.884   1.638   2.070  0.2808 -0.0378  0.0030
   39MOL   C19829154   2.895   1.697   2.207  0.0471 -0.5990 -0.5052
   39MOL   O19929155   2.958   1.633   2.291  0.6358  0.0947 -0.0691
   39MOL   N20029156   2.846   1.818   2.235 -0.3932  0.0668 -0.6661
   39MOL   C20129157   2.857   1.878   2.369  0.1162  0.2653  0.0016
   39MOL   C20229158   2.722   1.859   2.444 -0.4470  0.5583  0.8061
   39MOL   C20329159   2.606   1.935   2.376 -0.2834 -0.8928  0.4554
   39MOL   C20429160   2.474   1.889   2.434 -0.4448  0.7385  0.1896
   39MOL   C20529161   2.341   1.963   2.389 -0.0107 -0.0438  0.1674
   39MOL   C20629162   2.220   1.940   2.471  0.1400  0.4943  0.8764
   39MOL   N20729163   2.100   2.011   2.422  0.0929  0.3643 -0.0969
   39MOL   H20829164   3.173   1.546   2.076  2.5830 -0.3767 -0.9110
   39MOL   H20929165   3.233   1.408   1.990 -1.0143  0.8701 -1.0320
   39MOL   H21029166   3.033   1.446   1.895 -0.9765 -1.0896 -0.4822
   39MOL   H21129167   2.988   1.314   1.991  1.2438 -0.1257  0.3313
   39MOL   H21229168   2.882   1.447   2.170  1.9712 -1.2454 -0.8523
   39MOL   H21329169   2.802   1.442   2.022 -0.5188  0.2671 -0.8234
   39MOL   H21429170   2.793   1.672   2.020  0.5893  2.1176  0.8278
   39MOL   H21529171   2.959   1.688   2.008  1.2530 -2.2133 -0.5982
   39MOL   H21629172   2.796   1.869   2.164 -3.0447 -0.7238  0.5472
   39MOL   H21729173   2.944   1.850   2.426  1.5480  3.0775 -0.7088
   39MOL   H21829174   2.855   1.986   2.354  0.4025  0.2529 -0.1215
   39MOL   H21929175   2.697   1.753   2.437  3.7241 -0.5702  1.0933
   39MOL   H22029176   2.735   1.884   2.549  0.9200  1.9279  0.3320
   39MOL   H22129177   2.597   1.916   2.269 -0.7597 -0.0587  0.3464
   39MOL   H22229178   2.621   2.043   2.381 -0.3105 -0.8744  0.1078
   39MOL   H22329179   2.472   1.783   2.408  2.5948  0.3222  1.4959
   39MOL   H22429180   2.474   1.886   2.543 -1.4435  0.8543  0.1961
   39MOL   H22529181   2.358   2.071   2.394 -2.3330  0.2729  2.2962
   39MOL   H22629182   2.325   1.947   2.283 -1.4652  0.2970  0.3189
   39MOL   H22729183   2.249   1.963   2.574 -1.3103 -0.5635  1.5479
   39MOL   H22829184   2.197   1.834   2.462 -1.0106  0.7660  0.5489
   39MOL   H22929185   2.037   1.964   2.359  2.1909 -0.4280 -1.6229
   39MOL   C23029186   2.086   2.143   2.428 -0.5989 -0.1141  0.9509
   39MOL   O23129187   2.173   2.215   2.468 -0.6283 -0.0784  0.2549
   39MOL   C23229188   1.953   2.193   2.378  0.4377 -0.0744  0.5056
   39MOL   C23329189   1.958   2.303   2.275  0.3063  0.4302  0.3072
   39MOL   C23429190   2.044   2.281   2.147  0.0876  0.4685 -0.3962
   39MOL   C23529191   2.014   2.165   2.047 -0.2775  0.2888 -0.2195
   39MOL   C23629192   2.133   2.125   1.957 -0.6764  0.3124  0.6156
   39MOL   O23729193   2.227   2.059   1.993  0.3189 -0.1229  0.0743
   39MOL   N23829194   2.112   2.162   1.825  0.0510  0.0590 -0.2343
   39MOL   C23929195   2.204   2.119   1.718  0.0021 -0.1879  0.2641
   39MOL   C24029196   2.267   2.240   1.652 -0.1919  0.1959  0.7658
   39MOL   C24129197   2.388   2.224   1.558  0.4682  0.3140 -0.0478
   39MOL   C24229198   2.431   2.352   1.484  0.3628  0.0286 -0.0355
   39MOL   C24329199   2.476   2.470   1.580 -0.1439 -0.3834  0.1887
   39MOL   C24429200   2.625   2.466   1.632  1.2715 -0.8932  0.2626
   39MOL   N24529201   2.723   2.469   1.523 -0.0764 -0.1392  0.2084
   39MOL   H24629202   1.895   2.111   2.337 -0.2994  0.1754  1.0164
   39MOL   H24729203   1.904   2.222   2.472 -0.2012  1.1782 -0.1916
   39MOL   H24829204   1.861   2.338   2.241  1.3636  2.5520 -0.6612
   39MOL   H24929205   2.000   2.395   2.317  0.6404  0.3504  0.1559
   39MOL   H25029206   2.145   2.258   2.183 -0.4052  0.0906  0.7489
   39MOL   H25129207   2.036   2.379   2.100 -1.3289  1.0133  0.9631
   39MOL   H25229208   1.934   2.187   1.976  0.5038  0.2776 -1.1116
   39MOL   H25329209   1.989   2.081   2.111  3.1436 -0.3190  0.4391
   39MOL   H25429210   2.032   2.221   1.803  0.3260  0.7294  0.5443
   39MOL   H25529211   2.277   2.044   1.748  1.6485  1.3117  0.0259
   39MOL   H25629212   2.147   2.065   1.642 -1.3943  1.8833 -0.2021
   39MOL   H25729213   2.201   2.298   1.588  0.5447 -0.8887 -0.9917
   39MOL   H25829214   2.305   2.302   1.734  1.5045 -0.5912  0.5946
   39MOL   H25929215   2.355   2.145   1.490  1.0365 -0.9381  1.0994
   39MOL   H26029216   2.474   2.182   1.609  1.2698  0.7595 -1.0143
   39MOL   H26129217   2.515   2.329   1.418 -1.6860 -0.0964 -2.6877
   39MOL   H26229218   2.353   2.387   1.416 -2.0307 -3.2248  0.9576
   39MOL   H26329219   2.471   2.563   1.523  0.9765 -0.9235 -0.8029
   39MOL   H26429220   2.412   2.479   1.668  2.2825 -2.6998  2.2719
   39MOL   H26529221   2.648   2.377   1.691 -0.1928 -1.8126 -0.5358
   39MOL   H26629222   2.641   2.554   1.694  3.5999 -0.4681 -0.8797
   39MOL   H26729223   2.743   2.552   1.468  0.7563 -0.5232 -0.0815
   39MOL   C26829224   2.799   2.362   1.490 -0.0667 -0.0895  0.0742
   39MOL   O26929225   2.800   2.253   1.551  0.1615 -0.0763  0.1628
   39MOL   C27029226   2.883   2.373   1.363  0.4231  0.2158  1.4243
   39MOL   C27129227   2.817   2.353   1.229 -0.2066 -0.5327  0.3879
   39MOL   C27229228   2.831   2.203   1.190 -0.2003 -0.1811  0.5492
   39MOL   C27329229   2.771   2.161   1.052  0.1767  0.6715  0.0313
   39MOL   C27429230   2.631   2.121   1.065  0.0161 -0.3089 -0.1848
   39MOL   O27529231   2.605   2.014   1.125  0.1540 -0.0618 -0.5358
   39MOL   N27629232   2.540   2.194   0.999 -0.6741  0.1898  0.0721
   39MOL   C27729233   2.404   2.151   0.986  0.6973  0.1526 -0.0292
   39MOL   C27829234   2.326   2.224   1.095 -0.6707 -1.3050 -0.2177
   39MOL   C27929235   2.179   2.188   1.109  0.5033 -0.1611 -0.1726
   39MOL   C28029236   2.140   2.244   1.246 -0.2987  0.0224  0.0743
   39MOL   C28129237   1.989   2.258   1.269 -0.1409  0.3100  0.3653
   39MOL   C28229238   1.966   2.322   1.409 -0.6674 -0.3259  0.6840
   39MOL   N28329239   1.825   2.338   1.437 -0.5557 -0.4789 -0.2551
   39MOL   H28429240   2.918   2.476   1.363  0.0727  0.3462  0.5836
   39MOL   H28529241   2.972   2.310   1.365  0.2927 -0.1071 -1.2037
   39MOL   H28629242   2.713   2.387   1.226 -0.2581 -0.7574 -2.1441
   39MOL   H28729243   2.859   2.412   1.148  0.0036  3.1108  3.0440
   39MOL   H28829244   2.813   2.132   1.271 -0.2309  1.7137  2.2232
   39MOL   H28929245   2.938   2.192   1.169 -0.4124 -0.1120 -0.5803
   39MOL   H29029246   2.824   2.067   1.038  2.0921  1.9990 -2.0096
   39MOL   H29129247   2.786   2.228   0.967  0.1684  1.3639  0.5763
   39MOL   H29229248   2.576   2.265   0.937  1.0150 -1.5160 -0.9434
   39MOL   H29329249   2.360   2.179   0.890 -0.0907  0.9708  0.5617
   39MOL   H29429250   2.400   2.044   1.007  0.3967  0.1144 -0.2744
   39MOL   H29529251   2.369   2.193   1.190  1.5890 -0.0379 -0.8014
   39MOL   H29629252   2.330   2.332   1.086 -1.2602 -1.3096 -0.5809
   39MOL   H29729253   2.166   2.080   1.105  1.3429 -0.3176  1.1111
   39MOL   H29829254   2.121   2.240   1.032 -0.8854  0.2784  1.1550
   39MOL   H29929255   2.194   2.184   1.320  0.9802 -1.6348 -2.1362
   39MOL   H30029256   2.183   2.344   1.259 -0.2399  0.1406 -0.9904
   39MOL   H30129257   1.953   2.317   1.185  0.6511  0.7316  0.3125
   39MOL   H30229258   1.941   2.161   1.260  0.4093 -0.0307  1.0513
   39MOL   H30329259   2.010   2.420   1.431 -0.6210 -0.2892  0.4232
   39MOL   H30429260   2.015   2.255   1.480  0.8401  0.2088  0.1676
   39MOL   H30529261   1.777   2.373   1.356  1.3144  2.0523 -0.3052
   39MOL   C30629262   1.758   2.275   1.529 -0.8399  0.2793 -0.3406
   39MOL   O30729263   1.814   2.196   1.610  0.0293 -0.2965  0.2632
   39MOL   C30829264   1.605   2.298   1.526 -0.5274 -1.0792  0.5098
   39MOL   C30929265   1.546   2.314   1.386 -0.6610  0.5344 -0.8421
   39MOL   C31029266   1.399   2.309   1.388  0.3548  0.1936 -0.4033
   39MOL   C31129267   1.338   2.336   1.250  0.1212 -0.1177  0.4365
   39MOL   C31229268   1.313   2.484   1.215  0.3617  0.5784  0.5233
   39MOL   O31329269   1.318   2.575   1.296  0.6867  0.4965  0.2628
   39MOL   N31429270   1.285   2.517   1.086  0.0845 -0.5488 -0.1308
   39MOL   C31529271   1.268   2.653   1.034 -0.5036 -0.6116  0.0137
   39MOL   C31629272   1.324   2.652   0.896 -0.6798  0.0767  0.1642
   39MOL   C31729273   1.338   2.788   0.824  0.0725  0.0441 -0.4467
   39MOL   C31829274   1.418   2.772   0.692 -1.1419  0.3679 -0.1960
   39MOL   C31929275   1.338   2.776   0.563  0.3660 -0.2376 -0.0852
   39MOL   C32029276   1.277   2.914   0.529  1.1341 -0.1392  0.0899
   39MOL   N32129277   1.374   3.025   0.511  0.1141 -0.3875  0.9676
   39MOL   H32229278   1.561   2.205   1.564  0.5536 -1.4216  0.9333
   39MOL   H32329279   1.567   2.366   1.602  2.7835  0.0854  1.2110
   39MOL   H32429280   1.575   2.412   1.350  2.1596  0.3762  0.8430
   39MOL   H32529281   1.578   2.240   1.313 -2.3067 -1.8485  0.7728
   39MOL   H32629282   1.360   2.380   1.461  1.5292 -0.5044  0.9152
   39MOL   H32729283   1.360   2.216   1.430 -0.3024  1.0009  0.8167
   39MOL   H32829284   1.239   2.293   1.240  0.7519 -1.2627 -1.0236
   39MOL   H32929285   1.412   2.291   1.184  0.9126 -0.3499  1.4685
   39MOL   H33029286   1.269   2.443   1.019 -1.4713 -1.5320  1.2827
   39MOL   H33129287   1.160   2.666   1.025 -0.2846  0.2396 -1.4893
   39MOL   H33229288   1.321   2.729   1.091  0.3267  0.6052 -2.3338
   39MOL   H33329289   1.419   2.600   0.901 -0.8593 -0.7734 -3.4705
   39MOL   H33429290   1.256   2.587   0.839 -0.7052  2.4657 -2.6716
   39MOL   H33529291   1.386   2.859   0.891 -2.1219  0.4599  0.7219
   39MOL   H33629292   1.238   2.829   0.808 -0.0827 -0.4768 -0.8613
   39MOL   H33729293   1.484   2.858   0.681  0.4343 -0.8751 -0.7643
   39MOL   H33829294   1.483   2.684   0.685 -1.8760 -0.2653  0.8044
   39MOL   H33929295   1.411   2.740   0.491 -1.2614 -0.1079 -1.8390
   39MOL   H34029296   1.262   2.698   0.569 -0.1703  0.4015  2.0797
   39MOL   H34129297   1.242   2.951   0.626  2.1268  0.6291  0.1638
   39MOL   H34229298   1.195   2.913   0.458  1.0041 -0.7373  0.2474
   39MOL   H34329299   1.468   2.990   0.495  0.6738  1.2938  0.3967
   39MOL   C34429300   1.349   3.154   0.501 -0.3724  0.3547  0.1497
   39MOL   O34529301   1.237   3.196   0.518 -0.1602  0.5337 -0.2021
   39MOL   C34629302   1.460   3.248   0.456  0.4714  0.4028 -0.1935
   39MOL   C34729303   1.544   3.314   0.565  0.0329 -0.6480  0.2456
   39MOL   C34829304   1.621   3.217   0.660 -0.1934 -0.5808 -0.0335
   39MOL   C34929305   1.715   3.285   0.756 -0.2990 -0.4409 -0.8086
   39MOL   C35029306   1.857   3.299   0.697  0.3821 -0.0088 -0.0157
   39MOL   O35129307   1.932   3.198   0.706 -0.3421 -0.0632 -0.2650
   39MOL   N35229308   1.889   3.415   0.648 -0.3029 -0.0294  0.3473
   39MOL   C35329309   2.013   3.449   0.576 -0.3877 -0.2080 -0.7954
   39MOL   C35429310   2.028   3.381   0.443 -0.8676  0.3070 -0.4393
   39MOL   C35529311   1.908   3.408   0.341 -0.1978 -0.4465  0.0930
   39MOL   C35629312   1.925   3.327   0.208 -0.2893  0.0993  0.3757
   39MOL   C35729313   1.837   3.202   0.197  0.3908  0.6832 -0.2583
   39MOL   C35829314   1.859   3.081   0.297  0.6615 -0.0656  0.1970
   39MOL   N35929315   1.789   2.957   0.245  0.0846  0.1575 -0.8810
   39MOL   H36029316   1.517   3.205   0.375  1.1047 -0.2993  0.6116
   39MOL   H36129317   1.406   3.328   0.405  0.1437  0.5851  0.4327
   39MOL   H36229318   1.616   3.385   0.523  1.0094 -1.8630 -0.1778
   39MOL   H36329319   1.471   3.371   0.622 -1.6846 -1.5501 -1.0046
   39MOL   H36429320   1.669   3.136   0.604  0.1574 -0.6695  0.3916
   39MOL   H36529321   1.545   3.160   0.714 -1.2131 -0.2290 -1.0842
   39MOL   H36629322   1.733   3.209   0.832 -0.1886  1.9335  1.6206
   39MOL   H36729323   1.663   3.371   0.798 -0.4933 -1.1841  0.4843
   39MOL   H36829324   1.822   3.490   0.639 -0.7340 -0.4370  0.1250
   39MOL   H36929325   2.014   3.557   0.557  0.5591  0.5410  3.0517
   39MOL   H37029326   2.102   3.432   0.637 -1.3209  1.8196  1.2334
   39MOL   H37129327   2.106   3.427   0.382 -1.2671 -0.6652 -1.7259
   39MOL   H37229328   2.055   3.276   0.456  0.3417  0.8436  1.4873
   39MOL   H37329329   1.911   3.510   0.302  2.2479 -0.6716 -0.4174
   39MOL   H37429330   1.819   3.387   0.400 -0.1588 -0.7828  0.0367
   39MOL   H37529331   1.894   3.387   0.122 -1.0283  1.8692  1.8609
   39MOL   H37629332   2.029   3.297   0.198 -0.5539 -1.7910  2.8003
   39MOL   H37729333   1.734   3.237   0.203  0.2361  0.4953 -1.5947
   39MOL   H37829334   1.848   3.169   0.094 -2.7030 -0.7764 -0.1870
   39MOL   H37929335   1.820   3.108   0.395 -0.3617  3.1680 -1.0250
   39MOL   H38029336   1.966   3.062   0.306  0.4640 -1.4625 -0.2786
   39MOL   H38129337   1.830   2.920   0.161  0.7475  0.4548 -0.6940
   39MOL   C38229338   1.679   2.908   0.299  0.1701 -0.4119  0.5316
   39MOL   O38329339   1.633   2.957   0.400 -0.0331 -0.0201  0.1081
   39MOL   C38429340   1.618   2.781   0.236 -0.3876 -0.6490 -0.3931
   39MOL   C38529341   1.471   2.801   0.190  0.0309 -0.7251  0.5665
   39MOL   C38629342   1.462   2.894   0.065  0.1664 -0.1600 -0.5196
   39MOL   C38729343   1.312   2.907   0.025 -0.2737 -0.6268 -0.5530
   39MOL   C38829344   1.293   2.939   7.587  0.0894  0.0014 -0.1910
   39MOL   O38929345   1.353   3.032   7.538 -0.2141  0.2893  0.1094
   39MOL   N39029346   1.206   2.867   7.509 -0.6002  0.3917  0.1252
   39MOL   C39129347   1.179   2.885   7.364 -0.3483 -0.4788  0.0704
   39MOL   C39229348   1.308   2.881   7.281 -0.9540 -0.3479  0.3265
   39MOL   C39329349   1.288   2.867   7.128  0.2483  0.2985  0.2649
   39MOL   C39429350   1.413   2.833   7.048 -0.1333 -0.0485  0.0169
   39MOL   C39529351   1.393   2.798   6.899 -0.4892 -0.9621 -0.8773
   39MOL   C39629352   1.532   2.774   6.838  0.5184 -0.3022 -0.1571
   39MOL   N39729353   1.520   2.712   6.706 -0.2857  0.1997  0.2551
   39MOL   H39829354   1.690   2.735   0.168  1.1095 -0.3580  0.9666
   39MOL   H39929355   1.603   2.715   0.322 -1.3743  0.9147  0.6719
   39MOL   H40029356   1.424   2.703   0.175 -1.8301  0.2208  0.0720
   39MOL   H40129357   1.407   2.844   0.267 -1.0097 -1.0609 -0.0975
   39MOL   H40229358   1.515   2.847   7.691 -0.3881  0.0984 -1.0268
   39MOL   H40329359   1.503   2.993   0.085 -0.4803  0.1899 -0.9249
   39MOL   H40429360   1.252   2.976   0.085 -1.0701 -0.3829 -1.6126
   39MOL   H40529361   1.270   2.807   0.043 -1.8632  0.2367  0.6984
   39MOL   H40629362   1.166   2.792   7.564  0.3479  0.8566  1.4676
   39MOL   H40729363   1.104   2.815   7.326 -0.9379  0.5509 -0.6904
   39MOL   H40829364   1.130   2.981   7.345  0.2308  0.1502  1.6558
   39MOL   H40929365   1.371   2.968   7.301  0.6825 -1.8477  1.8787
   39MOL   H41029366   1.367   2.793   7.309  2.5068  1.0957 -2.0014
   39MOL   H41129367   1.247   2.965   7.101  1.6078  1.0700  0.9212
   39MOL   H41229368   1.205   2.800   7.107 -2.1671  3.6927 -1.4850
   39MOL   H41329369   1.478   2.918   7.070  1.4424 -0.9828 -0.9405
   39MOL   H41429370   1.467   2.753   7.099  0.6708  0.7763  0.4718
   39MOL   H41529371   1.332   2.709   6.883  0.2279 -1.8601  1.0863
   39MOL   H41629372   1.342   2.876   6.843 -0.2651 -0.6610 -0.6615
   39MOL   H41729373   1.605   2.708   6.887 -0.1652  1.1091  2.8973
   39MOL   H41829374   1.581   2.871   6.830 -1.7402  0.8208 -0.6916
   39MOL   H41929375   1.537   2.612   6.703 -2.1830 -0.1116 -1.9110
   39MOL   C42029376   1.516   2.781   6.593 -0.4653 -0.2018 -0.8127
   39MOL   O42129377   1.488   2.904   6.595  0.8086  0.3181 -0.4136
   39MOL   C42229378   1.537   2.713   6.460 -0.3153  0.1620  0.0940
   39MOL   C42329379   1.613   2.796   6.350  0.0766 -0.3918  0.2201
   39MOL   C42429380   1.761   2.764   6.359  0.2261 -0.3547 -0.6147
   39MOL   C42529381   1.838   2.857   6.273  0.3756 -0.2738 -0.0442
   39MOL   C42629382   1.841   2.807   6.125 -1.2389 -0.3698  0.8148
   39MOL   O42729383   1.828   2.687   6.095  0.2637  0.2649  0.2079
   39MOL   N42829384   1.871   2.896   6.036  0.1873  0.0700  0.1487
   39MOL   C42929385   1.928   2.877   5.903  0.4839 -0.1753  0.8054
   39MOL   C43029386   2.008   2.996   5.857 -0.7417  0.0844 -0.5907
   39MOL   C43129387   2.141   3.008   5.937  0.4633 -0.0353  0.7539
   39MOL   C43229388   2.220   3.142   5.906 -0.5079 -0.2397 -0.0708
   39MOL   C43329389   2.367   3.147   5.954  0.6517  0.4082 -0.0399
   39MOL   C43429390   2.447   3.260   5.894 -0.3722  0.5306 -0.0221
   39MOL   N43529391   2.586   3.265   5.940  0.1578 -0.0021 -0.4071
   39MOL   H43629392   1.595   2.625   6.487  0.8948  0.4675 -1.3921
   39MOL   H43729393   1.442   2.680   6.418 -0.7018 -0.1000  1.1808
   39MOL   H43829394   1.580   2.775   6.248  1.8735 -3.4033  0.1997
   39MOL   H43929395   1.588   2.901   6.358 -0.4115 -0.5779  1.1999
   39MOL   H44029396   1.776   2.658   6.341 -0.6941 -0.1564 -2.6429
   39MOL   H44129397   1.789   2.774   6.464  1.4318  1.0352 -1.0567
   39MOL   H44229398   1.939   2.863   6.315  0.8439  3.2786 -1.4528
   39MOL   H44329399   1.792   2.955   6.284  2.4695  0.7252  0.1394
   39MOL   H44429400   1.872   2.992   6.068 -0.2399  0.7673 -1.8074
   39MOL   H44529401   1.980   2.782   5.899  0.0709 -0.4925  2.6297
   39MOL   H44629402   1.843   2.855   5.839  1.6083 -1.8632 -0.1214
   39MOL   H44729403   2.013   2.989   5.748 -0.4614  0.9724 -0.6382
   39MOL   H44829404   1.951   3.087   5.874 -0.8178 -0.1106  0.2371
   39MOL   H44929405   2.210   2.928   5.911 -2.3842 -1.8647 -1.4616
   39MOL   H45029406   2.112   2.991   6.041 -2.1375  2.6357  0.5367
   39MOL   H45129407   2.229   3.154   5.798 -0.8866 -0.8026 -0.1656
   39MOL   H45229408   2.159   3.227   5.937 -0.8539  0.3075 -2.1563
   39MOL   H45329409   2.364   3.156   6.063  0.0512 -0.8095  0.0482
   39MOL   H45429410   2.398   3.045   5.934  0.0255  0.2340 -0.1100
   39MOL   H45529411   2.394   3.354   5.907 -0.9734  0.0493  1.0114
   39MOL   H45629412   2.449   3.249   5.785 -2.0512 -1.6247  0.1456
   39MOL   H45729413   2.635   3.177   5.945 -0.2561 -0.3156 -1.6654
   39MOL   C45829414   2.658   3.377   5.951 -0.0629 -0.4742 -0.3769
   39MOL   O45929415   2.607   3.487   5.954  0.1749 -0.3450 -0.5303
   39MOL   C46029416   2.811   3.360   5.968  0.8251 -0.3780  0.3564
   39MOL   C46129417   2.844   3.367   6.115 -0.4153 -0.9466  0.0796
   39MOL   C46229418   2.865   3.514   6.160  0.2138 -0.0139  1.0548
   39MOL   C46329419   2.835   3.545   6.308 -0.2266 -0.3130 -0.3513
   39MOL   C46429420   2.692   3.509   6.351 -0.4866  0.6951  0.3670
   39MOL   O46529421   2.671   3.429   6.440 -0.3453 -0.2866  0.3527
   39MOL   N46629422   2.589   3.574   6.283 -0.1739 -0.0806 -0.0200
   39MOL   C46729423   2.449   3.571   6.321  0.1827  0.2635 -0.2083
   39MOL   C46829424   2.385   3.437   6.277  0.4172  0.2412 -0.3278
   39MOL   C46929425   2.245   3.441   6.322  1.1890 -0.3479 -0.0809
   39MOL   C47029426   2.167   3.315   6.292  0.7463  0.8280 -0.3821
   39MOL   C47129427   2.016   3.330   6.273 -0.6319 -1.0424 -0.0742
   39MOL   C47229428   1.943   3.194   6.254  0.4449  0.8074  0.2752
   39MOL   N47329429   1.799   3.233   6.247 -0.1406  0.1706 -0.3239
   39MOL   H47429430   2.836   3.260   5.935  0.6609 -0.2655 -0.1138
   39MOL   H47529431   2.858   3.437   5.907 -0.0366 -1.6754 -2.0140
   39MOL   H47629432   2.765   3.310   6.164  0.2899 -1.2633  0.8500
   39MOL   H47729433   2.940   3.317   6.126  0.1394 -0.6115 -2.8288
   39MOL   H47829434   2.798   3.568   6.092  0.5485  0.6347  1.2412
   39MOL   H47929435   2.968   3.534   6.134 -0.3968  0.3303 -1.2390
   39MOL   H48029436   2.847   3.652   6.319 -1.5282 -0.3333  1.5511
   39MOL   H48129437   2.902   3.491   6.375 -0.2973  2.1004  1.7206
   39MOL   H48229438   2.610   3.626   6.199 -3.4218  2.5464  0.6557
   39MOL   H48329439   2.445   3.584   6.429 -1.2311 -1.5367 -0.0441
   39MOL   H48429440   2.407   3.661   6.275 -0.2609  0.4472  0.5402
   39MOL   H48529441   2.390   3.438   6.168 -0.2443 -0.7870 -0.3814
   39MOL   H48629442   2.437   3.352   6.322  3.9123  1.7688 -1.2721
   39MOL   H48729443   2.195   3.529   6.280  1.6913  0.2216  0.4992
   39MOL   H48829444   2.236   3.456   6.430 -2.6997 -2.2048 -0.0409
   39MOL   H48929445   2.228   3.271   6.213 -0.4509  1.1657 -1.5098
   39MOL   H49029446   2.175   3.252   6.380 -1.2907  0.2262 -0.6153
   39MOL   H49129447   1.964   3.370   6.360  0.4935 -0.3725  0.2943
   39MOL   H49229448   1.982   3.393   6.191  1.0907 -1.7854 -1.3985
   39MOL   H49329449   1.964   3.119   6.331 -0.2166  2.0227  1.6562
   39MOL   H49429450   1.972   3.134   6.167  1.8605 -0.4148  1.5522
   39MOL   H49529451   1.755   3.270   6.330 -1.2227  0.6694 -1.1067
   39MOL   C49629452   1.731   3.243   6.130 -0.0076 -0.6216  0.2650
   39MOL   O49729453   1.783   3.217   6.024  0.2333 -0.3877  0.8172
   39MOL   C49829454   1.591   3.292   6.145 -1.0486 -0.2389  0.9475
   39MOL   C49929455   1.483   3.231   6.060  0.8794  0.8897  0.6854
   39MOL   C50029456   1.449   3.086   6.087 -0.1691  0.5015  0.2895
   39MOL   C50129457   1.388   3.050   6.224 -0.1924  0.1398 -0.4845
   39MOL   C50229458   1.244   3.090   6.233  0.2487 -0.2028 -0.4574
   39MOL   O50329459   1.154   3.010   6.208 -0.9884 -0.0697 -1.0893
   39MOL   N50429460   1.210   3.209   6.284  0.7106 -0.4516 -0.0021
   39MOL   C50529461   1.078   3.258   6.312 -0.2760  0.2731 -0.2171
   39MOL   C50629462   1.036   3.349   6.197 -0.4769  0.2031  0.3130
   39MOL   C50729463   0.893   3.396   6.214  0.8352 -0.3842 -0.4941
   39MOL   C50829464   0.853   3.489   6.098  0.5227  0.4969  0.1930
   39MOL   C50929465   0.936   3.628   6.095 -0.2719  0.2362  0.1883
   39MOL   C51029466   0.897   3.712   5.967 -0.3916  0.0289  0.1246
   39MOL   N51129467   0.941   3.852   5.986 -0.1262 -0.4267  0.7566
   39MOL   H51229468   1.559   3.286   6.249 -1.1120  0.5029  0.9732
   39MOL   H51329469   1.593   3.397   6.115 -3.2504 -0.3252  0.3732
   39MOL   H51429470   1.400   3.297   6.087  0.1133  0.3249 -0.2521
   39MOL   H51529471   1.512   3.246   5.956 -1.7489 -3.2214 -0.7994
   39MOL   H51629472   1.540   3.026   6.078 -0.0513  0.5101  1.4228
   39MOL   H51729473   1.372   3.061   6.013 -0.1022 -0.1540  0.4399
   39MOL   H51829474   1.442   3.098   6.306 -1.7550  0.8839  0.1262
   39MOL   H51929475   1.384   2.943   6.242  1.6970 -0.0808 -1.2693
   39MOL   H52029476   1.290   3.266   6.309  0.8318 -2.0314  3.5238
   39MOL   H52129477   1.017   3.167   6.314 -0.0781  0.1168 -1.0078
   39MOL   H52229478   1.074   3.314   6.405 -1.6994  0.6715 -0.5064
   39MOL   H52329479   1.104   3.434   6.196 -1.2615  0.8357 -1.3464
   39MOL   H52429480   1.038   3.296   6.101  1.2874 -1.4409  1.2191
   39MOL   H52529481   0.872   3.450   6.307 -0.4841 -0.8291 -0.5260
   39MOL   H52629482   0.826   3.311   6.207  0.6496 -0.3473  0.6627
   39MOL   H52729483   0.872   3.437   6.004 -0.3632 -0.4833  0.5534
   39MOL   H52829484   0.745   3.500   6.100  0.2981 -1.0678 -1.6396
   39MOL   H52929485   0.926   3.683   6.189 -0.3983  1.7961 -0.7242
   39MOL   H53029486   1.043   3.609   6.090 -0.4404 -0.4859 -0.8223
   39MOL   H53129487   0.789   3.718   5.958 -0.3318  0.6177 -0.1964
   39MOL   H53229488   0.928   3.666   5.874  1.8138  3.8556 -1.1635
   39MOL   H53329489   1.022   3.873   5.930 -1.1778  0.4511 -0.4890
   39MOL   C53429490   0.880   3.949   6.047 -0.2238 -0.5142  0.2378
   39MOL   O53529491   0.772   3.929   6.104 -0.3407  0.1322  0.5446
   39MOL   C53629492   0.953   4.078   6.061 -0.4323 -0.6593 -0.0585
   39MOL   C53729493   0.950   4.128   6.208  0.1114 -0.1838 -0.8644
   39MOL   C53829494   1.024   4.261   6.229  0.3396  0.3408  0.6449
   39MOL   C53929495   0.962   4.382   6.163  0.4233  0.7649  0.2044
   39MOL   C54029496   0.824   4.422   6.221  0.1427 -0.3479  0.2108
   39MOL   O54129497   0.825   4.469   6.337 -0.6824  0.2197  0.3630
   39MOL   N54229498   0.718   4.410   6.142  0.5934 -0.4756  0.4063
   39MOL   C54329499   0.582   4.450   6.187 -0.1758  0.7339 -0.5142
   39MOL   C54429500   0.516   4.569   6.109  0.1926  0.2879 -0.3546
   39MOL   C54529501   0.480   4.531   5.967  0.6652  0.3135 -0.2420
   39MOL   C54629502   0.458   4.646   5.871  0.7270  0.0334  0.1392
   39MOL   C54729503   0.462   4.610   5.722 -0.2990  0.3843  0.9618
   39MOL   C54829504   0.417   4.723   5.626 -0.0994  0.1109 -0.1330
   39MOL   N54929505   0.460   4.692   5.483 -0.2533 -0.6935 -0.3547
   39MOL   H55029506   1.056   4.069   6.026  0.0261  0.0913  1.0602
   39MOL   H55129507   0.904   4.156   6.003 -0.1720 -0.3410  0.1478
   39MOL   H55229508   0.847   4.139   6.240 -0.0610 -2.1463 -0.6995
   39MOL   H55329509   1.005   4.052   6.264  1.9618  0.2087 -2.1134
   39MOL   H55429510   1.127   4.255   6.194 -0.1433  0.3890 -0.8276
   39MOL   H55529511   1.032   4.302   6.330  2.2686  0.9279  0.2732
   39MOL   H55629512   0.955   4.364   6.056  0.2788 -1.5268  0.5688
   39MOL   H55729513   1.029   4.464   6.191  2.1723  0.5076 -3.0219
   39MOL   H55829514   0.731   4.377   6.047  0.3532 -0.5019  0.3807
   39MOL   H55929515   0.523   4.360   6.169  3.0633 -1.3622 -1.1202
   39MOL   H56029516   0.585   4.465   6.295  0.3308  0.0061 -0.4278
   39MOL   H56129517   0.420   4.592   6.156  0.7915 -2.2750  2.2674
   39MOL   H56229518   0.574   4.660   6.123  1.5376 -0.7835  1.2329
   39MOL   H56329519   0.400   4.460   5.985 -0.6037  1.9809  0.9036
   39MOL   H56429520   0.553   4.468   5.917  1.0254 -0.3335  1.1018
   39MOL   H56529521   0.364   4.698   5.887  1.7773  1.6158  1.2479
   39MOL   H56629522   0.533   4.723   5.886  0.1108  0.9482 -1.3834
   39MOL   H56729523   0.567   4.585   5.705 -1.0161 -1.3775 -1.1862
   39MOL   H56829524   0.395   4.527   5.703  0.5701 -0.2184  0.4627
   39MOL   H56929525   0.482   4.801   5.667  0.4403  0.0277 -0.8200
   39MOL   H57029526   0.317   4.763   5.642  0.4797  1.2718  0.7159
   39MOL   H57129527   0.390   4.676   5.412 -1.5604 -1.5294  1.0884
   39MOL   C57229528   0.590   4.692   5.439  0.2209  0.4168 -0.0635
   39MOL   O57329529   0.684   4.712   5.512 -0.3282 -0.1640  0.0282
   39MOL   C57429530   0.620   4.679   5.290  0.0796 -0.1562 -0.3510
   39MOL   C57529531   0.724   4.781   5.240 -0.1136  0.2092 -0.1040
   39MOL   C57629532   0.666   4.925   5.240  0.3467  0.6106 -0.0257
   39MOL   C57729533   0.753   5.040   5.207 -0.3651 -0.3747 -0.3487
   39MOL   C57829534   0.689   5.180   5.231 -0.1836  0.4880  0.3847
   39MOL   O57929535   0.681   5.222   5.344 -0.2304  0.0331 -0.0376
   39MOL   N58029536   0.639   5.245   5.124 -0.1911 -0.5459  0.6861
   39MOL   C58129537   0.562   5.366   5.139  0.6812  0.3647  0.0634
   39MOL   C58229538   0.572   5.452   5.019 -0.1015  0.1571 -0.2148
   39MOL   C58329539   0.713   5.519   5.007  0.0561 -0.3450  0.1559
   39MOL   C58429540   0.747   5.640   5.101  0.2175  0.6609 -0.1620
   39MOL   C58529541   0.885   5.710   5.080  0.3075  0.2078  0.6683
   39MOL   C58629542   0.913   5.831   5.167  1.1245  0.4688  0.0109
   39MOL   N58729543   0.936   5.789   5.307  0.0501  0.2131 -0.2591
   39MOL   H58829544   0.649   4.574   5.283  0.4643  0.0140 -1.3954
   39MOL   H58929545   0.527   4.687   5.233 -0.0552 -0.0621 -0.1196
   39MOL   H59029546   0.816   4.776   5.298  1.1049  2.3945 -1.7951
   39MOL   H59129547   0.740   4.760   5.135 -3.5764  3.4549 -1.4112
   39MOL   H59229548   0.630   4.951   5.340  1.7650  0.4539  0.5481
   39MOL   H59329549   0.580   4.920   5.174 -0.9052  0.5676  1.5586
   39MOL   H59429550   0.778   5.026   5.102 -0.9172 -1.6425 -0.3154
   39MOL   H59529551   0.845   5.025   5.262 -0.2224 -2.1128 -1.0246
   39MOL   H59629552   0.663   5.216   5.031  1.0650  1.9566  0.1822
   39MOL   H59729553   0.459   5.333   5.152  0.8561 -0.9997 -1.8991
   39MOL   H59829554   0.579   5.422   5.231 -1.5210 -2.5930  2.3606
   39MOL   H59929555   0.562   5.394   4.928 -0.7781 -2.2353  1.3589
   39MOL   H60029556   0.484   5.516   5.025 -0.3028 -0.2820  1.7673
   39MOL   H60129557   0.734   5.550   4.904  1.8584 -0.3091  0.5207
   39MOL   H60229558   0.789   5.443   5.025 -0.1310 -0.6599 -0.3474
   39MOL   H60329559   0.659   5.704   5.102 -0.0323  0.3262 -0.3360
   39MOL   H60429560   0.742   5.586   5.195  1.2071  3.3286  1.4706
   39MOL   H60529561   0.972   5.646   5.064  0.5458  1.0312 -1.5781
   39MOL   H60629562   0.882   5.766   4.986  0.4516  0.0750  0.5841
   39MOL   H60729563   0.829   5.900   5.171  0.2841 -0.6505  3.0015
   39MOL   H60829564   0.996   5.883   5.119  1.4251  1.5646  1.7006
   39MOL   H60929565   0.901   5.696   5.324 -1.5220  0.4811 -1.8452
   39MOL   C61029566   0.991   5.864   5.403 -0.4985  0.0319 -0.8343
   39MOL   O61129567   1.031   5.980   5.391 -0.0404  0.1557  0.4827
   39MOL   C61229568   0.999   5.810   5.547  0.6098  0.5120 -0.2386
   39MOL   C61329569   1.151   5.799   5.594  0.3237 -0.2985 -0.2782
   39MOL   C61429570   1.228   5.676   5.538  0.9167 -0.2169 -0.4442
   39MOL   C61529571   1.377   5.693   5.567 -0.1983  0.0370 -1.2146
   39MOL   C61629572   1.437   5.778   5.459  0.3664 -0.0703  0.0062
   39MOL   O61729573   1.472   5.720   5.353  0.0799  0.7964  0.3334
   39MOL   N61829574   1.463   5.906   5.487 -0.3550  0.0905  0.3077
   39MOL   C61929575   1.529   6.001   5.401 -0.2714  0.2998  1.0620
   39MOL   C62029576   1.434   6.081   5.315  0.1411  0.2938 -0.0552
   39MOL   C62129577   1.505   6.157   5.203  0.0350 -0.3835 -0.1044
   39MOL   C62229578   1.430   6.256   5.116  0.3698 -0.5097  0.3778
   39MOL   C62329579   1.509   6.307   4.996 -0.4360  0.4364  0.1577
   39MOL   C62429580   1.429   6.402   4.904  0.3210 -0.0524 -0.0460
   39MOL   N62529581   1.382   6.519   4.978  0.4940  0.1097 -0.3046
   39MOL   H62629582   0.949   5.872   5.622  0.5339 -2.7243  2.5045
   39MOL   H62729583   0.954   5.712   5.561  1.4127  0.0889 -0.6210
   39MOL   H62829584   1.209   5.887   5.569 -2.0515  1.9511  1.7343
   39MOL   H62929585   1.156   5.796   5.703  0.4981  2.6228 -0.1774
   39MOL   H63029586   1.199   5.657   5.435  0.3008 -0.6583 -0.2009
   39MOL   H63129587   1.184   5.600   5.604 -1.7686  1.8075  0.2181
   39MOL   H63229588   1.442   5.606   5.566  0.4174  0.4622  0.1086
   39MOL   H63329589   1.395   5.741   5.663  0.4850 -1.8247 -0.4009
   39MOL   H63429590   1.434   5.941   5.576 -0.1005 -1.7302  1.1405
   39MOL   H63529591   1.591   6.073   5.454 -1.5367  1.6123  0.7886
   39MOL   H63629592   1.610   5.946   5.353 -2.6044 -1.9027 -0.5232
   39MOL   H63729593   1.361   6.018   5.264  0.4821  1.4342 -2.0277
   39MOL   H63829594   1.396   6.161   5.378  1.9111  0.7901  0.3972
   39MOL   H63929595   1.537   6.079   5.134  0.7582  0.5236 -0.7960
   39MOL   H64029596   1.595   6.205   5.241  0.3220  2.1671 -3.7338
   39MOL   H64129597   1.339   6.199   5.097  0.4356 -1.8708  3.7641
   39MOL   H64229598   1.387   6.340   5.172 -1.6879 -2.6271  2.0751
   39MOL   H64329599   1.597   6.359   5.033  0.2629 -0.9411  0.4884
   39MOL   H64429600   1.561   6.236   4.932 -0.8628 -0.3192  0.6422
   39MOL   H64529601   1.349   6.331   4.883  1.5530 -0.7826 -2.4730
   39MOL   H64629602   1.478   6.430   4.811  0.9858  0.8288  0.5603
   39MOL   H64729603   1.298   6.513   5.033  1.1305  0.8499  0.7689
   39MOL   C64829604   1.436   6.642   4.970 -0.3738  0.6155  0.5931
   39MOL   O64929605   1.535   6.665   4.899  0.2839 -0.0749  0.3063
   39MOL   C65029606   1.376   6.754   5.063 -0.2788  0.3482  0.2707
   39MOL   C65129607   1.472   6.814   5.159 -0.5265 -0.1150  0.9020
   39MOL   C65229608   1.563   6.919   5.095 -0.2147 -0.8903  0.2352
   39MOL   C65329609   1.641   7.000   5.193  0.1009  0.0059 -0.4167
   39MOL   C65429610   1.713   7.115   5.133  0.4299 -0.0947 -1.1934
   39MOL   O65529611   1.703   7.130   5.014 -0.2926 -0.0822 -0.3374
   39MOL   N65629612   1.788   7.192   5.212  0.3268  0.0151  0.0505
   39MOL   C65729613   1.878   7.301   5.180 -0.4116  0.3346 -0.5380
   39MOL   C65829614   1.817   7.432   5.224  0.8132 -0.6303  0.2920
   39MOL   C65929615   1.684   7.479   5.158 -0.7165  0.5023  0.1911
   39MOL   C66029616   1.634   7.613   5.204  0.3302  0.1075 -0.3969
   39MOL   C66129617   1.506   7.658   5.131  0.3519 -0.4420  0.0341
   39MOL   C66229618   1.439   0.071   5.206  0.5897 -0.4798  0.1880
   39MOL   N66329619   1.308   0.097   5.163  0.2281 -0.2806  0.0820
   39MOL   H66429620   1.325   6.830   5.004  1.4558  2.6927  1.7338
   39MOL   H66529621   1.294   6.702   5.115  1.1607 -2.1064  0.1919
   39MOL   H66629622   1.424   6.848   5.251 -2.8472  0.6197 -0.5380
   39MOL   H66729623   1.524   6.727   5.199  0.8565  0.0643 -0.4657
   39MOL   H66829624   1.493   6.990   5.051  0.2180 -0.7927 -0.2879
   39MOL   H66929625   1.626   6.882   5.014 -1.7016 -0.9543 -0.9160
   39MOL   H67029626   1.712   6.931   5.238 -0.8415  0.8757  2.5089
   39MOL   H67129627   1.574   7.039   5.269  1.8530  0.5248  0.8972
   39MOL   H67229628   1.786   7.168   5.310  0.1091 -0.7963 -0.1423
   39MOL   H67329629   1.975   7.296   5.229  0.5061  0.8238 -2.2718
   39MOL   H67429630   1.907   7.299   5.075  0.9044  1.8976 -0.2187
   39MOL   H67529631   1.814   7.441   5.333  0.6976 -0.5930  0.2857
   39MOL   H67629632   1.889   7.509   5.196 -1.1010  0.9421 -0.4193
   39MOL   H67729633   1.608   7.402   5.174  0.8929 -1.5856 -1.9461
   39MOL   H67829634   1.700   7.473   5.051 -0.1099  1.8078  0.1982
   39MOL   H67929635   1.637   7.614   5.313  1.7629  1.0508 -0.4335
   39MOL   H68029636   1.718   7.678   5.180 -0.6205  1.0674 -1.1849
   39MOL   H68129637   1.536   7.677   5.028  1.0077  0.9619  0.4587
   39MOL   H68229638   1.432   7.578   5.135 -2.6610  1.9678 -3.8044
   39MOL   H68329639   1.509   0.153   5.194  1.7064 -1.4064  0.3080
   39MOL   H68429640   1.440   0.043   5.312  0.8990  0.5624  0.4649
   39MOL   H68529641   1.245   0.018   5.160  0.9503 -0.8344 -0.7601
   39MOL   C68629642   1.254   0.221   5.151 -0.3585 -0.4375  0.7190
   39MOL   O68729643   1.324   0.322   5.171 -0.0217  0.9152 -0.1548
   39MOL   C68829644   1.114   0.224   5.096  0.4566 -0.7906  0.1600
   39MOL   C68929645   1.007   0.287   5.191  0.0768 -0.4835  1.0585
   39MOL   C69029646   1.023   0.441   5.201  0.6055  0.3059 -0.0245
   39MOL   C69129647   0.929   0.490   5.305 -0.2200  0.4493  0.1506
   39MOL   C69229648   0.962   0.631   5.346  0.0864 -0.4457  0.4993
   39MOL   O69329649   1.025   0.715   5.277 -0.2061  0.4105  0.1614
   39MOL   N69429650   0.900   0.672   5.455 -0.2471 -0.7400 -0.4472
   39MOL   C69529651   0.915   0.805   5.520  0.6889  0.2036  0.3194
   39MOL   C69629652   0.885   0.788   5.664 -0.1693 -0.2503  0.2219
   39MOL   C69729653   0.904   0.917   5.740 -0.0932 -0.4263 -0.4156
   39MOL   C69829654   0.890   0.890   5.895 -0.4430 -0.3815 -0.1138
   39MOL   C69929655   0.952   1.008   5.974  0.0052 -0.7946  0.1558
   39MOL   C70029656   0.981   0.976   6.117  0.4808 -0.6837  0.2535
   39MOL   N70129657   1.041   1.081   6.190 -0.2255 -0.7178  0.8365
   39MOL   H70229658   1.104   0.270   4.998  1.4251 -3.9525 -1.4981
   39MOL   H70329659   1.083   0.119   5.094 -0.2642 -0.6822  3.0086
   39MOL   H70429660   0.909   0.275   5.145 -0.5594  0.2328  2.2095
   39MOL   H70529661   1.026   0.231   5.282 -0.4436 -2.8596 -0.2302
   39MOL   H70629662   0.996   0.485   5.104  1.5250 -1.6151 -1.1841
   39MOL   H70729663   1.125   0.469   5.227  0.5078  1.2768 -0.6377
   39MOL   H70829664   0.921   0.421   5.389  1.2912 -1.7884 -1.4811
   39MOL   H70929665   0.827   0.494   5.267 -0.4941  0.6354  0.9139
   39MOL   H71029666   0.831   0.610   5.494 -0.7134 -0.3216 -0.5993
   39MOL   H71129667   1.018   0.835   5.503  0.1780  0.7702 -1.8586
   39MOL   H71229668   0.845   0.877   5.478  0.7109 -1.0171 -1.8688
   39MOL   H71329669   0.790   0.741   5.688 -0.2190 -0.6103 -0.6940
   39MOL   H71429670   0.961   0.716   5.696  1.2123  1.6685  1.3952
   39MOL   H71529671   0.819   0.975   5.704  0.4517 -0.9928 -2.6843
   39MOL   H71629672   1.003   0.957   5.717  1.0302 -0.3499  4.1101
   39MOL   H71729673   0.789   0.857   5.918 -1.0580  0.4790 -1.5399
   39MOL   H71829674   0.952   0.806   5.924 -2.8631 -2.2651 -0.2567
   39MOL   H71929675   1.051   1.025   5.931 -0.6128  0.5112 -0.7419
   39MOL   H72029676   0.899   1.103   5.969  0.3371 -0.6038  0.2393
   39MOL   H72129677   1.047   0.888   6.118  1.3569 -0.0343  0.1693
   39MOL   H72229678   0.887   0.961   6.169  0.0254 -1.7530 -0.8438
   39MOL   H72329679   1.043   1.171   6.145  2.1614  0.0317  2.3398
   39MOL   C72429680   1.088   1.068   6.315 -0.1172 -0.7306  0.2832
   39MOL   O72529681   1.081   0.955   6.366  0.5071 -0.1387 -0.0088
   39MOL   C72629682   1.137   1.192   6.391  0.4466 -0.0298  0.2585
   39MOL   C72729683   1.256   1.159   6.483 -0.8785 -0.3124  0.1891
   39MOL   C72829684   1.299   1.268   6.583  1.0839  0.5070  0.3583
   39MOL   C72929685   1.411   1.235   6.674 -0.3058  0.4109 -0.4864
   39MOL   C73029686   1.547   1.268   6.616 -0.4049  0.3858 -0.1901
   39MOL   O73129687   1.600   1.379   6.633 -0.1730 -0.1672  0.1579
   39MOL   N73229688   1.597   1.177   6.536  0.4745  0.2228 -0.5812
   39MOL   C73329689   1.723   1.195   6.460  0.1309  0.2335  0.1170
   39MOL   C73429690   1.765   1.050   6.419  0.0192 -0.1876  0.3929
   39MOL   C73529691   1.867   1.045   6.303 -0.0435 -0.5285  0.4943
   39MOL   C73629692   1.897   0.896   6.256 -1.0878 -0.4618  0.1472
   39MOL   C73729693   1.786   0.830   6.176 -0.1305 -0.1559 -0.0891
   39MOL   C73829694   1.825   0.685   6.137 -0.5213  1.2512 -0.4148
   39MOL   N73929695   1.905   0.689   6.023  0.1817 -0.1339 -0.1384
   39MOL   H74029696   1.161   1.276   6.325  0.3291 -0.2694 -0.0918
   39MOL   H74129697   1.049   1.226   6.445  1.0523  2.3650 -0.2045
   39MOL   H74229698   1.241   1.061   6.529  0.4884 -0.2029  0.9170
   39MOL   H74329699   1.342   1.145   6.416  0.0961 -1.1024  1.5724
   39MOL   H74429700   1.219   1.292   6.653  1.6886 -0.3262  1.3489
   39MOL   H74529701   1.322   1.363   6.535 -0.2029  1.9515  2.4939
   39MOL   H74629702   1.402   1.127   6.688 -0.7109  0.3716 -1.0529
   39MOL   H74729703   1.390   1.288   6.767  1.5702  0.9602 -0.3513
   39MOL   H74829704   1.569   1.080   6.528  1.2145  0.1008 -1.8745
   39MOL   H74929705   1.694   1.262   6.379 -1.3195  1.0267  1.2699
   39MOL   H75029706   1.805   1.236   6.520  0.4674 -0.3122  0.0330
   39MOL   H75129707   1.795   0.987   6.503  0.7261  1.0667  1.0966
   39MOL   H75229708   1.684   0.991   6.376 -0.4621 -0.5074  1.7369
   39MOL   H75329709   1.959   1.094   6.335 -0.0752 -0.0893 -0.0893
   39MOL   H75429710   1.831   1.103   6.218 -1.8389 -1.6352  0.4713
   39MOL   H75529711   1.981   0.905   6.187  0.2061 -2.1995  1.4602
   39MOL   H75629712   1.924   0.829   6.338 -0.5524 -1.1762 -0.5987
   39MOL   H75729713   1.694   0.814   6.232  0.1978 -0.3199  0.4049
   39MOL   H75829714   1.754   0.897   6.096 -1.6466 -0.4776  0.2455
   39MOL   H75929715   1.727   0.643   6.112  0.0200 -0.7397  0.6991
   39MOL   H76029716   1.867   0.622   6.216 -0.1537  0.5261 -1.1838
   39MOL   H76129717   1.949   0.601   6.002 -0.2453 -0.8459  1.9245
   39MOL   H76229718   1.979   0.758   6.029 -0.8802  1.2694 -2.5092
   40MOL     C129719   1.794   4.248   3.989  0.1658 -0.7224 -0.2915
   40MOL     O229720   1.691   4.180   3.985 -0.2465 -0.0781 -0.2816
   40MOL     C329721   1.875   4.258   4.116  0.4707  0.0850 -0.2023
   40MOL     C429722   1.932   4.127   4.172 -0.2841  0.3838 -0.5768
   40MOL     C529723   2.033   4.041   4.093  0.0871 -0.1221 -0.2477
   40MOL     C629724   2.105   3.937   4.176  0.5920  0.5906 -0.8050
   40MOL     C729725   2.015   3.826   4.217  0.3904  0.7618  0.1658
   40MOL     O829726   1.909   3.847   4.271  0.2128  0.9622  0.2312
   40MOL     N929727   2.069   3.709   4.222  0.5517  0.5411 -0.0093
   40MOL    C1029728   1.991   3.584   4.234  0.0895 -0.3013 -0.0203
   40MOL    C1129729   2.054   3.479   4.149 -0.4660 -0.3951 -0.2043
   40MOL    C1229730   1.984   3.336   4.138 -0.4896 -0.0108  0.1821
   40MOL    C1329731   2.059   3.230   4.051  0.1810 -1.5475 -0.5641
   40MOL    C1429732   1.991   3.094   4.038  0.1162 -0.3317 -0.3786
   40MOL    C1529733   2.052   2.991   3.938  0.1373 -0.4515 -0.3039
   40MOL    N1629734   2.024   3.031   3.799  0.1849  0.0180 -0.3118
   40MOL    H1729735   1.963   4.321   4.102  0.1421  1.0200  1.6912
   40MOL    H1829736   1.809   4.306   4.188 -0.7967 -0.0779 -1.2454
   40MOL    H1929737   1.990   4.156   4.260  1.8906  1.4492 -2.3203
   40MOL    H2029738   1.849   4.068   4.211  0.7019 -0.0085  0.9843
   40MOL    H2129739   2.103   4.121   4.070  1.2076 -0.3278  2.2621
   40MOL    H2229740   1.993   3.985   4.008 -1.6449  0.2989  0.2813
   40MOL    H2329741   2.144   3.991   4.263  0.6646 -2.5349  1.2018
   40MOL    H2429742   2.195   3.892   4.135  2.3163  0.2640  3.0292
   40MOL    H2529743   2.161   3.690   4.184  1.4802 -0.7039  2.7840
   40MOL    H2629744   1.978   3.557   4.339 -1.2263 -1.1647 -0.4009
   40MOL    H2729745   1.897   3.608   4.186 -0.0782 -0.1157  0.3943
   40MOL    H2829746   2.047   3.505   4.043 -0.6320 -0.1010 -0.1206
   40MOL    H2929747   2.157   3.474   4.186 -1.2842  0.2035  2.2134
   40MOL    H3029748   1.888   3.352   4.089 -0.5628 -0.2031  0.2609
   40MOL    H3129749   1.955   3.287   4.231  1.1002 -0.0940  0.6375
   40MOL    H3229750   2.087   3.275   3.956 -1.3402  1.7239  0.4639
   40MOL    H3329751   2.153   3.202   4.098  0.4899  0.7322  0.2540
   40MOL    H3429752   2.005   3.057   4.140 -0.6700  0.1705 -0.0743
   40MOL    H3529753   1.884   3.108   4.022  0.2345 -0.9948 -1.7762
   40MOL    H3629754   2.015   2.890   3.960 -1.5217  0.0751 -0.5732
   40MOL    H3729755   2.161   2.988   3.946  0.0890 -0.2148  0.4825
   40MOL    H3829756   2.107   3.052   3.745 -0.7031 -1.0735 -2.1713
   40MOL    H3929757   1.840   4.302   3.907  0.0372 -0.7803 -0.4033
   40MOL    C4029758   1.907   3.019   3.738 -0.6649  0.1415  0.5398
   40MOL    O4129759   1.798   3.000   3.792 -0.6396 -0.2490  0.3732
   40MOL    C4229760   1.926   3.049   3.592 -0.0009  0.1039  0.9314
   40MOL    C4329761   1.878   3.189   3.553  0.0543  0.2942 -0.2696
   40MOL    C4429762   1.968   3.298   3.615  0.3735  0.7826 -0.6596
   40MOL    C4529763   1.925   3.358   3.748  0.6702 -0.6560  0.8620
   40MOL    C4629764   1.808   3.449   3.724  0.3362  0.0935  0.1753
   40MOL    O4729765   1.832   3.566   3.690  0.0493  0.4685  0.2154
   40MOL    N4829766   1.680   3.405   3.740  0.2369 -0.3550  0.0064
   40MOL    C4929767   1.556   3.464   3.696  0.0044 -0.7177  0.0451
   40MOL    C5029768   1.470   3.537   3.800 -0.2666 -1.2782  0.2162
   40MOL    C5129769   1.543   3.645   3.889  0.1288  0.3462  0.2889
   40MOL    C5229770   1.438   3.714   3.973 -0.4855  0.2442 -0.0407
   40MOL    C5329771   1.486   3.800   4.091  0.0685  0.2852  0.0441
   40MOL    C5429772   1.588   3.728   4.182 -0.1475  0.0067  1.0375
   40MOL    N5529773   1.641   3.826   4.275  0.1089  0.2295 -0.1083
   40MOL    H5629774   2.026   3.023   3.556 -0.8224 -1.4504 -0.2637
   40MOL    H5729775   1.868   2.976   3.537 -0.8679  0.5897  1.1923
   40MOL    H5829776   1.876   3.203   3.445 -0.4040  1.7588 -0.0797
   40MOL    H5929777   1.778   3.186   3.595  0.4685  0.1157  0.7053
   40MOL    H6029778   1.978   3.375   3.538  1.3961  2.1327  0.8059
   40MOL    H6129779   2.071   3.261   3.614  1.1963  2.9621  0.6213
   40MOL    H6229780   2.004   3.427   3.776  0.2350 -0.4719  1.6503
   40MOL    H6329781   1.919   3.285   3.829 -0.6864 -1.2509  0.2373
   40MOL    H6429782   1.669   3.307   3.758 -0.1618 -0.6947 -2.0194
   40MOL    H6529783   1.583   3.538   3.622 -2.1772 -1.1677 -1.2764
   40MOL    H6629784   1.502   3.386   3.642  1.8060  0.1267 -3.0885
   40MOL    H6729785   1.394   3.574   3.731  1.1218  1.6743  0.2024
   40MOL    H6829786   1.426   3.466   3.870 -0.7290  0.5299  1.7978
   40MOL    H6929787   1.594   3.718   3.827  0.6185  0.1467  0.4549
   40MOL    H7029788   1.612   3.590   3.953 -0.1661  1.6295  1.7349
   40MOL    H7129789   1.380   3.778   3.907 -2.2669 -2.2701 -1.0159
   40MOL    H7229790   1.357   3.651   4.010 -0.0065 -1.6563 -2.0541
   40MOL    H7329791   1.532   3.892   4.057 -0.9960  1.8018  2.5415
   40MOL    H7429792   1.394   3.826   4.144 -1.6682 -1.4356 -2.0367
   40MOL    H7529793   1.673   3.695   4.122 -1.4280 -1.4923 -0.0037
   40MOL    H7629794   1.547   3.643   4.236 -0.5842 -0.1186  0.5177
   40MOL    H7729795   1.733   3.859   4.249  0.0524  0.4039 -0.0838
   40MOL    C7829796   1.580   3.884   4.387 -0.6442  0.4728 -0.2842
   40MOL    O7929797   1.468   3.855   4.417  0.8894  0.5253 -0.5464
   40MOL    C8029798   1.662   3.991   4.461 -0.0128 -0.3052 -0.1662
   40MOL    C8129799   1.665   3.961   4.613 -0.0730 -0.2116 -1.0638
   40MOL    C8229800   1.758   3.839   4.644 -0.4628 -0.1710 -0.3183
   40MOL    C8329801   1.745   3.793   4.793  0.2682  0.2224  0.5913
   40MOL    C8429802   1.800   3.652   4.817  0.0708 -0.2251  0.2025
   40MOL    O8529803   1.858   3.593   4.723 -0.7001  0.4790 -0.1091
   40MOL    N8629804   1.782   3.595   4.941 -0.7524 -0.0379 -0.3363
   40MOL    C8729805   1.854   3.486   4.999 -0.4188  1.1472 -0.8060
   40MOL    C8829806   1.761   3.384   5.061 -0.3276 -0.3457  0.1052
   40MOL    C8929807   1.832   3.260   5.110 -0.2160  0.5501  0.3483
   40MOL    C9029808   1.912   3.293   5.231 -0.8505  0.1839  0.4056
   40MOL    C9129809   1.930   3.176   5.328 -0.1531 -0.4303 -0.5160
   40MOL    C9229810   2.003   3.219   5.461 -0.5287  0.4159 -0.1675
   40MOL    N9329811   2.147   3.237   5.448 -0.2224  0.1230 -0.3807
   40MOL    H9429812   1.761   4.000   4.417 -0.1196 -0.5657 -0.4543
   40MOL    H9529813   1.599   4.079   4.445 -1.6440 -1.1454  1.4737
   40MOL    H9629814   1.700   4.047   4.671  1.7799 -1.6558 -0.0010
   40MOL    H9729815   1.565   3.928   4.640  0.2816 -2.1859 -2.0857
   40MOL    H9829816   1.860   3.877   4.631  0.2469 -2.0626 -0.4622
   40MOL    H9929817   1.748   3.755   4.576  1.1848 -0.0769 -0.7024
   40MOL   H10029818   1.638   3.793   4.814  0.1295  0.2479 -0.1165
   40MOL   H10129819   1.782   3.867   4.864  0.7682 -0.0913  0.6599
   40MOL   H10229820   1.722   3.643   5.007  0.6316  0.6034  0.4873
   40MOL   H10329821   1.918   3.435   4.927 -1.0416  1.0064 -1.2655
   40MOL   H10429822   1.921   3.534   5.070  1.5562 -0.9329 -1.2079
   40MOL   H10529823   1.683   3.424   5.126  0.0411 -1.4688  1.2672
   40MOL   H10629824   1.695   3.355   4.980  1.2394  1.2371 -1.7861
   40MOL   H10729825   1.879   3.215   5.023 -1.4608 -1.2796  0.5686
   40MOL   H10829826   1.750   3.194   5.141 -0.9395  0.3146 -2.0229
   40MOL   H10929827   2.007   3.322   5.187 -1.3333  0.9503 -0.1565
   40MOL   H11029828   1.858   3.371   5.286 -0.1929  0.2594  0.9486
   40MOL   H11129829   1.832   3.135   5.351 -0.0676 -0.7923 -0.7859
   40MOL   H11229830   1.990   3.098   5.281  0.0250 -2.2669  2.6289
   40MOL   H11329831   1.997   3.133   5.527  0.0941  2.5916  2.8154
   40MOL   H11429832   1.963   3.308   5.508 -0.6756  0.6496 -0.7257
   40MOL   H11529833   2.191   3.201   5.364  0.4385  1.8736 -0.8031
   40MOL   C11629834   2.217   3.318   5.526 -0.2495 -0.5995  0.3207
   40MOL   O11729835   2.174   3.384   5.618  0.2995  0.7140 -0.2119
   40MOL   C11829836   2.368   3.332   5.494 -0.1630 -0.5695 -0.2237
   40MOL   C11929837   2.439   3.445   5.563  0.4738  0.3927  0.7664
   40MOL   C12029838   2.594   3.444   5.554 -0.1854  0.0152 -0.0240
   40MOL   C12129839   2.657   3.540   5.450 -0.2020 -0.2106  0.4071
   40MOL   C12229840   2.807   3.553   5.484  1.0519 -0.1618  0.7556
   40MOL   O12329841   2.838   3.645   5.558  0.6472 -1.0666  0.3458
   40MOL   N12429842   2.891   3.465   5.421  0.1046  0.4852  0.1664
   40MOL   C12529843   3.039   3.468   5.436  0.0062  0.0154  0.2593
   40MOL   C12629844   3.099   3.345   5.503  0.1072  0.0534 -0.2224
   40MOL   C12729845   3.079   3.351   5.656  0.6605 -0.2767 -0.9583
   40MOL   C12829846   3.189   3.444   5.732  0.3134 -0.3551  0.3428
   40MOL   C12929847   3.166   3.449   5.883  0.4778 -0.3130  0.4142
   40MOL   C13029848   3.296   3.473   5.959 -0.7255  0.0506 -0.1414
   40MOL   N13129849   3.264   3.534   6.085 -0.1789 -0.3966 -0.2616
   40MOL   H13229850   2.423   3.239   5.511 -1.6608 -1.0740  2.1007
   40MOL   H13329851   2.373   3.355   5.388  0.6172 -0.2063 -0.1074
   40MOL   H13429852   2.403   3.536   5.514  0.8601 -1.1228 -2.4704
   40MOL   H13529853   2.421   3.457   5.670  1.4538  0.0692  0.9676
   40MOL   H13629854   2.636   3.344   5.546  0.0651  0.2210 -1.5561
   40MOL   H13729855   2.628   3.478   5.651 -3.0546  1.0483  0.6622
   40MOL   H13829856   2.617   3.641   5.463 -1.0686 -0.2076 -1.8967
   40MOL   H13929857   2.645   3.507   5.346 -2.3848  0.9336  0.2537
   40MOL   H14029858   2.841   3.404   5.358 -0.7642 -0.5395  1.7950
   40MOL   H14129859   3.086   3.481   5.338 -0.1527 -1.6547 -0.0602
   40MOL   H14229860   3.067   3.550   5.503 -0.4568 -0.2183  0.7405
   40MOL   H14329861   3.056   3.259   5.452  2.9037 -1.3816 -0.2922
   40MOL   H14429862   3.206   3.338   5.482  0.2243  0.2013  0.3154
   40MOL   H14529863   3.086   3.258   5.712 -1.1087  0.3015  0.3153
   40MOL   H14629864   2.978   3.391   5.669  0.5216 -1.1699  0.8728
   40MOL   H14729865   3.288   3.405   5.707 -0.2893 -3.4805  2.5058
   40MOL   H14829866   3.183   3.545   5.691  1.4417  0.2752  1.6952
   40MOL   H14929867   3.084   3.517   5.907 -0.1416 -0.6048 -0.8344
   40MOL   H15029868   3.127   3.355   5.920  0.1516 -0.3700 -0.0763
   40MOL   H15129869   3.353   3.545   5.900 -0.3465  0.4669  0.7227
   40MOL   H15229870   3.351   3.378   5.966 -1.0060 -0.1663 -0.8716
   40MOL   H15329871   3.285   3.633   6.093 -1.4609 -0.1071 -0.3002
   40MOL   C15429872   3.229   3.470   6.193 -0.0050 -0.2997 -0.1774
   40MOL   O15529873   3.217   3.350   6.188  0.1844  0.5567  0.0651
   40MOL   C15629874   3.213   3.556   6.323  0.4953 -0.4946 -0.5749
   40MOL   C15729875   3.330   3.525   6.418 -0.3359  0.8831  0.1633
   40MOL   C15829876   3.312   3.609   6.552  0.1035 -0.3172  0.4529
   40MOL   C15929877   3.426   3.591   6.659  0.4279 -0.7858 -0.3853
   40MOL   C16029878   3.414   3.461   6.739 -0.4080  0.3441 -0.2284
   40MOL   O16129879   3.319   3.444   6.814  0.0534  0.4627  0.9706
   40MOL   N16229880   3.511   3.365   6.724  1.0202 -0.1807  0.3126
   40MOL   C16329881   3.521   3.241   6.802 -0.0239 -0.3672 -0.6089
   40MOL   C16429882   3.624   3.138   6.759  0.4425  0.5989 -0.5194
   40MOL   C16529883   3.597   3.087   6.618  0.3249  0.4210 -0.3410
   40MOL   C16629884   3.681   2.961   6.591  0.7553 -0.4683 -0.8367
   40MOL   C16729885   3.664   2.889   6.458  0.1539  0.2380  0.1571
   40MOL   C16829886   3.667   2.966   6.327 -0.0369  0.6022 -0.1225
   40MOL   N16929887   3.801   3.023   6.304 -0.4188  0.5110  0.0546
   40MOL   H17029888   3.211   3.664   6.305  0.7833 -0.1327  1.4389
   40MOL   H17129889   3.119   3.535   6.374 -0.0256 -0.0454 -1.3366
   40MOL   H17229890   3.333   3.417   6.434  0.1070  0.5306 -2.2394
   40MOL   H17329891   3.429   3.546   6.377 -0.3959 -1.2083 -1.1065
   40MOL   H17429892   3.213   3.591   6.594  0.7179 -1.1796  1.5220
   40MOL   H17529893   3.316   3.715   6.525 -2.6402 -0.0433  0.9333
   40MOL   H17629894   3.412   3.678   6.722 -0.8398  0.3252 -2.1518
   40MOL   H17729895   3.524   3.598   6.612 -0.2550 -0.7085 -1.8221
   40MOL   H17829896   3.591   3.380   6.664  0.2559 -0.4140 -0.7893
   40MOL   H17929897   3.545   3.264   6.906 -0.6515  0.7792 -0.7076
   40MOL   H18029898   3.423   3.194   6.815 -0.1005  0.9204  4.2785
   40MOL   H18129899   3.724   3.182   6.769  0.2559  0.8586  0.2937
   40MOL   H18229900   3.618   3.052   6.826 -1.3332  1.4438  0.4321
   40MOL   H18329901   3.609   3.163   6.541 -0.5563  2.1738  1.2231
   40MOL   H18429902   3.496   3.048   6.611  0.4249  0.3562 -1.4418
   40MOL   H18529903   3.789   2.979   6.596  0.7952 -0.5419 -1.3641
   40MOL   H18629904   3.639   2.890   6.663 -3.2195  2.4998 -0.0878
   40MOL   H18729905   3.740   2.812   6.446  0.5778  0.7551 -0.5419
   40MOL   H18829906   3.563   2.850   6.471 -0.6514  1.1925 -2.7746
   40MOL   H18929907   3.597   3.048   6.341 -0.7836 -0.4108  2.3738
   40MOL   H19029908   3.636   2.905   6.242  1.2553 -0.8309  0.4061
   40MOL   H19129909   3.823   3.110   6.349  0.4196 -0.1714  0.9823
   40MOL   C19229910   3.872   3.000   6.191 -0.7385  0.2441  0.1624
   40MOL   O19329911   3.845   2.915   6.104  0.5713  0.2262 -0.0725
   40MOL   C19429912   3.996   3.087   6.170 -0.0691  0.3918 -0.0125
   40MOL   C19529913   4.133   3.022   6.213  0.1339 -0.1948  0.7830
   40MOL   C19629914   4.174   2.997   6.351  0.2850 -0.5961 -0.7329
   40MOL   C19729915   4.106   2.875   6.422 -0.2068  0.8972  0.4299
   40MOL   C19829916   4.143   2.745   6.347 -0.0293 -0.7414  0.4679
   40MOL   O19929917   4.259   2.725   6.310 -0.0872 -0.1976 -0.6926
   40MOL   N20029918   4.049   2.660   6.312 -0.5194 -0.1222 -0.3889
   40MOL   C20129919   4.067   2.543   6.227  0.3894  0.8702 -0.5338
   40MOL   C20229920   3.942   2.452   6.244 -0.0075 -0.3957 -0.0710
   40MOL   C20329921   3.803   2.516   6.206  0.4072 -0.0381  0.2048
   40MOL   C20429922   3.784   2.552   6.063 -0.0104 -0.1222  0.0128
   40MOL   C20529923   3.638   2.613   6.042  0.1693  0.0633 -0.4440
   40MOL   C20629924   3.523   2.512   6.073 -0.3396  0.2966 -0.1591
   40MOL   N20729925   3.392   2.568   6.027 -0.5618  0.1095 -0.1791
   40MOL   H20829926   3.995   3.119   6.066  0.4812 -0.7614 -0.3841
   40MOL   H20929927   3.989   3.181   6.225 -2.0777  0.1602  0.1621
   40MOL   H21029928   4.135   2.928   6.158 -2.4748 -0.1243  0.5133
   40MOL   H21129929   4.208   3.075   6.155 -0.0569 -0.0578  0.6577
   40MOL   H21229930   4.143   3.083   6.410 -2.2424 -0.3832 -2.2979
   40MOL   H21329931   4.282   2.984   6.349  0.3162 -0.6100  0.6663
   40MOL   H21429932   4.000   2.894   6.437 -0.7936 -0.3818 -1.9057
   40MOL   H21529933   4.152   2.867   6.520 -0.8984 -0.7939  0.6227
   40MOL   H21629934   3.960   2.673   6.359  0.3454  1.1562  0.9296
   40MOL   H21729935   4.096   2.575   6.126  3.6134  2.5151  0.8221
   40MOL   H21829936   4.154   2.479   6.245  0.3725  0.9724 -0.0891
   40MOL   H21929937   3.965   2.364   6.185 -0.2157 -0.0013 -0.7403
   40MOL   H22029938   3.951   2.405   6.342  0.2200  1.7082  0.9430
   40MOL   H22129939   3.777   2.596   6.275  0.6270 -0.1791  0.4476
   40MOL   H22229940   3.728   2.438   6.219  1.4231 -0.8857  1.0640
   40MOL   H22329941   3.855   2.628   6.029  0.0173  0.0256  0.3959
   40MOL   H22429942   3.789   2.459   6.006  1.1067  0.2426 -0.5009
   40MOL   H22529943   3.634   2.710   6.091 -0.0676 -0.6614  1.0028
   40MOL   H22629944   3.625   2.639   5.938 -0.8043  1.0580 -0.0728
   40MOL   H22729945   3.512   2.516   6.182  1.7041  0.3716  0.0816
   40MOL   H22829946   3.542   2.410   6.039 -0.6173  0.7045 -1.5473
   40MOL   H22929947   3.365   2.662   6.053  0.2349  0.4595 -0.5873
   40MOL   C23029948   3.313   2.505   5.944  0.1928 -0.1872  0.7122
   40MOL   O23129949   3.333   2.389   5.920  0.2091  0.3999  0.1602
   40MOL   C23229950   3.204   2.584   5.876  0.2708 -0.1668 -0.0767
   40MOL   C23329951   3.136   2.514   5.756 -0.1777  0.4257  0.1538
   40MOL   C23429952   3.011   2.576   5.685  0.2186 -0.4086  0.7223
   40MOL   C23529953   3.033   2.658   5.559 -0.0441  0.3805  0.5530
   40MOL   C23629954   3.126   2.779   5.587 -0.5695  0.0583  0.3851
   40MOL   O23729955   3.091   2.859   5.673  0.3345  0.2882  0.8401
   40MOL   N23829956   3.237   2.786   5.514 -0.1429  0.4534 -0.2181
   40MOL   C23929957   3.339   2.883   5.544 -0.0801 -0.2381  0.5638
   40MOL   C24029958   3.436   2.909   5.428 -0.2055 -0.1922 -0.3305
   40MOL   C24129959   3.366   2.944   5.291  0.6830  0.2151 -0.8739
   40MOL   C24229960   3.281   3.067   5.301  0.3153 -0.3094 -0.2450
   40MOL   C24329961   3.240   3.112   5.155 -0.0877 -0.0016  0.1308
   40MOL   C24429962   3.136   3.222   5.161 -1.0995 -0.0085  0.1771
   40MOL   N24529963   3.110   3.268   5.026  0.0126 -0.2862 -0.3008
   40MOL   H24629964   3.133   2.604   5.957  0.1210  4.1275 -1.1151
   40MOL   H24729965   3.228   2.685   5.843 -1.0610 -0.2646 -1.4076
   40MOL   H24829966   3.214   2.482   5.686  0.9483  0.3821  1.4210
   40MOL   H24929967   3.098   2.417   5.790 -2.5028  0.9987 -0.7540
   40MOL   H25029968   2.954   2.639   5.754  1.0051  0.8557  0.2489
   40MOL   H25129969   2.946   2.494   5.656  0.2589  0.3086 -1.4735
   40MOL   H25229970   2.932   2.691   5.534  0.0357 -0.5125 -1.0390
   40MOL   H25329971   3.062   2.598   5.472 -0.7109  0.2072  0.4483
   40MOL   H25429972   3.257   2.711   5.450 -1.6715 -0.8089  0.7378
   40MOL   H25529973   3.291   2.978   5.568  0.7490  0.3800 -0.1775
   40MOL   H25629974   3.404   2.858   5.628  0.6086 -2.2713 -0.5460
   40MOL   H25729975   3.493   2.998   5.455 -0.1617 -0.8306  1.7475
   40MOL   H25829976   3.505   2.826   5.412  0.0080  0.3297 -2.2053
   40MOL   H25929977   3.298   2.864   5.262 -1.8297  2.1042 -0.3832
   40MOL   H26029978   3.445   2.959   5.216  1.5134  0.4632  0.0425
   40MOL   H26129979   3.193   3.043   5.362  0.8530 -0.3568  0.5212
   40MOL   H26229980   3.323   3.154   5.350 -2.5780  0.3196  1.2614
   40MOL   H26329981   3.324   3.139   5.092 -0.0158 -1.1499 -0.2732
   40MOL   H26429982   3.199   3.026   5.103 -0.0491  0.2166 -0.2649
   40MOL   H26529983   3.180   3.309   5.211 -0.1111 -0.0489 -0.6182
   40MOL   H26629984   3.049   3.188   5.217 -1.3785  2.0758  1.0684
   40MOL   H26729985   3.154   3.353   4.992 -1.4062  0.4392 -0.3747
   40MOL   C26829986   3.014   3.222   4.948  0.3121  0.3953 -0.4651
   40MOL   O26929987   2.952   3.122   4.968  0.5939  0.6860 -0.0679
   40MOL   C27029988   2.975   3.310   4.830 -0.4446  0.4761 -0.1025
   40MOL   C27129989   2.827   3.344   4.837  0.0203  0.1892 -1.0813
   40MOL   C27229990   2.761   3.415   4.715  0.4036 -1.0897 -1.1081
   40MOL   C27329991   2.609   3.453   4.722 -0.0501  0.3231 -0.5646
   40MOL   C27429992   2.582   3.525   4.854 -0.7797 -0.1179 -0.1239
   40MOL   O27529993   2.583   3.460   4.956  0.6869  0.3998  0.1734
   40MOL   N27629994   2.575   3.656   4.848  0.5017 -0.3548  0.0262
   40MOL   C27729995   2.557   3.739   4.965 -0.7807  0.2294  0.3250
   40MOL   C27829996   2.696   3.749   5.031 -0.5737  0.1429 -0.3733
   40MOL   C27929997   2.681   3.795   5.184 -0.7188 -0.8327  0.1099
   40MOL   C28029998   2.821   3.816   5.254 -0.0319 -0.2006  0.4349
   40MOL   C28129999   2.819   3.930   5.350  0.0010 -0.4424  0.3475
   40MOL   C28230000   2.961   3.958   5.412 -0.3314 -0.1040 -0.3296
   40MOL   N28330001   3.004   3.870   5.518  0.2140  0.9213  0.3399
   40MOL   H28430002   3.047   3.391   4.838 -0.6098  0.6193 -0.0842
   40MOL   H28530003   2.985   3.272   4.728  1.1777 -1.5825  0.7845
   40MOL   H28630004   2.766   3.260   4.869  2.9089 -1.0262  1.5070
   40MOL   H28730005   2.813   3.402   4.928  2.5158 -0.2353 -0.3636
   40MOL   H28830006   2.763   3.345   4.632 -0.0608 -1.1320 -1.0861
   40MOL   H28930007   2.826   3.497   4.685  0.0114 -0.2507  0.2830
   40MOL   H29030008   2.540   3.368   4.723  0.8671 -0.4401  1.4593
   40MOL   H29130009   2.597   3.520   4.637  0.2975  1.1927  0.0596
   40MOL   H29230010   2.581   3.700   4.757  1.4634 -0.5995 -0.0373
   40MOL   H29330011   2.533   3.842   4.937 -1.4112 -0.3005 -1.1247
   40MOL   H29430012   2.478   3.702   5.029 -0.6155  0.4399  0.6512
   40MOL   H29530013   2.747   3.653   5.032 -0.6692  0.0223  3.3925
   40MOL   H29630014   2.754   3.827   4.981  0.2993 -1.1023 -1.3186
   40MOL   H29730015   2.623   3.726   5.245  1.0748 -2.2045  0.2828
   40MOL   H29830016   2.624   3.888   5.195 -0.1800 -0.6020  0.9312
   40MOL   H29930017   2.850   3.722   5.301  1.1018 -0.6676 -1.1392
   40MOL   H30030018   2.898   3.839   5.180 -0.3816 -0.1506  0.0828
   40MOL   H30130019   2.780   4.016   5.295 -0.9990  0.0818  1.8408
   40MOL   H30230020   2.745   3.919   5.429  0.5566  1.0068  1.0887
   40MOL   H30330021   2.962   4.062   5.446  1.6414  0.1817 -1.1954
   40MOL   H30430022   3.035   3.956   5.332  0.1588  0.4552  0.1034
   40MOL   H30530023   2.963   3.778   5.518 -0.5619  1.2638  0.3623
   40MOL   C30630024   3.086   3.910   5.613 -0.7176 -0.3472  0.2604
   40MOL   O30730025   3.136   4.021   5.607  0.3254  0.5554  0.6121
   40MOL   C30830026   3.122   3.807   5.717  0.4163 -0.0892  0.6260
   40MOL   C30930027   3.142   3.867   5.853  0.1376 -0.6303 -0.3086
   40MOL   C31030028   3.292   3.904   5.866  0.1855  0.1086 -0.0212
   40MOL   C31130029   3.324   3.997   5.989  0.3022  0.1028 -0.3541
   40MOL   C31230030   3.348   3.917   6.117  0.3966  0.2368  0.2224
   40MOL   O31330031   3.344   3.794   6.117  0.1967 -0.4367  0.0722
   40MOL   N31430032   3.373   3.994   6.222  0.0516  0.3998  0.2273
   40MOL   C31530033   3.421   3.945   6.349  0.2636 -0.2671  0.1721
   40MOL   C31630034   3.319   4.000   6.459 -0.0775  0.6455  0.7254
   40MOL   C31730035   3.304   4.156   6.474 -0.1791 -0.2738  0.2148
   40MOL   C31830036   3.203   4.190   6.579  0.1997 -1.2494  0.2548
   40MOL   C31930037   3.185   4.339   6.591  0.0560 -0.0495 -0.0015
   40MOL   C32030038   3.063   4.373   6.677  0.6524  0.0144 -0.4788
   40MOL   N32130039   3.067   4.512   6.724 -0.2599 -0.2502 -0.2285
   40MOL   H32230040   3.035   3.746   5.741 -0.3582  0.8456  0.2344
   40MOL   H32330041   3.207   3.745   5.690  0.4806 -0.4979  1.7232
   40MOL   H32430042   3.069   3.948   5.860  2.3143  1.2693  1.0823
   40MOL   H32530043   3.114   3.801   5.935 -0.3921  0.2737  0.2430
   40MOL   H32630044   3.340   3.947   5.778 -0.0961  2.2061  0.8238
   40MOL   H32730045   3.349   3.811   5.874  1.2387  0.7134 -0.3605
   40MOL   H32830046   3.241   4.066   6.005 -0.2428 -0.5570 -0.2740
   40MOL   H32930047   3.412   4.058   5.972 -0.3130  1.5509  1.4859
   40MOL   H33030048   3.392   4.091   6.200 -2.3629  1.1134  1.0741
   40MOL   H33130049   3.443   3.838   6.341 -0.7322 -0.3746 -1.4205
   40MOL   H33230050   3.520   3.981   6.376 -0.6336  2.8058 -0.4220
   40MOL   H33330051   3.216   3.981   6.430 -0.4065  2.5267  0.6360
   40MOL   H33430052   3.335   3.959   6.558 -0.7525 -0.4039  0.4114
   40MOL   H33530053   3.277   4.208   6.382 -0.5447 -1.8940 -0.6301
   40MOL   H33630054   3.400   4.196   6.508 -0.9896  0.4199  1.7044
   40MOL   H33730055   3.106   4.144   6.558 -0.5517 -0.2557  1.4900
   40MOL   H33830056   3.228   4.149   6.677 -0.2609 -0.2030  0.8202
   40MOL   H33930057   3.275   4.387   6.630 -0.6701  1.0099  0.3921
   40MOL   H34030058   3.186   4.381   6.491  0.6145 -0.7552 -0.3007
   40MOL   H34130059   3.056   4.305   6.762 -0.4891  0.7032 -0.0122
   40MOL   H34230060   2.971   4.362   6.618  0.2186  1.8497 -0.1638
   40MOL   H34330061   3.109   4.581   6.663 -1.3216  0.1430 -0.5298
   40MOL   C34430062   3.013   4.562   6.837 -0.0395 -0.3037  0.3010
   40MOL   O34530063   2.951   4.488   6.921 -0.0217  0.1314  0.4980
   40MOL   C34630064   3.034   4.720   6.878  0.5494  1.3046  0.3017
   40MOL   C34730065   3.112   4.726   7.013 -0.2845  0.1240 -0.3677
   40MOL   C34830066   3.167   4.872   7.036 -0.3239 -0.3551  0.5293
   40MOL   C34930067   3.253   4.902   7.163  0.0807  0.3420  0.6052
   40MOL   C35030068   3.168   4.934   7.279  0.4091  0.3935  0.2115
   40MOL   O35130069   3.141   5.052   7.298  0.0762 -0.6088 -0.1538
   40MOL   N35230070   3.135   4.831   7.358  0.7832  0.2621  0.1246
   40MOL   C35330071   3.064   4.848   7.482  0.5511  0.2369 -0.3288
   40MOL   C35430072   3.169   4.883   7.589  0.3604 -0.2792  0.1124
   40MOL   C35530073   3.118   4.856   0.025  0.5084 -0.6008  0.3527
   40MOL   C35630074   3.222   4.879   0.139 -0.5345 -0.4464 -0.0472
   40MOL   C35730075   3.188   4.826   0.282  0.2615 -0.2073  0.8619
   40MOL   C35830076   3.157   4.671   0.290  0.5674  0.2120  0.1081
   40MOL   N35930077   3.134   4.644   0.429  0.7938  0.2945  0.4173
   40MOL   H36030078   3.101   4.757   6.800  0.1385 -0.1090 -0.7440
   40MOL   H36130079   2.936   4.767   6.883  0.9250  2.0755  0.5160
   40MOL   H36230080   3.058   4.691   7.101  0.8861 -1.9726 -0.4244
   40MOL   H36330081   3.202   4.665   7.001 -1.3209 -0.9651 -2.9530
   40MOL   H36430082   3.095   4.954   7.026  0.7994  0.8686  2.1425
   40MOL   H36530083   3.230   4.890   6.949  0.6423  2.0762  1.6577
   40MOL   H36630084   3.319   4.983   7.132  1.5049 -1.4289 -1.0849
   40MOL   H36730085   3.318   4.819   7.189  0.5128 -0.0418 -1.6291
   40MOL   H36830086   3.151   4.733   7.340  2.9534  0.2560  1.9074
   40MOL   H36930087   2.986   4.923   7.467  0.3272 -0.3211 -1.9397
   40MOL   H37030088   3.009   4.756   7.503 -0.0300  0.7968  0.6723
   40MOL   H37130089   3.257   4.820   7.571  0.3696 -0.3852  0.5227
   40MOL   H37230090   3.201   4.987   7.584 -1.7716  0.4226  0.6372
   40MOL   H37330091   3.087   4.752   0.038 -2.6644  0.1951 -0.3448
   40MOL   H37430092   3.030   4.918   0.041  0.8420  0.3696 -1.4491
   40MOL   H37530093   3.315   4.830   0.110 -0.6852  0.0067 -1.3378
   40MOL   H37630094   3.238   4.987   0.145 -0.2601 -0.2131 -3.7026
   40MOL   H37730095   3.273   4.847   0.346  0.8625 -1.4655  0.5096
   40MOL   H37830096   3.103   4.886   0.313 -0.8998 -2.3397  1.9613
   40MOL   H37930097   3.242   4.614   0.253  0.0689 -1.1561  1.0523
   40MOL   H38030098   3.074   4.651   0.223  1.4917  0.4310 -1.1255
   40MOL   H38130099   3.056   4.692   0.472 -1.1176 -2.8339  0.5591
   40MOL   C38230100   3.213   4.578   0.519  0.2337 -0.0457  0.2368
   40MOL   O38330101   3.315   4.525   0.491  0.6667 -0.0124  0.3089
   40MOL   C38430102   3.189   4.585   0.669  0.0565  0.1026 -0.4309
   40MOL   C38530103   3.271   4.479   0.755 -0.7452 -0.4480  0.0518
   40MOL   C38630104   3.253   4.328   0.724  0.0217  0.1829  0.1407
   40MOL   C38730105   3.117   4.254   0.722 -0.0671 -0.2108  0.4035
   40MOL   C38830106   3.063   4.242   0.867  0.2417  0.2137  0.0427
   40MOL   O38930107   3.137   4.279   0.960  0.4258 -0.0890 -0.6080
   40MOL   N39030108   2.940   4.193   0.868  0.2001 -0.1206 -0.5708
   40MOL   C39130109   2.868   4.166   0.988 -0.1540  0.1532  0.1940
   40MOL   C39230110   2.729   4.117   0.970  0.6403 -0.6214 -0.6123
   40MOL   C39330111   2.656   4.105   1.099 -0.0002  0.5318  0.2531
   40MOL   C39430112   2.519   4.044   1.087 -0.3185  0.3537  0.0280
   40MOL   C39530113   2.425   4.076   1.206  0.0157 -0.4638 -0.3915
   40MOL   C39630114   2.469   4.028   1.342  0.6044 -0.5133 -0.3158
   40MOL   N39730115   2.373   4.081   1.443 -0.5045  0.3212 -0.1731
   40MOL   H39830116   3.243   4.675   0.695 -1.5466  1.1156 -0.5598
   40MOL   H39930117   3.085   4.595   0.701 -0.7846  1.6418 -3.4281
   40MOL   H40030118   3.376   4.501   0.773 -1.5362  1.5622  2.3725
   40MOL   H40130119   3.232   4.504   0.853  1.0242 -0.3151  0.7273
   40MOL   H40230120   3.324   4.274   0.787  0.2216 -0.8179 -0.9332
   40MOL   H40330121   3.289   4.312   0.622 -0.3974  0.6033 -0.0762
   40MOL   H40430122   3.116   4.155   0.676 -0.2362 -0.8484  1.7473
   40MOL   H40530123   3.050   4.318   0.665 -2.2207 -3.4629 -0.8653
   40MOL   H40630124   2.915   4.157   0.778  0.6085 -1.8732  0.0038
   40MOL   H40730125   2.917   4.105   1.063 -2.9493  0.3116  2.2321
   40MOL   H40830126   2.861   4.259   1.046 -0.1966 -0.8634  1.8534
   40MOL   H40930127   2.678   4.175   0.893 -0.2930  0.5270  0.8491
   40MOL   H41030128   2.731   4.014   0.933 -0.3082 -0.9181  0.1612
   40MOL   H41130129   2.648   4.193   1.163  1.0779  1.2790 -0.6193
   40MOL   H41230130   2.715   4.050   1.173 -1.6828  0.8960  1.9051
   40MOL   H41330131   2.472   4.094   1.003  1.4005  0.1878 -1.0418
   40MOL   H41430132   2.520   3.936   1.070  1.9833  0.4532 -0.5559
   40MOL   H41530133   2.400   4.182   1.199  1.3450 -0.1005  0.1179
   40MOL   H41630134   2.331   4.029   1.178  0.9336 -2.8368  0.3978
   40MOL   H41730135   2.566   4.071   1.365  0.4989  0.6679 -2.0500
   40MOL   H41830136   2.469   3.919   1.340 -0.0924 -0.5385  0.4502
   40MOL   H41930137   2.304   4.150   1.418 -2.4260 -1.3361  0.3955
   40MOL   C42030138   2.403   4.060   1.574  0.2163 -0.0471  0.2438
   40MOL   O42130139   2.501   4.001   1.610  0.0086  0.5589  0.3181
   40MOL   C42230140   2.296   4.115   1.667  0.1602 -0.8661  0.0659
   40MOL   C42330141   2.191   4.009   1.696  0.6763 -0.4066 -1.0124
   40MOL   C42430142   2.225   3.890   1.796  0.3980 -0.2205 -1.1074
   40MOL   C42530143   2.103   3.794   1.800  0.8556 -0.0815  0.1286
   40MOL   C42630144   2.109   3.692   1.913  0.2475  0.9812 -0.4367
   40MOL   O42730145   2.134   3.724   2.029  0.0385  0.2444  0.0550
   40MOL   N42830146   2.070   3.571   1.878 -0.2271 -0.5143 -0.0699
   40MOL   C42930147   2.044   3.458   1.969  0.3155 -0.1755  0.1843
   40MOL   C43030148   2.175   3.380   2.014 -0.4034 -0.7469 -0.7931
   40MOL   C43130149   2.269   3.356   1.897  0.8696 -0.0873 -0.8854
   40MOL   C43230150   2.369   3.254   1.923 -0.6122 -0.8913 -0.5658
   40MOL   C43330151   2.322   3.111   1.932  0.4226 -0.0783 -0.7412
   40MOL   C43430152   2.431   3.010   1.986  0.0400 -0.4159 -0.4087
   40MOL   N43530153   2.369   2.876   1.989 -0.4493  0.0230 -0.4358
   40MOL   H43630154   2.348   4.160   1.752 -0.4183 -1.4562  0.7335
   40MOL   H43730155   2.255   4.201   1.614  2.0575 -0.3678 -0.6458
   40MOL   H43830156   2.108   4.051   1.752  1.3595 -0.3040 -0.0513
   40MOL   H43930157   2.138   3.990   1.603  0.5792  1.0526 -1.2666
   40MOL   H44030158   2.254   3.918   1.897 -0.2505  0.2368 -1.0477
   40MOL   H44130159   2.310   3.834   1.755  0.7944 -1.8605  1.8247
   40MOL   H44230160   2.102   3.739   1.705  1.7289 -3.6891  2.1135
   40MOL   H44330161   2.022   3.863   1.821  1.9623  1.3834 -0.3448
   40MOL   H44430162   2.045   3.553   1.782 -3.5128  0.9738  0.4123
   40MOL   H44530163   1.993   3.506   2.052  2.5456  0.1248  1.4228
   40MOL   H44630164   1.984   3.392   1.907 -0.9176 -0.2436  1.4357
   40MOL   H44730165   2.219   3.440   2.094 -0.1307 -0.9590 -0.7842
   40MOL   H44830166   2.135   3.295   2.069 -0.3651  1.0844  2.1677
   40MOL   H44930167   2.319   3.446   1.862  0.0090  0.3223 -1.0737
   40MOL   H45030168   2.213   3.321   1.811  0.9057 -2.2146 -0.0682
   40MOL   H45130169   2.451   3.259   1.851 -0.5104 -1.1835 -0.4717
   40MOL   H45230170   2.420   3.276   2.017  0.1003 -1.7697 -0.7414
   40MOL   H45330171   2.245   3.094   2.007 -1.2085  0.7370 -2.2200
   40MOL   H45430172   2.284   3.070   1.839 -0.4368 -2.1210  0.4746
   40MOL   H45530173   2.455   3.036   2.089 -1.7729  0.8986 -0.2998
   40MOL   H45630174   2.525   3.006   1.929 -0.0602  0.0979 -0.6165
   40MOL   H45730175   2.339   2.845   2.081  2.5283 -1.5811  0.0703
   40MOL   C45830176   2.345   2.785   1.896  0.5531 -0.7476  0.1376
   40MOL   O45930177   2.357   2.804   1.771 -0.2649 -0.1718 -0.0353
   40MOL   C46030178   2.289   2.650   1.946 -0.2059  0.6229  0.8916
   40MOL   C46130179   2.160   2.595   1.872 -0.0971  0.2714 -0.9859
   40MOL   C46230180   2.030   2.681   1.908 -0.6811  0.3461 -0.4186
   40MOL   C46330181   1.903   2.639   1.829 -0.1146  0.2311  0.3820
   40MOL   C46430182   1.835   2.508   1.868  0.5443  0.1805 -0.4729
   40MOL   O46530183   1.892   2.403   1.853 -0.7552  0.4103 -0.0879
   40MOL   N46630184   1.713   2.520   1.909 -0.2739  0.0837  0.0006
   40MOL   C46730185   1.624   2.412   1.946 -0.1465  0.6105 -0.1683
   40MOL   C46830186   1.509   2.475   2.018 -0.4548 -0.7949 -0.2140
   40MOL   C46930187   1.396   2.371   2.052 -0.7423 -0.0520  0.3530
   40MOL   C47030188   1.284   2.445   2.124 -0.1218  0.5720  0.2125
   40MOL   C47130189   1.179   2.357   2.187  0.5896  0.5163 -0.5897
   40MOL   C47230190   1.054   2.436   2.235  0.2014  0.3071 -0.2133
   40MOL   N47330191   0.962   2.338   2.283 -0.3801  0.3810 -0.4760
   40MOL   H47430192   2.362   2.570   1.938 -0.6988  0.2668 -0.0535
   40MOL   H47530193   2.278   2.657   2.054  0.1845  2.1456  0.8546
   40MOL   H47630194   2.167   2.594   1.763  1.1471 -0.2140 -0.9111
   40MOL   H47730195   2.139   2.495   1.910  1.7951 -0.0539 -0.7250
   40MOL   H47830196   2.037   2.790   1.905  0.3694  0.3500  1.4601
   40MOL   H47930197   2.009   2.675   2.015  1.1571  1.9707  0.0625
   40MOL   H48030198   1.940   2.613   1.729  0.8252  1.2671  0.4537
   40MOL   H48130199   1.829   2.715   1.806 -1.9125 -2.0915 -1.8095
   40MOL   H48230200   1.680   2.615   1.920  0.6924  0.5037 -0.5568
   40MOL   H48330201   1.590   2.366   1.853  0.3923  2.3006 -1.2272
   40MOL   H48430202   1.679   2.342   2.008 -0.5052  0.7299  0.2882
   40MOL   H48530203   1.544   2.528   2.106  0.4952  0.3493 -1.2626
   40MOL   H48630204   1.456   2.552   1.963 -0.9557  0.9141  2.5914
   40MOL   H48730205   1.432   2.293   2.119 -3.7543 -0.9968  0.9462
   40MOL   H48830206   1.363   2.326   1.959 -2.4212 -0.1225  0.9617
   40MOL   H48930207   1.317   2.517   2.199 -0.4310  0.5794  0.3399
   40MOL   H49030208   1.245   2.511   2.047  3.4088  0.6031 -1.6504
   40MOL   H49130209   1.153   2.279   2.116  0.9011  0.0015 -0.1329
   40MOL   H49230210   1.211   2.304   2.276 -1.3652 -0.2220 -0.3001
   40MOL   H49330211   1.005   2.483   2.149 -2.2214  0.0766  1.0008
   40MOL   H49430212   1.071   2.515   2.308  1.8104  0.1442 -0.3977
   40MOL   H49530213   0.978   2.241   2.258 -0.2672  0.7502 -1.8828
   40MOL   C49630214   0.855   2.370   2.358  0.4492  0.2608  0.3153
   40MOL   O49730215   0.826   2.484   2.380 -0.0345  0.0260 -0.1430
   40MOL   C49830216   0.786   2.255   2.423 -0.0013 -0.6944  0.2158
   40MOL   C49930217   0.638   2.263   2.434  0.1692  0.1702 -0.8498
   40MOL   C50030218   0.572   2.249   2.302  0.4515 -0.3150 -0.3034
   40MOL   C50130219   0.413   2.268   2.315  0.1290 -0.3400 -0.0387
   40MOL   C50230220   0.338   2.194   2.211  0.5416 -0.2749  0.1801
   40MOL   O50330221   0.293   2.251   2.112  0.2263 -0.5330 -0.7397
   40MOL   N50430222   0.306   2.071   2.249 -0.7384  0.6575 -0.4076
   40MOL   C50530223   0.232   1.969   2.174 -0.3187  0.3514  0.4009
   40MOL   C50630224   0.307   1.833   2.187 -0.1450 -0.1899 -0.1784
   40MOL   C50730225   0.437   1.815   2.108 -0.3272 -0.2190 -0.0354
   40MOL   C50830226   0.482   1.671   2.120  0.1248  0.1076 -0.0308
   40MOL   C50930227   0.549   1.632   2.251 -1.0984 -0.1494 -0.5732
   40MOL   C51030228   0.546   1.480   2.279 -0.1884  0.3486 -0.0167
   40MOL   N51130229   0.631   1.406   2.191 -0.7042  0.7898 -0.2581
   40MOL   H51230230   0.806   2.161   2.372 -0.1366 -1.1725  1.0267
   40MOL   H51330231   0.823   2.237   2.524  1.3672 -0.2693 -0.2009
   40MOL   H51430232   0.605   2.178   2.494 -0.8130 -0.0184 -1.6511
   40MOL   H51530233   0.609   2.350   2.493 -0.3574  0.0456 -0.9227
   40MOL   H51630234   0.600   2.154   2.257 -0.5976 -0.9528  0.3649
   40MOL   H51730235   0.618   2.324   2.238  3.0353  0.1968  2.0161
   40MOL   H51830236   0.386   2.373   2.302  1.4198  0.4376  3.0664
   40MOL   H51930237   0.396   2.233   2.417  1.7447  0.4881  0.5314
   40MOL   H52030238   0.321   2.042   2.344  1.8551 -0.7893 -1.2043
   40MOL   H52130239   0.142   1.954   2.235 -0.3091  1.3867  0.6730
   40MOL   H52230240   0.206   1.994   2.072 -2.6571  1.5008  1.2408
   40MOL   H52330241   0.315   1.806   2.293 -0.5572  2.5397  0.5737
   40MOL   H52430242   0.252   1.748   2.147  0.9838 -1.0079 -0.0333
   40MOL   H52530243   0.518   1.871   2.155 -0.3268 -0.9734  0.8783
   40MOL   H52630244   0.424   1.844   2.004 -1.3238  2.7371  0.8656
   40MOL   H52730245   0.402   1.611   2.077  1.3117  1.0566 -3.7870
   40MOL   H52830246   0.562   1.669   2.046 -0.5258 -1.7792 -0.7157
   40MOL   H52930247   0.653   1.665   2.259 -1.0902 -0.0689 -1.0152
   40MOL   H53030248   0.489   1.667   2.336  0.9075  1.4551  0.2244
   40MOL   H53130249   0.445   1.444   2.257  0.2049  0.8414 -2.8264
   40MOL   H53230250   0.570   1.467   2.384  2.2234  2.9641 -0.1948
   40MOL   H53330251   0.589   1.362   2.111  2.4862 -0.5634 -1.2211
   40MOL   C53430252   0.764   1.394   2.213 -0.4744 -0.1299 -0.1851
   40MOL   O53530253   0.821   1.445   2.309 -0.2165  0.0270 -0.7395
   40MOL   C53630254   0.850   1.320   2.109  0.2584 -0.2039  0.3326
   40MOL   C53730255   0.946   1.416   2.042  0.0199  0.1322  0.1780
   40MOL   C53830256   0.882   1.544   1.993  0.0783 -0.1348  0.6962
   40MOL   C53930257   0.774   1.522   1.885  0.7768  0.4560 -0.1031
   40MOL   C54030258   0.815   1.451   1.761 -0.5032  0.8645  0.0894
   40MOL   O54130259   0.893   1.507   1.684 -0.0791 -0.3162  0.4259
   40MOL   N54230260   0.762   1.326   1.742 -0.5463  0.3266 -0.1123
   40MOL   C54330261   0.815   1.237   1.636  0.1751 -0.3466 -0.2680
   40MOL   C54430262   0.737   1.103   1.635 -0.3120  0.4786  0.3928
   40MOL   C54530263   0.604   1.107   1.566 -0.2063  0.4644 -0.8936
   40MOL   C54630264   0.530   0.978   1.559  0.9183  0.5902  0.1360
   40MOL   C54730265   0.482   0.922   1.698  0.4725  0.2316 -0.6259
   40MOL   C54830266   0.374   0.811   1.680  0.3622  0.1264 -0.2428
   40MOL   N54930267   0.324   0.771   1.816  0.0356  0.5815 -0.2566
   40MOL   H55030268   0.919   1.248   2.154 -0.0486 -2.0361 -2.0001
   40MOL   H55130269   0.779   1.254   2.058 -0.4930 -1.4172  2.8547
   40MOL   H55230270   1.028   1.437   2.111  0.7342  0.6182 -0.8054
   40MOL   H55330271   1.000   1.362   1.965 -0.6392 -0.7006  0.2943
   40MOL   H55430272   0.966   1.600   1.951  1.4581 -0.7031  2.6019
   40MOL   H55530273   0.847   1.602   2.079 -0.2469  1.7408 -0.6790
   40MOL   H55630274   0.745   1.620   1.846  0.1700  0.3305  0.0224
   40MOL   H55730275   0.686   1.476   1.930  1.0977  0.9876  1.0742
   40MOL   H55830276   0.695   1.279   1.801  1.9472  0.1150  2.7118
   40MOL   H55930277   0.797   1.294   1.545 -1.7837  1.2335  1.0869
   40MOL   H56030278   0.921   1.218   1.652  0.2571 -1.0424 -1.5348
   40MOL   H56130279   0.802   1.026   1.592  0.2817  1.1390  0.0910
   40MOL   H56230280   0.732   1.061   1.735  2.1377  0.5798  0.5791
   40MOL   H56330281   0.631   1.141   1.466 -0.4151 -0.2168 -1.1893
   40MOL   H56430282   0.545   1.188   1.609  0.4627  0.3885  0.1645
   40MOL   H56530283   0.442   1.002   1.500  1.9831  0.3825 -1.5566
   40MOL   H56630284   0.583   0.901   1.503 -0.1398  0.7371 -1.0827
   40MOL   H56730285   0.566   0.874   1.749 -1.0029 -0.9007  0.8271
   40MOL   H56830286   0.445   1.003   1.760 -1.0798  0.5979 -1.9846
   40MOL   H56930287   0.424   0.737   1.618  1.0666 -0.9066  1.5091
   40MOL   H57030288   0.300   0.864   1.620  1.4287  0.9638 -0.8435
   40MOL   H57130289   0.292   0.842   1.881  4.4799  1.1434  1.5045
   40MOL   C57230290   0.315   0.645   1.865 -0.3433  0.0444  0.4179
   40MOL   O57330291   0.374   0.546   1.819  0.1529  0.5104 -0.6398
   40MOL   C57430292   0.216   0.623   1.977 -0.1298  0.2515 -0.0327
   40MOL   C57530293   0.170   0.479   1.989  1.0713 -0.1470 -0.6021
   40MOL   C57630294   0.044   0.480   2.068 -0.0211  0.1314  0.1424
   40MOL   C57730295   7.686   0.348   2.107 -0.3161  0.5591 -1.2675
   40MOL   C57830296   7.536   0.348   2.133  0.0308  1.0737  0.2812
   40MOL   O57930297   7.482   0.437   2.207  0.3959 -0.2012 -0.3106
   40MOL   N58030298   7.470   0.242   2.081 -0.1415 -0.2638  0.3094
   40MOL   C58130299   7.322   0.237   2.077  0.0751  0.4331  0.1982
   40MOL   C58230300   7.270   0.259   1.930 -0.6732 -0.1018 -0.0867
   40MOL   C58330301   7.266   0.407   1.884  1.0039  0.0347  0.0259
   40MOL   C58430302   7.215   0.415   1.740 -0.6543  0.0604  0.1541
   40MOL   C58530303   7.184   0.560   1.703  0.6354 -0.1517 -0.4978
   40MOL   C58630304   7.133   0.568   1.560 -0.4742  0.7326  0.4484
   40MOL   N58730305   7.092   0.707   1.529 -0.0306  0.1144  0.0166
   40MOL   H58830306   0.271   0.645   2.068  1.9447 -1.8592 -0.7176
   40MOL   H58930307   0.136   0.696   1.975 -0.3548  0.0210  0.5746
   40MOL   H59030308   0.162   0.431   1.892  1.5268 -2.0992  0.3069
   40MOL   H59130309   0.245   0.413   2.034 -1.0681 -1.4978  1.0730
   40MOL   H59230310   7.672   0.535   2.020  0.0617  1.4207  1.4559
   40MOL   H59330311   0.062   0.534   2.162  1.1534 -0.6356  0.3747
   40MOL   H59430312   0.019   0.315   2.202  0.3755  0.7724 -1.4892
   40MOL   H59530313   0.016   0.270   2.042  0.8202  0.8160 -0.9278
   40MOL   H59630314   7.523   0.186   2.016  0.0736 -1.3340  1.3827
   40MOL   H59730315   7.294   0.138   2.114 -1.3993  0.8207  0.1652
   40MOL   H59830316   7.275   0.311   2.141 -0.8582  0.2833 -0.2990
   40MOL   H59930317   7.323   0.196   1.859 -0.5299 -0.4451  0.3217
   40MOL   H60030318   7.171   0.215   1.918 -0.5255  0.0428 -2.0638
   40MOL   H60130319   7.366   0.449   1.897  1.4661 -1.1710  0.4570
   40MOL   H60230320   7.205   0.463   1.955 -0.8689 -2.3946  0.3812
   40MOL   H60330321   7.270   0.365   1.661 -1.7562 -0.4275 -0.3151
   40MOL   H60430322   7.121   0.360   1.742 -0.9569  0.4339 -1.8735
   40MOL   H60530323   7.109   0.599   1.772 -1.2653 -3.1232 -0.7902
   40MOL   H60630324   7.269   0.629   1.699 -0.6132  1.3646 -1.9790
   40MOL   H60730325   7.053   0.494   1.551 -1.0274  1.3693  0.1463
   40MOL   H60830326   7.213   0.544   1.489 -0.1023 -1.6844  1.6200
   40MOL   H60930327   6.993   0.723   1.543  0.2034  1.2514  0.4295
   40MOL   C61030328   7.166   0.805   1.475 -0.0023 -0.0466 -0.6038
   40MOL   O61130329   7.277   0.782   1.433  0.5988  0.0710  0.4090
   40MOL   C61230330   7.102   0.942   1.476 -0.4102 -0.1887  0.1627
   40MOL   C61330331   7.190   1.066   1.431 -0.1770 -0.3453  0.5623
   40MOL   C61430332   7.315   1.094   1.513 -0.4020  0.4193  0.1715
   40MOL   C61530333   7.398   1.221   1.499  0.2134 -0.2449  0.2351
   40MOL   C61630334   7.333   1.345   1.548  0.0660 -0.5328 -0.4038
   40MOL   O61730335   7.264   1.353   1.650 -0.2586  0.3845  0.7993
   40MOL   N61830336   7.346   1.446   1.467  0.6865  0.2861 -0.2155
   40MOL   C61930337   7.294   1.578   1.496 -0.0546  0.0073  0.4281
   40MOL   C62030338   7.138   1.595   1.479 -0.3666 -0.5373 -0.2177
   40MOL   C62130339   7.084   1.583   1.332 -0.2679 -0.7863  0.3980
   40MOL   C62230340   7.134   1.682   1.228  0.2666  0.4313 -0.0297
   40MOL   C62330341   7.042   1.679   1.103  0.1858 -0.2718  0.5154
   40MOL   C62430342   7.078   1.773   0.982 -0.1778  0.2572  0.1777
   40MOL   N62530343   7.080   1.909   1.020 -0.0652 -0.3510 -0.2714
   40MOL   H62630344   7.021   0.935   1.403 -0.6654  2.5707  0.1310
   40MOL   H62730345   7.064   0.964   1.575  0.8473  1.3934  0.3134
   40MOL   H62830346   7.226   1.045   1.330 -0.0960  0.7160  0.3707
   40MOL   H62930347   7.124   1.152   1.430  0.6982  0.3471  1.8742
   40MOL   H63030348   7.395   1.023   1.491  1.8904  2.7729  0.5599
   40MOL   H63130349   7.289   1.091   1.619 -2.3557 -2.0537 -0.3453
   40MOL   H63230350   7.450   1.232   1.404 -0.3612 -2.0557 -0.3088
   40MOL   H63330351   7.477   1.209   1.573  0.6756  3.8389  0.5096
   40MOL   H63430352   7.413   1.432   1.393  0.3880  0.2710 -0.4840
   40MOL   H63530353   7.325   1.617   1.594  0.6862  1.9326 -0.5413
   40MOL   H63630354   7.339   1.651   1.429  0.5518  0.2863  1.1298
   40MOL   H63730355   7.086   1.520   1.538 -2.2515  0.3756 -0.6996
   40MOL   H63830356   7.113   1.695   1.513  1.0557 -0.6062  1.0800
   40MOL   H63930357   6.975   1.585   1.333 -0.3719 -2.8894 -1.8310
   40MOL   H64030358   7.112   1.481   1.305 -1.7295 -1.9007  2.8974
   40MOL   H64130359   7.133   1.784   1.266  0.9922  1.1245 -1.8253
   40MOL   H64230360   7.239   1.662   1.207  0.6811  1.0461  1.4016
   40MOL   H64330361   7.058   1.585   1.051  2.0922 -0.5248  1.5251
   40MOL   H64430362   6.937   1.680   1.135 -0.1533 -0.9577 -0.5501
   40MOL   H64530363   7.022   1.745   0.893  2.0838 -0.0779 -1.1730
   40MOL   H64630364   7.182   1.752   0.957  0.5829  0.2110  3.1890
   40MOL   H64730365   7.174   1.946   1.024 -0.1301 -0.2887  0.7455
   40MOL   C64830366   6.980   1.982   1.062  0.0159 -0.3524 -0.1069
   40MOL   O64930367   6.865   1.946   1.077 -0.1789  0.5017  0.1132
   40MOL   C65030368   7.005   2.129   1.105  0.0784 -0.0564 -1.0581
   40MOL   C65130369   6.960   2.158   1.253  0.0891  0.5615 -0.4316
   40MOL   C65230370   7.043   2.086   1.359 -0.3806  0.0849  0.5688
   40MOL   C65330371   7.030   2.159   1.495 -0.1816  0.1224 -0.4984
   40MOL   C65430372   7.091   2.085   1.613  0.4790  0.3152 -0.1582
   40MOL   O65530373   7.129   1.972   1.599 -0.2068  0.2728 -0.5128
   40MOL   N65630374   7.097   2.147   1.728  0.0705 -0.1510  0.4496
   40MOL   C65730375   7.127   2.098   1.860  0.1905  0.2150 -0.0825
   40MOL   C65830376   7.266   2.036   1.872 -0.0505  0.2866  1.0202
   40MOL   C65930377   7.308   2.011   2.014 -1.1048 -0.4382 -0.0213
   40MOL   C66030378   7.438   1.929   2.026  0.7157  0.0244  0.0630
   40MOL   C66130379   7.479   1.912   2.169 -0.0777  0.6455  0.2902
   40MOL   C66230380   7.600   1.824   2.197  0.3527 -0.0948  0.6879
   40MOL   N66330381   7.618   1.780   2.337 -0.2297  0.1572  0.4410
   40MOL   H66430382   7.105   2.155   1.069  0.9571 -0.9936  0.6153
   40MOL   H66530383   6.934   2.174   1.035 -0.5007 -1.0739 -1.1290
   40MOL   H66630384   6.963   2.266   1.268  1.0073  1.0095 -3.4747
   40MOL   H66730385   6.854   2.134   1.266  0.3770 -2.8808 -3.4329
   40MOL   H66830386   7.145   2.094   1.321 -0.5748 -1.2854 -0.3072
   40MOL   H66930387   7.035   1.977   1.368 -0.5473  0.0961  0.5620
   40MOL   H67030388   6.927   2.187   1.515  0.3373  1.6990  0.0669
   40MOL   H67130389   7.053   2.265   1.490 -0.4807  0.1039 -3.3823
   40MOL   H67230390   7.047   2.235   1.728  2.4077  1.2259  0.3607
   40MOL   H67330391   7.120   2.182   1.929 -2.3675 -0.0941  0.0733
   40MOL   H67430392   7.067   2.018   1.904  0.1111 -0.3721 -1.2361
   40MOL   H67530393   7.268   1.939   1.822  0.1529  0.3695  0.8653
   40MOL   H67630394   7.338   2.093   1.813  1.8225 -3.9886 -1.0834
   40MOL   H67730395   7.225   1.969   2.069  0.4193 -3.3918  0.0872
   40MOL   H67830396   7.312   2.113   2.054  0.5868 -0.1344 -0.9147
   40MOL   H67930397   7.412   1.831   1.987  0.2559 -0.5078  1.7035
   40MOL   H68030398   7.520   1.970   1.966  1.7686 -1.5554  0.4172
   40MOL   H68130399   7.513   2.011   2.200  2.7918 -0.2166 -0.0145
   40MOL   H68230400   7.387   1.878   2.218  1.2012 -0.4576  1.9988
   40MOL   H68330401   7.690   1.873   2.160  1.1518 -1.0185  1.3983
   40MOL   H68430402   7.583   1.732   2.141 -0.4654 -0.0175  0.8051
   40MOL   H68530403   7.592   1.684   2.359 -1.2448  0.1718 -0.5955
   40MOL   C68630404   7.642   1.860   2.438  0.0893  0.0381 -0.2750
   40MOL   O68730405   7.669   1.982   2.413 -0.0026  0.3874  0.2383
   40MOL   C68830406   7.642   1.804   2.577  0.2494  0.0352 -0.6514
   40MOL   C68930407   0.065   1.840   2.652 -0.6765  1.0443  0.2452
   40MOL   C69030408   0.190   1.807   2.568 -0.7325  0.1058  0.0862
   40MOL   C69130409   0.316   1.823   2.653  0.0731 -0.1694 -0.5681
   40MOL   C69230410   0.437   1.858   2.577 -0.7483  0.2669  0.0483
   40MOL   O69330411   0.440   1.954   2.503 -0.0732 -0.4651  0.1878
   40MOL   N69430412   0.547   1.784   2.594  0.0028 -0.4809 -0.2078
   40MOL   C69530413   0.673   1.823   2.547 -0.1395 -0.3369  0.3305
   40MOL   C69630414   0.763   1.699   2.532  0.3353 -0.1012 -0.3461
   40MOL   C69730415   0.910   1.718   2.508 -0.4050 -0.4260 -0.3521
   40MOL   C69830416   0.947   1.809   2.388  0.0337 -0.5596 -0.1243
   40MOL   C69930417   1.106   1.845   2.372  0.2644 -0.8789 -0.3604
   40MOL   C70030418   1.132   1.943   2.265 -0.3404 -0.4121 -1.4038
   40MOL   N70130419   1.067   1.911   2.138 -0.6267 -0.4708 -0.1814
   40MOL   H70230420   7.562   1.852   2.633  0.2725 -0.2417 -0.3799
   40MOL   H70330421   7.638   1.695   2.574 -0.1533  0.0367 -0.1887
   40MOL   H70430422   0.066   1.948   2.670  0.6303  0.6352  2.8880
   40MOL   H70530423   0.075   1.787   2.747 -0.0565 -0.3053 -0.5714
   40MOL   H70630424   0.191   1.877   2.484  2.6179  1.1135  0.8860
   40MOL   H70730425   0.189   1.705   2.529 -2.7802  0.4704 -0.9024
   40MOL   H70830426   0.329   1.731   2.709 -2.9699 -1.0798 -1.2226
   40MOL   H70930427   0.293   1.908   2.718  0.8429  0.9993 -1.7782
   40MOL   H71030428   0.549   1.705   2.656  1.1500  1.7426  2.6947
   40MOL   H71130429   0.677   1.886   2.458  0.7584 -0.2622  0.4223
   40MOL   H71230430   0.726   1.885   2.618  0.3983 -0.3127 -0.0853
   40MOL   H71330431   0.760   1.654   2.631 -0.1304  0.2973 -0.1764
   40MOL   H71430432   0.718   1.623   2.469 -2.4496  1.1594  0.0378
   40MOL   H71530433   0.957   1.620   2.495  0.7803  0.1915 -0.8268
   40MOL   H71630434   0.954   1.755   2.601  1.7307 -1.0013 -1.0923
   40MOL   H71730435   0.932   1.756   2.294 -0.9197  2.1406 -1.5245
   40MOL   H71830436   0.881   1.896   2.384  2.0866  1.0260 -0.1914
   40MOL   H71930437   1.128   1.891   2.468  0.4550  1.4086 -1.4723
   40MOL   H72030438   1.155   1.748   2.363  0.8711 -0.7405  1.2422
   40MOL   H72130439   1.240   1.945   2.255 -0.2260  2.3205 -0.0535
   40MOL   H72230440   1.103   2.042   2.300  1.4377  0.0269 -1.1369
   40MOL   H72330441   1.104   1.835   2.082 -0.6295  1.6868 -3.2403
   40MOL   C72430442   0.976   1.986   2.078 -0.0941  0.3494 -0.0109
   40MOL   O72530443   0.929   2.090   2.129 -0.2026 -0.2973  0.2527
   40MOL   C72630444   0.905   1.933   1.956 -0.4589 -0.4003  0.2333
   40MOL   C72730445   0.787   2.011   1.903 -0.2360  0.5059 -0.3510
   40MOL   C72830446   0.685   1.938   1.816 -0.2123 -0.4132 -0.1796
   40MOL   C72930447   0.732   1.898   1.676 -1.2706 -0.4890 -0.3193
   40MOL   C73030448   0.748   2.010   1.574  0.1004  0.2103 -0.0690
   40MOL   O73130449   0.849   2.070   1.574 -0.1892  0.5697  0.4114
   40MOL   N73230450   0.646   2.026   1.491  0.3006  0.2929 -0.0699
   40MOL   C73330451   0.647   2.139   1.399 -0.7458 -0.5701  0.1048
   40MOL   C73430452   0.519   2.161   1.333 -0.5449 -0.6888 -0.0620
   40MOL   C73530453   0.499   2.287   1.242 -0.0587  0.3916  0.3232
   40MOL   C73630454   0.548   2.419   1.298 -0.0798 -0.1798  0.3177
   40MOL   C73730455   0.527   2.535   1.204 -0.1584  0.7663 -0.2290
   40MOL   C73830456   0.561   2.675   1.257 -0.2419  0.1726  0.4495
   40MOL   N73930457   0.705   2.695   1.266 -0.2995 -0.5205 -0.4925
   40MOL   H74030458   0.981   1.905   1.883  0.5088 -0.0422  1.0717
   40MOL   H74130459   0.860   1.840   1.992  1.8784 -1.1458  1.3555
   40MOL   H74230460   0.737   2.040   1.995  1.1930  1.0416  0.2673
   40MOL   H74330461   0.816   2.106   1.857  3.3331  0.2032  1.1126
   40MOL   H74430462   0.609   2.010   1.788 -0.1147 -0.0157  0.5643
   40MOL   H74530463   0.650   1.850   1.871  0.0932  1.0551  2.4481
   40MOL   H74630464   0.664   1.824   1.633  0.9910 -1.7269 -1.8363
   40MOL   H74730465   0.831   1.853   1.677  0.0468  2.2573  2.3414
   40MOL   H74830466   0.573   1.956   1.489  0.6204 -0.0252 -0.6745
   40MOL   H74930467   0.676   2.231   1.450  0.1662  0.3545 -1.9968
   40MOL   H75030468   0.732   2.129   1.331 -1.6577  1.5531 -1.4218
   40MOL   H75130469   0.483   2.065   1.298 -0.8233 -0.2403 -1.0144
   40MOL   H75230470   0.453   2.180   1.418 -0.9495 -1.4939 -0.1905
   40MOL   H75330471   0.392   2.299   1.220 -0.2481  1.4147  1.7474
   40MOL   H75430472   0.553   2.269   1.149  1.6589 -1.6100  1.6540
   40MOL   H75530473   0.498   2.431   1.395 -0.6575 -0.4158  0.0504
   40MOL   H75630474   0.655   2.419   1.321  0.2134 -2.0256 -0.9772
   40MOL   H75730475   0.558   2.521   1.101 -0.7465  1.0709 -0.4549
   40MOL   H75830476   0.421   2.523   1.182 -0.2422  1.1516 -0.0524
   40MOL   H75930477   0.515   2.685   1.355 -0.6434 -0.9155  0.3823
   40MOL   H76030478   0.523   2.755   1.194  3.3271 -0.0748 -2.1582
   40MOL   H76130479   0.719   2.795   1.272  0.0348 -0.6795  1.8487
   40MOL   H76230480   0.734   2.676   1.361 -1.3144  0.9465  0.1304
   41MOL     C130481   6.822   3.305   6.152  0.7549 -0.2899  0.5651
   41MOL     O230482   6.905   3.249   6.078 -0.3292  0.8602  0.6734
   41MOL     C330483   6.844   3.449   6.193 -0.3597  0.2775  0.5434
   41MOL     C430484   6.837   3.546   6.071 -0.2858 -0.3703 -0.3828
   41MOL     C530485   6.691   3.585   6.042  0.6425 -0.1638 -0.5100
   41MOL     C630486   6.682   3.688   5.931  0.3211  0.3136 -0.0250
   41MOL     C730487   6.698   3.617   5.794 -0.1844 -0.2891  0.3382
   41MOL     O830488   6.600   3.574   5.731 -0.1190 -0.0778 -0.4021
   41MOL     N930489   6.818   3.614   5.742  0.0933 -0.2203 -0.1303
   41MOL    C1030490   6.855   3.534   5.625 -0.6784 -0.6816 -0.5905
   41MOL    C1130491   6.965   3.439   5.671  0.2403 -0.0695 -0.2382
   41MOL    C1230492   7.039   3.363   5.559 -0.1484 -0.2944 -0.3826
   41MOL    C1330493   7.140   3.268   5.621 -0.0069 -0.1897 -0.1193
   41MOL    C1430494   7.220   3.197   5.513  0.4880 -0.2270  0.0519
   41MOL    C1530495   7.312   3.081   5.552 -0.1993  0.3332  0.2886
   41MOL    N1630496   7.404   3.036   5.445  0.0305 -0.3708 -0.1563
   41MOL    H1730497   6.778   3.481   6.273  1.5859 -0.7276  2.6206
   41MOL    H1830498   6.948   3.457   6.224 -0.6758  3.1843  1.0154
   41MOL    H1930499   6.891   3.633   6.108 -4.3303  0.6094  3.6787
   41MOL    H2030500   6.896   3.502   5.991 -1.4337  0.7365 -1.8572
   41MOL    H2130501   6.663   3.632   6.137 -1.2390 -0.6296 -0.8149
   41MOL    H2230502   6.617   3.505   6.049  0.4937  0.1487  1.9367
   41MOL    H2330503   6.760   3.762   5.948 -1.6738  2.4205  0.1168
   41MOL    H2430504   6.584   3.735   5.934  0.2171  0.1359 -0.4952
   41MOL    H2530505   6.893   3.656   5.794  0.3815 -1.5946  0.5747
   41MOL    H2630506   6.768   3.483   5.584 -0.7686 -2.3714  1.5946
   41MOL    H2730507   6.881   3.599   5.541  0.2975 -2.3874 -1.6285
   41MOL    H2830508   7.031   3.508   5.723  1.3021 -1.7069  0.6403
   41MOL    H2930509   6.921   3.363   5.736 -2.3325  1.5942  0.0362
   41MOL    H3030510   7.096   3.427   5.493 -0.3938 -0.2635 -0.5673
   41MOL    H3130511   6.967   3.305   5.500 -0.2188  0.3204 -0.8987
   41MOL    H3230512   7.206   3.323   5.689 -1.5579 -0.6909  1.8115
   41MOL    H3330513   7.083   3.197   5.680 -0.2237  0.7879  0.8683
   41MOL    H3430514   7.155   3.169   5.430  1.3203 -2.2721  0.0596
   41MOL    H3530515   7.285   3.271   5.465 -0.6725  0.0354 -1.1537
   41MOL    H3630516   7.257   2.995   5.588 -0.9534  0.5086 -0.4463
   41MOL    H3730517   7.370   3.119   5.636  0.8880  0.5670 -0.5548
   41MOL    H3830518   7.366   2.994   5.362  1.0383  1.5481 -1.6118
   41MOL    H3930519   6.730   3.252   6.172  0.6707 -0.6149 -0.6749
   41MOL    C4030520   7.534   3.073   5.441 -0.0776  0.5957  0.2676
   41MOL    O4130521   7.593   3.132   5.528 -0.5083  0.1020  0.6410
   41MOL    C4230522   7.602   3.030   5.307 -0.0220  0.6487  0.9546
   41MOL    C4330523   0.039   2.985   5.330  0.4893 -0.3243 -0.0277
   41MOL    C4430524   0.072   2.849   5.391  0.6871 -0.1568 -0.2595
   41MOL    C4530525   0.057   2.850   5.540  0.0045  0.3210  0.0500
   41MOL    C4630526   0.106   2.719   5.600 -0.2293 -0.2939  0.2912
   41MOL    O4730527   0.033   2.625   5.609  0.7293 -0.3441  0.0638
   41MOL    N4830528   0.230   2.707   5.651 -0.5893  0.3170 -0.3762
   41MOL    C4930529   0.293   2.591   5.711 -0.0520 -0.2007  0.3851
   41MOL    C5030530   0.256   2.577   5.865 -0.7215 -0.0537  0.4203
   41MOL    C5130531   0.316   2.435   5.910 -0.2995  0.1376 -0.0349
   41MOL    C5230532   0.304   2.399   6.058  0.1665  0.1425  0.4305
   41MOL    C5330533   0.378   2.265   6.082  0.0766  0.2297  1.2483
   41MOL    C5430534   0.364   2.184   6.215 -0.0319  0.1827  0.1680
   41MOL    N5530535   0.228   2.155   6.239 -0.0602  0.5502 -0.2638
   41MOL    H5630536   7.545   2.950   5.260  3.6593 -1.3015 -0.3644
   41MOL    H5730537   7.608   3.118   5.242  3.4530  1.6660  2.5421
   41MOL    H5830538   0.083   2.991   5.230 -0.0130 -1.3307 -0.3198
   41MOL    H5930539   0.107   3.058   5.375 -0.9793  2.0796 -1.5643
   41MOL    H6030540   0.174   2.837   5.355  0.9872 -2.4727  1.2629
   41MOL    H6130541   0.008   2.779   5.338  0.3998 -0.6658  0.7424
   41MOL    H6230542   7.657   2.863   5.555  0.1605 -1.5940  3.2630
   41MOL    H6330543   0.109   2.937   5.580  0.1757  0.0536  0.4092
   41MOL    H6430544   0.287   2.791   5.647  0.6032 -0.5537 -2.2826
   41MOL    H6530545   0.283   2.500   5.652 -1.9037 -1.2010  2.1717
   41MOL    H6630546   0.399   2.613   5.698 -0.4634  2.0481  0.6488
   41MOL    H6730547   0.300   2.660   5.922  1.0677 -0.7143  0.0530
   41MOL    H6830548   0.148   2.580   5.877 -0.8568  2.0591 -1.0676
   41MOL    H6930549   0.424   2.440   5.893 -0.0486 -1.1379  1.0432
   41MOL    H7030550   0.263   2.357   5.855 -0.8263  1.1955 -1.0491
   41MOL    H7130551   0.351   2.473   6.123 -1.9662  0.2150  1.9247
   41MOL    H7230552   0.199   2.397   6.085  0.1807  0.7669  0.5374
   41MOL    H7330553   0.355   2.194   6.002 -0.0760  1.7550 -0.0687
   41MOL    H7430554   0.484   2.289   6.081 -0.5655  3.3072  2.1711
   41MOL    H7530555   0.393   2.241   6.304  1.9495 -0.6212  0.0649
   41MOL    H7630556   0.426   2.095   6.218  0.3212  0.4479  1.1885
   41MOL    H7730557   0.172   2.234   6.267 -0.0250  1.3968 -2.4842
   41MOL    C7830558   0.170   2.033   6.217  0.0477  0.6822 -0.0106
   41MOL    O7930559   0.242   1.937   6.185  0.2109  0.1375  0.1880
   41MOL    C8030560   0.024   2.004   6.246  0.4126 -0.1359  0.0914
   41MOL    C8130561   0.003   1.901   6.354  0.2557  0.2395  0.6107
   41MOL    C8230562   0.025   1.950   6.498 -0.0891 -0.6539  1.2556
   41MOL    C8330563   0.024   1.842   6.613  0.1350 -0.1298 -0.0063
   41MOL    C8430564   0.059   1.898   6.746 -0.6977 -0.0495 -0.4406
   41MOL    O8530565   7.701   1.996   6.782  0.2478  0.8901 -0.0282
   41MOL    N8630566   0.158   1.836   6.819 -0.0497  0.0443 -0.0641
   41MOL    C8730567   0.233   1.879   6.931 -0.4958 -0.1419  0.0170
   41MOL    C8830568   0.170   1.846   7.063 -0.2533 -0.5402 -0.4380
   41MOL    C8930569   0.192   1.700   7.089  0.4957  0.4383 -0.5054
   41MOL    C9030570   0.150   1.663   7.236 -0.1241  0.5831  0.2315
   41MOL    C9130571   0.265   1.689   7.338  0.3853 -0.1825  0.3006
   41MOL    C9230572   0.227   1.668   7.489 -0.6295  0.2263 -0.1277
   41MOL    N9330573   0.120   1.763   7.528  0.8434  0.2893  0.4522
   41MOL    H9430574   7.667   2.087   6.273  1.3240  0.3849  0.6926
   41MOL    H9530575   7.695   1.970   6.149  1.0988 -0.1254 -0.1756
   41MOL    H9630576   7.613   1.854   6.352 -0.3763  1.5539 -0.6641
   41MOL    H9730577   0.075   1.821   6.338  1.5760  1.5700 -0.2664
   41MOL    H9830578   7.660   2.029   6.520 -0.7359 -0.3764 -1.6175
   41MOL    H9930579   0.123   1.998   6.503 -1.0615  1.4622  0.8598
   41MOL   H10030580   0.083   1.755   6.584  0.0376 -0.4475  0.7406
   41MOL   H10130581   7.629   1.811   6.629 -0.1505  0.3690 -0.8400
   41MOL   H10230582   0.197   1.764   6.759 -0.9744 -0.4970 -0.0363
   41MOL   H10330583   0.332   1.836   6.919  1.0634  3.5444 -1.0218
   41MOL   H10430584   0.254   1.986   6.923  0.2039 -0.2043  0.9216
   41MOL   H10530585   0.228   1.897   7.140  1.0140 -1.2241 -0.9208
   41MOL   H10630586   0.065   1.872   7.076 -0.5727 -1.4511 -1.0808
   41MOL   H10730587   0.298   1.675   7.079  0.6232  1.5772 -2.2099
   41MOL   H10830588   0.137   1.627   7.031  2.4187 -1.6740  0.2372
   41MOL   H10930589   0.056   1.710   7.262  0.5080  2.3048 -0.4884
   41MOL   H11030590   0.116   1.561   7.253  2.5166 -0.4599 -0.4401
   41MOL   H11130591   0.353   1.628   7.317  0.2632 -0.0717 -0.5434
   41MOL   H11230592   0.290   1.795   7.328  0.7865 -0.4322 -1.5713
   41MOL   H11330593   0.315   1.684   7.552  0.2481 -0.2794 -1.2190
   41MOL   H11430594   0.200   1.565   7.509  3.6122 -0.5590  2.1506
   41MOL   H11530595   0.027   1.732   7.505  1.2695 -1.0451  0.4999
   41MOL   C11630596   0.135   1.872   7.604 -0.2155 -0.6881 -0.2611
   41MOL   O11730597   0.248   1.910   7.644  0.6323 -0.6718 -0.2735
   41MOL   C11830598   0.010   1.948   7.632  0.0136  0.4607  0.3240
   41MOL   C11930599   7.708   2.003   0.070 -0.2278  0.1530 -0.9669
   41MOL   C12030600   7.563   2.013   0.107  0.3817  0.1180  0.2036
   41MOL   C12130601   7.544   2.065   0.251 -0.0454 -0.2496  0.0344
   41MOL   C12230602   7.556   2.214   0.278  0.4116  0.4719  0.6166
   41MOL   O12330603   7.553   2.301   0.196 -0.2569  0.4953  0.4927
   41MOL   N12430604   7.565   2.248   0.408  0.6675  0.1257 -0.1712
   41MOL   C12530605   7.573   2.384   0.467 -0.1573  0.3698 -0.2497
   41MOL   C12630606   7.635   2.392   0.611  0.0130 -0.3378 -0.5849
   41MOL   C12730607   0.064   2.343   0.622 -0.2436  0.4377 -0.4005
   41MOL   C12830608   0.149   2.413   0.726 -0.5510 -0.1718  0.0097
   41MOL   C12930609   0.299   2.409   0.684 -0.1212 -0.2426  0.9883
   41MOL   C13030610   0.396   2.456   0.797  0.4650  0.2746 -0.0535
   41MOL   N13130611   0.364   2.587   0.839  0.2161  0.4702 -0.7092
   41MOL   H13230612   0.010   2.031   7.561 -3.0921  0.0065 -0.3143
   41MOL   H13330613   7.630   1.886   7.614  0.9853 -1.4984  2.1845
   41MOL   H13430614   0.039   1.927   0.138  2.1720  0.5260 -1.9087
   41MOL   H13530615   0.045   2.101   0.080  0.0419  0.0783 -1.4686
   41MOL   H13630616   7.527   1.910   0.107  0.0960  0.2025 -1.0532
   41MOL   H13730617   7.501   2.073   0.039 -2.0742 -0.6776  1.6698
   41MOL   H13830618   7.621   2.012   0.307  1.7533  1.3955 -0.8217
   41MOL   H13930619   7.452   2.024   0.291 -0.7868  0.9684 -0.3929
   41MOL   H14030620   7.538   2.175   0.472  1.2168 -1.2771 -1.5090
   41MOL   H14130621   7.628   2.451   0.401 -0.2777 -0.5346 -1.2879
   41MOL   H14230622   7.471   2.421   0.482  0.0857  0.9368  0.0209
   41MOL   H14330623   7.634   2.498   0.636 -1.2228 -0.5651  0.3686
   41MOL   H14430624   7.563   2.343   0.677 -2.3246  1.3378 -1.7904
   41MOL   H14530625   0.122   2.357   0.530  1.9241  0.9812  1.0042
   41MOL   H14630626   0.070   2.237   0.643  0.3952  0.6145  0.3342
   41MOL   H14730627   0.124   2.518   0.742 -1.4571 -0.3577 -0.1659
   41MOL   H14830628   0.133   2.357   0.817  2.0872  0.8364  1.1637
   41MOL   H14930629   0.332   2.313   0.645 -2.3150 -0.5106 -0.2786
   41MOL   H15030630   0.305   2.481   0.602  1.2255  2.3858  3.2915
   41MOL   H15130631   0.497   2.449   0.756 -0.2407 -1.0017 -1.6347
   41MOL   H15230632   0.385   2.393   0.885  0.0322  1.9403  1.1020
   41MOL   H15330633   0.397   2.664   0.782  4.0913 -0.2247  0.3975
   41MOL   C15430634   0.281   2.626   0.938  1.2558 -0.1931 -0.3543
   41MOL   O15530635   0.216   2.546   1.002 -0.0352  0.3749  0.5142
   41MOL   C15630636   0.268   2.773   0.963  0.2572 -0.2656 -0.0959
   41MOL   C15730637   0.119   2.813   0.964 -0.1701  0.2643  0.1009
   41MOL   C15830638   0.099   2.967   0.970  0.5284  0.1361 -0.0394
   41MOL   C15930639   7.669   3.008   1.014  0.3199 -0.3484 -0.7176
   41MOL   C16030640   7.562   2.966   0.913  0.0476  0.3023 -0.3659
   41MOL   O16130641   7.567   3.008   0.794 -0.0022  0.2737  0.3653
   41MOL   N16230642   7.475   2.870   0.947  0.9609 -0.2201 -0.6433
   41MOL   C16330643   7.406   2.770   0.858  0.0401 -0.7694 -0.5762
   41MOL   C16430644   7.472   2.637   0.853 -0.1296  0.0014 -0.1366
   41MOL   C16530645   7.475   2.569   0.980  0.3301 -0.0226 -0.0076
   41MOL   C16630646   7.576   2.445   0.978  0.4402 -0.2069  0.5402
   41MOL   C16730647   7.566   2.339   1.100 -0.4468 -0.0402  0.2601
   41MOL   C16830648   7.430   2.264   1.090  0.3349  0.5129  0.5920
   41MOL   N16930649   7.407   2.167   1.198 -0.2763  0.8285 -0.1793
   41MOL   H17030650   0.324   2.809   1.049 -2.0000 -0.0237  1.2883
   41MOL   H17130651   0.311   2.833   0.882  1.3858 -0.6857  0.1907
   41MOL   H17230652   0.066   2.767   0.880 -1.0504 -0.9515  1.3077
   41MOL   H17330653   0.075   2.753   1.043 -0.0147 -2.1822 -1.5915
   41MOL   H17430654   0.125   3.012   0.874 -2.2378  0.9386 -0.4490
   41MOL   H17530655   0.167   3.021   1.035  1.1816  0.4914 -1.0174
   41MOL   H17630656   7.672   3.116   1.029 -0.1509 -0.4999  0.5441
   41MOL   H17730657   7.634   2.976   1.112  0.6007  1.7897  0.1177
   41MOL   H17830658   7.465   2.870   1.047 -1.1017 -1.1760 -0.8220
   41MOL   H17930659   7.304   2.754   0.893 -0.3031 -1.0469 -1.6987
   41MOL   H18030660   7.392   2.812   0.759 -0.2084 -1.2893 -0.7657
   41MOL   H18130661   7.408   2.578   0.787 -2.0361  1.5753  0.2369
   41MOL   H18230662   7.569   2.649   0.805 -0.0069  1.2165  0.3904
   41MOL   H18330663   7.373   2.540   1.004  0.0756 -0.0490 -1.1123
   41MOL   H18430664   7.494   2.634   1.065  0.7311  1.5082 -1.2521
   41MOL   H18530665   7.558   2.390   0.885 -1.1054 -1.5068  1.5873
   41MOL   H18630666   7.680   2.471   0.954  0.0996  0.7883  0.1442
   41MOL   H18730667   7.650   2.270   1.091 -0.8040 -0.2378 -1.8299
   41MOL   H18830668   7.572   2.394   1.194  0.5054 -2.9985  1.9841
   41MOL   H18930669   7.421   2.202   1.001 -0.1860  1.0979  0.2374
   41MOL   H19030670   7.344   2.331   1.087 -0.0815 -0.0172  0.5370
   41MOL   H19130671   7.396   2.211   1.288  0.5667 -0.4456  0.5559
   41MOL   C19230672   7.416   2.040   1.186 -0.8018 -0.6502  0.7605
   41MOL   O19330673   7.434   1.976   1.079  0.2732 -0.1494 -0.1680
   41MOL   C19430674   7.403   1.967   1.321 -0.0697  0.0685  0.6477
   41MOL   C19530675   7.521   1.877   1.364  0.0424  0.4628  0.4188
   41MOL   C19630676   7.662   1.944   1.368 -0.2345 -0.1627 -0.4259
   41MOL   C19730677   7.686   2.048   1.481  0.1011  0.3725 -0.7959
   41MOL   C19830678   0.074   2.151   1.427  0.8628 -0.3543  0.4182
   41MOL   O19930679   0.181   2.111   1.388 -1.0515  0.3825  0.3230
   41MOL   N20030680   0.044   2.282   1.421 -0.3259 -0.1655  0.1518
   41MOL   C20130681   0.130   2.386   1.364 -0.2021 -0.1847  0.2752
   41MOL   C20230682   0.078   2.524   1.406 -0.0487 -0.2345  0.8997
   41MOL   C20330683   0.165   2.637   1.360 -0.1062  0.4517 -1.0461
   41MOL   C20430684   0.095   2.770   1.399  0.9284  0.2383  0.6007
   41MOL   C20530685   0.178   2.894   1.356 -0.4400  0.2214 -0.1752
   41MOL   C20630686   0.098   3.024   1.358 -0.1404 -0.1379  0.0866
   41MOL   N20730687   0.169   3.135   1.291  0.1315 -0.9566  0.2026
   41MOL   H20830688   7.381   2.035   1.404 -0.1407  0.1785  0.5382
   41MOL   H20930689   7.316   1.901   1.325  0.7674 -1.0709  0.2101
   41MOL   H21030690   7.507   1.824   1.459 -0.7859  0.5255  0.3302
   41MOL   H21130691   7.524   1.794   1.294 -0.3630  2.9200 -2.6020
   41MOL   H21230692   7.684   1.983   1.269 -0.8351  2.5216  0.4751
   41MOL   H21330693   0.024   1.861   1.380 -0.5569 -0.5322 -1.0708
   41MOL   H21430694   0.010   1.991   1.569 -1.5563 -0.9716 -1.0480
   41MOL   H21530695   7.590   2.093   1.505  0.0039 -1.4397  2.4939
   41MOL   H21630696   7.664   2.310   1.462  0.5115  3.9787 -0.6160
   41MOL   H21730697   0.230   2.370   1.405  0.1399 -1.1419 -0.9070
   41MOL   H21830698   0.126   2.372   1.256  0.0923  0.1217  0.2249
   41MOL   H21930699   7.686   2.544   1.366 -0.4451 -0.8977  1.5376
   41MOL   H22030700   0.064   2.526   1.514 -1.9108 -0.7932  0.6979
   41MOL   H22130701   0.165   2.646   1.251 -1.3278  0.0877 -1.0891
   41MOL   H22230702   0.267   2.637   1.398 -0.2772  0.5219 -0.5815
   41MOL   H22330703   0.001   2.783   1.345  0.4721 -0.8112  1.1340
   41MOL   H22430704   0.058   2.785   1.500 -0.1321  0.3697  0.1951
   41MOL   H22530705   0.256   2.892   1.431 -1.2913 -0.5215  0.6877
   41MOL   H22630706   0.218   2.877   1.256 -1.9436 -1.6502 -0.4900
   41MOL   H22730707   0.084   3.055   1.462 -0.1024  3.0353 -0.8105
   41MOL   H22830708   7.707   3.013   1.314 -0.5348  2.0380  0.3634
   41MOL   H22930709   0.247   3.111   1.231  0.1692  1.1176 -0.5908
   41MOL   C23030710   0.127   3.261   1.293  0.3646 -0.3108  0.5423
   41MOL   O23130711   0.020   3.296   1.339  0.1477 -1.2901 -0.5940
   41MOL   C23230712   0.213   3.352   1.205  0.3679 -0.1608 -0.4062
   41MOL   C23330713   0.148   3.484   1.162 -0.4837  0.1021 -0.6581
   41MOL   C23430714   0.014   3.475   1.082 -0.0585  0.0103 -0.7066
   41MOL   C23530715   0.041   3.441   0.928 -0.4490 -1.0568 -0.5459
   41MOL   C23630716   7.618   3.443   0.853  0.6359 -0.1435  0.4546
   41MOL   O23730717   7.581   3.549   0.811  0.2602 -0.6217  0.0946
   41MOL   N23830718   7.551   3.330   0.833 -0.1739  0.7896  0.6075
   41MOL   C23930719   7.437   3.305   0.750  0.2342  0.2420 -0.5740
   41MOL   C24030720   7.320   3.251   0.831 -0.1647  0.0547 -0.4291
   41MOL   C24130721   7.191   3.231   0.747 -0.3408  0.2382  0.1790
   41MOL   C24230722   7.166   3.080   0.714 -0.1307 -1.0519 -0.2334
   41MOL   C24330723   7.228   3.042   0.573  0.5301  0.6921 -0.0679
   41MOL   C24430724   7.179   2.895   0.548  0.1539  0.0915  0.2625
   41MOL   N24530725   7.215   2.849   0.414 -0.1251 -0.7512  0.2915
   41MOL   H24630726   0.288   3.386   1.276 -0.3795  1.1392 -0.2224
   41MOL   H24730727   0.269   3.294   1.132  0.6258 -3.0533  1.9911
   41MOL   H24830728   0.133   3.541   1.254  2.0434  0.7055 -0.6029
   41MOL   H24930729   0.224   3.535   1.103  1.2211 -2.4853 -0.7422
   41MOL   H25030730   7.672   3.572   1.087 -0.9254 -0.4129 -0.9650
   41MOL   H25130731   7.651   3.400   1.117 -1.5114  1.4138 -0.5984
   41MOL   H25230732   0.093   3.346   0.914  0.3499 -0.9470  1.4690
   41MOL   H25330733   0.096   3.523   0.880  0.8149 -1.1659  0.6721
   41MOL   H25430734   7.600   3.250   0.871  0.9007  0.7249 -0.8768
   41MOL   H25530735   7.411   3.403   0.711 -3.9155 -0.0606  1.1198
   41MOL   H25630736   7.486   3.238   0.680  0.6123 -0.2983  0.1925
   41MOL   H25730737   7.352   3.159   0.881 -0.2776  0.7079  0.8858
   41MOL   H25830738   7.297   3.312   0.919 -1.2805 -1.1154  0.1106
   41MOL   H25930739   7.182   3.301   0.665 -1.1560  0.4337  0.4333
   41MOL   H26030740   7.110   3.263   0.813 -0.3439 -0.7335  0.6619
   41MOL   H26130741   7.207   3.021   0.796  1.7596 -0.5620 -0.8124
   41MOL   H26230742   7.057   3.067   0.716 -0.2711 -0.5861 -2.6409
   41MOL   H26330743   7.198   3.106   0.490 -0.7419 -0.8782 -0.8514
   41MOL   H26430744   7.337   3.050   0.579  0.4827  0.2012  1.7541
   41MOL   H26530745   7.070   2.892   0.552 -0.0140  0.7685 -2.9873
   41MOL   H26630746   7.203   2.820   0.623  0.2017 -1.6876 -1.4935
   41MOL   H26730747   7.154   2.884   0.342 -0.2315  0.8438  1.1394
   41MOL   C26830748   7.318   2.768   0.381 -0.6249 -1.0144  0.6005
   41MOL   O26930749   7.387   2.709   0.462  0.3668  0.3589 -0.1691
   41MOL   C27030750   7.335   2.739   0.230 -0.4091  0.4396 -0.6243
   41MOL   C27130751   7.453   2.649   0.183  0.7953  0.4212 -0.1759
   41MOL   C27230752   7.590   2.700   0.206 -0.0638 -0.1293 -0.8268
   41MOL   C27330753   7.704   2.611   0.160  0.4546 -0.0394  0.2364
   41MOL   C27430754   7.702   2.586   0.005 -0.5158 -0.7609  0.2436
   41MOL   O27530755   0.002   2.685   7.638  0.6281  0.3446 -0.1192
   41MOL   N27630756   0.000   2.460   7.678  0.3530 -0.0220 -0.3247
   41MOL   C27730757   7.686   2.393   7.549  0.3680  0.2905 -0.1913
   41MOL   C27830758   0.102   2.379   7.467  0.2856 -0.0030  0.6573
   41MOL   C27930759   0.082   2.306   7.336  0.3760  0.2873  0.1616
   41MOL   C28030760   0.209   2.305   7.252 -0.2568  0.1220 -0.0660
   41MOL   C28130761   0.183   2.245   7.111  1.2072 -0.2380 -0.3402
   41MOL   C28230762   0.080   2.314   7.027 -0.2313  0.0052 -0.1579
   41MOL   N28330763   0.076   2.259   6.885 -0.2524  0.3470 -0.0772
   41MOL   H28430764   7.243   2.689   0.200 -0.8029  0.5033  0.4665
   41MOL   H28530765   7.339   2.832   0.173  1.5738 -0.7915 -2.5921
   41MOL   H28630766   7.447   2.552   0.233  0.4631  0.7827  0.4923
   41MOL   H28730767   7.440   2.616   0.080  0.1633 -0.4509  0.1685
   41MOL   H28830768   7.596   2.713   0.314 -1.9790  1.6321 -0.8999
   41MOL   H28930769   7.602   2.800   0.164  3.8620  0.0034  0.4032
   41MOL   H29030770   7.703   2.512   0.205  1.5090 -0.0663  0.2156
   41MOL   H29130771   0.089   2.659   0.187  0.9920 -0.6388 -0.5231
   41MOL   H29230772   0.016   2.404   0.053 -1.3982  0.0906  0.0923
   41MOL   H29330773   7.645   2.295   7.574  0.2512  0.7421  1.3972
   41MOL   H29430774   7.611   2.447   7.492 -2.1150 -1.3998  1.3830
   41MOL   H29530775   0.147   2.477   7.455  1.9364 -0.6202  1.5556
   41MOL   H29630776   0.167   2.322   7.534  0.9260 -0.4283 -0.3237
   41MOL   H29730777   0.010   2.373   7.287  0.7405  0.1823 -0.5309
   41MOL   H29830778   0.042   2.208   7.360 -0.4851  0.4199 -0.6803
   41MOL   H29930779   0.270   2.396   7.253  3.1832 -2.1206  1.2868
   41MOL   H30030780   0.267   2.228   7.301 -0.5785 -0.9088 -1.2987
   41MOL   H30130781   0.279   2.253   7.059  1.2043 -1.2514 -0.5014
   41MOL   H30230782   0.166   2.138   7.105  4.1731 -0.7139 -1.0479
   41MOL   H30330783   0.104   2.420   7.027  0.3811 -0.1324 -1.8840
   41MOL   H30430784   7.687   2.303   7.067 -0.1601 -1.8721 -0.4161
   41MOL   H30530785   0.032   2.170   6.865  0.1687  0.0590  0.2662
   41MOL   C30630786   0.108   2.326   6.778 -0.6255 -0.4713  0.9333
   41MOL   O30730787   0.164   2.439   6.789 -0.1025 -0.1949  0.2601
   41MOL   C30830788   0.081   2.261   6.643  0.1642 -0.2393  0.7833
   41MOL   C30930789   0.063   2.358   6.524 -0.0113  0.5880 -0.2548
   41MOL   C31030790   7.625   2.406   6.509 -0.3813  0.5665 -0.4077
   41MOL   C31130791   7.581   2.480   6.383  0.1328  0.3562  0.2000
   41MOL   C31230792   7.597   2.395   6.259  0.0550 -0.6159  0.1768
   41MOL   O31330793   7.707   2.385   6.196  0.0817  0.0956  0.0701
   41MOL   N31430794   7.488   2.332   6.216 -0.0731 -1.2301 -0.1419
   41MOL   C31530795   7.490   2.251   6.096  0.4847 -0.2536  0.0705
   41MOL   C31630796   7.400   2.131   6.109  0.5965  0.5069 -1.3567
   41MOL   C31730797   7.416   2.029   5.997  0.6448  0.4600  0.6885
   41MOL   C31830798   7.330   1.909   6.014  0.0202 -0.1001  0.1516
   41MOL   C31930799   7.359   1.821   6.142  0.3720  0.1951 -0.9267
   41MOL   C32030800   7.282   1.686   6.138  0.1182 -0.3017  0.5726
   41MOL   N32130801   7.274   1.620   6.268  0.8512 -0.2997 -0.3369
   41MOL   H32230802   0.153   2.180   6.633 -0.7324 -1.3177  2.6359
   41MOL   H32330803   7.694   2.208   6.657  0.0972 -0.4144 -0.3525
   41MOL   H32430804   0.119   2.449   6.542  0.1993  0.7597 -1.6950
   41MOL   H32530805   0.121   2.321   6.439 -0.6921 -2.2472  0.4519
   41MOL   H32630806   7.613   2.480   6.588  0.3746 -0.2750  0.5222
   41MOL   H32730807   7.554   2.324   6.517 -0.6591  0.7889 -0.6388
   41MOL   H32830808   7.632   2.576   6.368  0.0748  0.3720  0.1073
   41MOL   H32930809   7.474   2.500   6.386 -0.5126 -2.8371 -0.2876
   41MOL   H33030810   7.395   2.357   6.245 -0.2328  0.7917 -2.2480
   41MOL   H33130811   7.447   2.318   6.021  0.4477 -0.1100  0.2216
   41MOL   H33230812   7.586   2.230   6.048 -0.2065  0.4780 -1.6659
   41MOL   H33330813   7.427   2.081   6.202 -0.8834 -0.6192 -1.5053
   41MOL   H33430814   7.295   2.159   6.120  0.3154 -1.0688  0.4681
   41MOL   H33530815   7.519   1.994   5.992  0.0145 -1.4992  1.3277
   41MOL   H33630816   7.398   2.063   5.895 -0.7517  0.0962  0.8141
   41MOL   H33730817   7.228   1.941   6.036  0.2773 -1.3113  3.3672
   41MOL   H33830818   7.336   1.856   5.918  1.1674  0.7524 -0.2649
   41MOL   H33930819   7.465   1.796   6.153  0.1597 -1.3545 -2.2084
   41MOL   H34030820   7.334   1.877   6.232  1.1415 -0.3255 -0.3736
   41MOL   H34130821   7.325   1.613   6.069 -3.3071 -2.8404  0.9929
   41MOL   H34230822   7.179   1.699   6.107 -0.0744  0.0329  1.3499
   41MOL   H34330823   7.188   1.638   6.318 -0.2358  0.0911 -2.3039
   41MOL   C34430824   7.373   1.544   6.317  0.0207 -0.2322 -0.5713
   41MOL   O34530825   7.480   1.530   6.269 -0.1153  0.3912  0.7859
   41MOL   C34630826   7.341   1.478   6.448 -0.2011 -0.3727 -0.8024
   41MOL   C34730827   7.462   1.415   6.531  0.6005 -0.6500 -0.1076
   41MOL   C34830828   7.545   1.512   6.616  0.6337 -0.6212  0.1917
   41MOL   C34930829   7.654   1.450   6.684 -0.2358  0.3586  0.1650
   41MOL   C35030830   7.621   1.338   6.782 -0.1430 -0.6540  0.5048
   41MOL   O35130831   7.543   1.363   6.877 -0.6032  0.1142  0.0856
   41MOL   N35230832   7.672   1.222   6.748 -0.0782 -0.0001 -0.4993
   41MOL   C35330833   7.648   1.095   6.820  0.0307  0.5527  0.1653
   41MOL   C35430834   0.067   1.046   6.899 -0.7403 -0.1035 -1.0587
   41MOL   C35530835   0.143   1.147   6.992 -0.0441 -0.1530 -0.2350
   41MOL   C35630836   0.074   1.193   7.117 -0.3797  1.5345 -0.3437
   41MOL   C35730837   0.088   1.095   7.233 -0.0494 -0.3554 -0.3422
   41MOL   C35830838   7.699   1.138   7.343  0.2427  0.0412 -0.5991
   41MOL   N35930839   7.706   1.033   7.455  0.0067 -0.0681  0.4096
   41MOL   H36030840   7.282   1.541   6.515  0.4139  0.6368 -1.1934
   41MOL   H36130841   7.286   1.394   6.407 -1.3942  1.7765 -3.6977
   41MOL   H36230842   7.418   1.330   6.583 -1.3850  0.4016 -0.0309
   41MOL   H36330843   7.529   1.380   6.453 -2.9904  0.4029 -3.8516
   41MOL   H36430844   7.482   1.562   6.690  2.6020 -1.5344  2.5596
   41MOL   H36530845   7.584   1.584   6.544 -2.1731  1.9527  1.1278
   41MOL   H36630846   0.003   1.534   6.724 -0.6796  0.0709  1.4341
   41MOL   H36730847   0.012   1.402   6.612 -1.5403 -1.0589 -0.1021
   41MOL   H36830848   0.015   1.228   6.661 -0.2654  2.9641 -0.4349
   41MOL   H36930849   7.563   1.103   6.888  1.2716 -0.0755  1.8303
   41MOL   H37030850   7.616   1.022   6.746 -1.3995  0.0815  1.2233
   41MOL   H37130851   0.045   0.953   6.951 -0.5981  0.2124 -0.4176
   41MOL   H37230852   0.144   1.018   6.828 -0.4179 -0.6680 -0.4881
   41MOL   H37330853   0.160   1.237   6.933  1.9195  1.0357  2.0315
   41MOL   H37430854   0.244   1.124   7.025  0.0848  1.6772  0.7262
   41MOL   H37530855   0.120   1.280   7.163 -0.5591  0.8849  1.0676
   41MOL   H37630856   7.674   1.204   7.108 -0.9382 -0.1443  3.5384
   41MOL   H37730857   0.067   0.995   7.194  0.7968  0.1828 -2.2029
   41MOL   H37830858   0.191   1.100   7.270 -0.4183  1.2696  0.5172
   41MOL   H37930859   7.595   1.132   7.311 -0.1850 -0.0180  0.7652
   41MOL   H38030860   0.013   1.238   7.381  0.7488 -1.0269  2.0278
   41MOL   H38130861   7.674   0.942   7.425 -0.8923  0.6248 -0.7701
   41MOL   C38230862   0.039   1.058   7.577  0.8426 -0.0937 -0.0011
   41MOL   O38330863   0.076   1.169   7.611  0.3595  0.0876  0.6308
   41MOL   C38430864   0.042   0.942   7.680 -0.0916 -0.1479 -0.4282
   41MOL   C38530865   7.615   0.887   0.012 -0.2688 -0.2326 -0.1901
   41MOL   C38630866   7.623   0.770   0.116  0.6915 -0.5707 -0.0974
   41MOL   C38730867   7.486   0.756   0.173  0.3603 -0.3802 -0.0376
   41MOL   C38830868   7.488   0.647   0.274 -0.7369  0.3819  0.4068
   41MOL   O38930869   7.553   0.665   0.377 -0.0204  0.8299 -0.2658
   41MOL   N39030870   7.422   0.537   0.247  0.1966 -0.1147  0.1820
   41MOL   C39130871   7.406   0.418   0.331 -0.4247  0.1834  0.3371
   41MOL   C39230872   7.257   0.398   0.361  0.2796  0.4063 -0.2409
   41MOL   C39330873   7.217   0.266   0.425  0.6399  0.2143  0.3515
   41MOL   C39430874   7.283   0.247   0.562  0.4129  0.5003 -0.6445
   41MOL   C39530875   7.267   0.112   0.632 -0.1285 -0.0941  0.6945
   41MOL   C39630876   7.287   0.108   0.786 -0.3035 -0.4185 -0.3023
   41MOL   N39730877   7.182   0.184   0.846  0.1629 -0.1056  0.2292
   41MOL   H39830878   0.113   0.864   7.652  0.3373 -0.6587  1.9574
   41MOL   H39930879   0.076   0.988   0.065  0.1117 -1.5067  0.1910
   41MOL   H40030880   7.563   0.971   0.058 -2.3737 -0.6033 -1.8454
   41MOL   H40130881   7.565   0.862   7.627  1.8852 -0.0319 -1.4435
   41MOL   H40230882   7.705   0.802   0.180  0.6278  2.2960 -1.3554
   41MOL   H40330883   7.660   0.678   0.072  4.3042  0.0778  1.4153
   41MOL   H40430884   7.416   0.733   0.093  0.7669 -0.2583 -0.4305
   41MOL   H40530885   7.449   0.845   0.224 -1.4476 -0.9060 -0.3996
   41MOL   H40630886   7.364   0.523   0.165  1.6879  0.1023 -0.9387
   41MOL   H40730887   7.435   0.327   0.278  0.2121  0.5990 -0.0464
   41MOL   H40830888   7.460   0.430   0.425  0.5888 -1.9444  0.0562
   41MOL   H40930889   7.228   0.482   0.424  0.5396  0.6504 -0.4448
   41MOL   H41030890   7.200   0.423   0.272 -1.6800 -0.2124  0.8016
   41MOL   H41130891   7.246   0.187   0.356 -0.8288 -0.4838  0.5282
   41MOL   H41230892   7.109   0.264   0.437  0.5811 -0.6183 -0.3397
   41MOL   H41330893   7.390   0.258   0.548  0.6599 -0.6075  0.3315
   41MOL   H41430894   7.240   0.317   0.634  1.4667  0.5664 -0.0756
   41MOL   H41530895   7.170   0.068   0.609  1.6092 -3.2479 -1.0045
   41MOL   H41630896   7.336   0.040   0.588 -1.4999 -0.8119 -0.3030
   41MOL   H41730897   7.376   0.162   0.820 -2.7881  3.6182  0.1248
   41MOL   H41830898   7.292   0.006   0.822 -3.0818 -0.8182 -0.9504
   41MOL   H41930899   7.143   0.250   0.780 -2.5622  0.3387  2.2034
   41MOL   C42030900   7.136   0.160   0.964  0.2914 -0.2116 -0.4178
   41MOL   O42130901   7.186   0.080   1.045  0.0080 -0.2032  0.1156
   41MOL   C42230902   7.010   0.234   1.005 -0.8032 -0.4257 -0.2154
   41MOL   C42330903   7.052   0.346   1.106  0.1822 -0.0340  0.8235
   41MOL   C42430904   7.123   0.469   1.041 -0.1781 -0.3451 -0.1650
   41MOL   C42530905   7.130   0.593   1.140  0.3890  0.0316  0.3801
   41MOL   C42630906   7.181   0.720   1.068 -0.3153 -0.8599  0.6521
   41MOL   O42730907   7.146   0.738   0.947 -0.4370 -0.4679  0.2008
   41MOL   N42830908   7.262   0.806   1.137  0.5087 -0.1070 -0.0273
   41MOL   C42930909   7.324   0.918   1.080 -0.5564 -0.6085 -0.0633
   41MOL   C43030910   7.447   0.968   1.147 -0.4759 -1.0746  0.3801
   41MOL   C43130911   7.520   1.075   1.066 -0.0501  0.0691  0.4438
   41MOL   C43230912   7.441   1.207   1.061 -0.2481 -0.1663 -0.3468
   41MOL   C43330913   7.348   1.239   0.943  0.1411  0.3655  0.5943
   41MOL   C43430914   7.287   1.379   0.960 -0.4218  0.0225 -1.0290
   41MOL   N43530915   7.229   1.429   0.832  0.2976  0.0554 -0.3870
   41MOL   H43630916   6.975   0.273   0.910  2.0673 -0.5200 -1.3613
   41MOL   H43730917   6.938   0.166   1.051 -0.6853  1.0789  2.3110
   41MOL   H43830918   6.965   0.386   1.157  0.7231  1.1769  0.8242
   41MOL   H43930919   7.116   0.313   1.188  0.9385 -2.3492 -0.6508
   41MOL   H44030920   7.079   0.499   0.946  3.2565 -0.1630 -1.7810
   41MOL   H44130921   7.227   0.456   1.014 -0.3987 -0.7091 -0.8384
   41MOL   H44230922   7.188   0.579   1.231  0.7720  0.7670  0.2575
   41MOL   H44330923   7.029   0.617   1.174 -0.6198  0.7480 -2.9146
   41MOL   H44430924   7.282   0.786   1.235 -0.4065 -0.3854  0.1082
   41MOL   H44530925   7.340   0.902   0.973 -1.3614 -0.6755 -0.1822
   41MOL   H44630926   7.248   0.997   1.075 -1.0835 -0.8784  2.9988
   41MOL   H44730927   7.434   1.002   1.250  2.2761 -0.2733  0.5061
   41MOL   H44830928   7.516   0.886   1.166 -0.6273 -0.7873  2.3461
   41MOL   H44930929   7.537   1.038   0.964 -0.7729 -0.1985  0.4129
   41MOL   H45030930   7.621   1.090   1.103  0.4964  0.2932 -1.0945
   41MOL   H45130931   7.378   1.222   1.149 -1.8365 -1.2028 -1.2737
   41MOL   H45230932   7.524   1.277   1.067 -2.3740  2.3673  0.2404
   41MOL   H45330933   7.401   1.212   0.851 -1.7733  0.0637 -0.4536
   41MOL   H45430934   7.265   1.168   0.937  0.9359 -0.3803 -2.1860
   41MOL   H45530935   7.367   1.436   1.008 -1.6086  0.3226  0.6080
   41MOL   H45630936   7.209   1.377   1.036 -0.6622  1.7499 -1.2074
   41MOL   H45730937   7.292   1.472   0.766  1.5006 -0.5628  0.3394
   41MOL   C45830938   7.093   1.427   0.803 -1.0062 -0.7560 -0.2364
   41MOL   O45930939   7.006   1.398   0.881  0.5778  0.4185 -0.0440
   41MOL   C46030940   7.059   1.458   0.654 -0.1079  0.6297  0.0684
   41MOL   C46130941   7.007   1.327   0.600 -0.0535  0.0732 -0.1319
   41MOL   C46230942   6.980   1.324   0.451  0.4645 -0.1829 -0.1049
   41MOL   C46330943   6.901   1.199   0.411 -0.5265  1.1151 -0.2095
   41MOL   C46430944   6.755   1.207   0.445 -0.1425 -0.3864  0.6757
   41MOL   O46530945   6.715   1.154   0.547  0.3439  0.1843  0.1356
   41MOL   N46630946   6.678   1.274   0.360  0.4059 -0.5386  0.6456
   41MOL   C46730947   6.536   1.291   0.363 -0.3839  0.0772 -0.3022
   41MOL   C46830948   6.489   1.438   0.390  0.4964 -0.5470  0.4099
   41MOL   C46930949   6.337   1.460   0.368  0.3440 -0.7207 -0.5313
   41MOL   C47030950   6.292   1.598   0.391  0.3924  0.0802 -1.1331
   41MOL   C47130951   6.269   1.629   0.538  0.1156  0.5890  0.3126
   41MOL   C47230952   6.259   1.782   0.561  0.7120 -0.3310 -0.0596
   41MOL   N47330953   6.252   1.820   0.705 -0.0499 -0.1274  0.3183
   41MOL   H47430954   6.980   1.533   0.649  0.0146  0.8163  0.7945
   41MOL   H47530955   7.140   1.495   0.592  1.3248 -1.8658  0.3914
   41MOL   H47630956   7.081   1.249   0.620  0.5687  0.2799 -1.6126
   41MOL   H47730957   6.912   1.300   0.648  0.8757 -1.8934  0.6667
   41MOL   H47830958   7.074   1.337   0.397  0.3870  3.5592  0.5622
   41MOL   H47930959   6.918   1.410   0.425 -0.5277 -0.7318  0.3948
   41MOL   H48030960   6.942   1.117   0.471 -1.5459 -0.6934 -1.9061
   41MOL   H48130961   6.901   1.182   0.304 -0.6784 -0.8723  0.0790
   41MOL   H48230962   6.725   1.295   0.273 -2.0131 -6.0116 -2.2166
   41MOL   H48330963   6.500   1.262   0.265  0.3829 -0.2485 -0.4899
   41MOL   H48430964   6.488   1.225   0.435 -0.5730  0.7646  0.2135
   41MOL   H48530965   6.502   1.457   0.496 -0.1835 -0.4132  0.4759
   41MOL   H48630966   6.560   1.505   0.342 -1.3031 -0.3932 -2.1427
   41MOL   H48730967   6.288   1.395   0.441 -3.7372  3.9677  1.1777
   41MOL   H48830968   6.311   1.428   0.267  1.0984 -0.0016 -0.9628
   41MOL   H48930969   6.360   1.668   0.343  2.1317  0.2729  1.5175
   41MOL   H49030970   6.193   1.616   0.349 -0.0237  1.0534  0.2409
   41MOL   H49130971   6.173   1.580   0.556  0.1996  0.3933  0.2267
   41MOL   H49230972   6.346   1.582   0.599 -0.4950 -0.9322 -0.0594
   41MOL   H49330973   6.176   1.822   0.503 -1.3765 -1.3390  2.1659
   41MOL   H49430974   6.345   1.833   0.517  1.0121 -0.0583  0.8317
   41MOL   H49530975   6.335   1.799   0.759 -0.7613 -3.2659  0.3003
   41MOL   C49630976   6.144   1.839   0.786 -0.0669 -0.1568  0.3547
   41MOL   O49730977   6.034   1.849   0.738 -0.6071 -0.0940  0.0048
   41MOL   C49830978   6.162   1.834   0.941 -0.0484 -0.5468  0.2143
   41MOL   C49930979   6.031   1.813   1.025  0.0671  0.1121 -0.5456
   41MOL   C50030980   6.050   1.836   1.175  0.0798  0.0466 -0.5889
   41MOL   C50130981   6.109   1.714   1.243  0.1264 -0.3094  0.6341
   41MOL   C50230982   6.138   1.731   1.387  0.0305 -0.1376  0.1018
   41MOL   O50330983   6.100   1.826   1.450 -0.4291 -0.3550 -0.9126
   41MOL   N50430984   6.190   1.618   1.438 -0.4948 -0.2662  0.2108
   41MOL   C50530985   6.215   1.589   1.575  0.1208  0.2331  0.1324
   41MOL   C50630986   6.359   1.547   1.590 -0.1153  0.3009  0.1659
   41MOL   C50730987   6.421   1.531   1.727 -0.5065 -0.2666  0.0175
   41MOL   C50830988   6.452   1.665   1.795  0.4394 -0.3086  0.4503
   41MOL   C50930989   6.440   1.658   1.945  0.0568  0.3495 -0.6728
   41MOL   C51030990   6.456   1.792   2.020  0.7146  0.4171  0.1474
   41MOL   N51130991   6.339   1.873   2.001 -0.1152  0.0750 -0.0783
   41MOL   H51230992   6.222   1.746   0.962  0.7425 -0.0867 -0.1005
   41MOL   H51330993   6.221   1.922   0.967  0.5012 -0.7151 -0.4653
   41MOL   H51430994   5.955   1.882   0.988  0.2453 -0.1221 -1.3467
   41MOL   H51530995   6.001   1.711   1.002  0.2128 -0.5614  2.0977
   41MOL   H51630996   5.959   1.873   1.223  0.5829  1.7562 -0.9124
   41MOL   H51730997   6.131   1.908   1.179  1.1076 -1.1947  1.9156
   41MOL   H51830998   6.202   1.695   1.189 -0.7341 -4.2905  0.3908
   41MOL   H51930999   6.053   1.624   1.221  1.6692 -0.4649 -3.2037
   41MOL   H52031000   6.194   1.537   1.376 -0.2745 -0.7038  0.7913
   41MOL   H52131001   6.197   1.678   1.635  0.6546  1.2220 -1.1382
   41MOL   H52231002   6.145   1.513   1.608  1.0169 -1.4924 -1.7747
   41MOL   H52331003   6.377   1.453   1.538 -2.9584 -0.1902 -0.0390
   41MOL   H52431004   6.428   1.610   1.534  0.5169  0.0818  0.6986
   41MOL   H52531005   6.518   1.482   1.730 -1.1663 -1.5409  1.3467
   41MOL   H52631006   6.360   1.467   1.791  0.4021 -1.3934 -0.2293
   41MOL   H52731007   6.555   1.691   1.775 -0.1806  1.4698 -0.5530
   41MOL   H52831008   6.405   1.750   1.746  2.2164  0.2278 -0.3387
   41MOL   H52931009   6.361   1.601   1.992  0.0558  1.8089  1.1659
   41MOL   H53031010   6.529   1.600   1.967 -0.9564 -1.0240 -0.1743
   41MOL   H53131011   6.544   1.836   1.974  0.5588  0.8741  0.2774
   41MOL   H53231012   6.489   1.779   2.123 -1.2390 -0.7956  0.6372
   41MOL   H53331013   6.331   1.930   1.918  1.5193  0.5371  0.0767
   41MOL   C53431014   6.243   1.891   2.090  0.6583  0.1056 -0.1084
   41MOL   O53531015   6.139   1.949   2.055  0.2257  0.2390  0.4709
   41MOL   C53631016   6.250   1.821   2.235 -0.2943 -0.3602  0.3311
   41MOL   C53731017   6.136   1.859   2.326  0.8088 -0.4955 -0.4150
   41MOL   C53831018   6.151   1.796   2.474 -0.2007  0.3815  0.0457
   41MOL   C53931019   6.009   1.788   2.538 -0.6110 -0.1793  0.5030
   41MOL   C54031020   5.933   1.914   2.574  0.6666  0.0820 -0.5451
   41MOL   O54131021   5.997   2.017   2.596 -0.3898 -0.0511 -0.1617
   41MOL   N54231022   5.800   1.905   2.572  0.0444 -0.0771 -0.2604
   41MOL   C54331023   5.706   2.008   2.617  0.1708 -0.0855  0.8304
   41MOL   C54431024   5.575   1.936   2.658 -0.0413 -0.3615 -0.4195
   41MOL   C54531025   5.475   2.026   2.738  0.3004  0.1710  0.1788
   41MOL   C54631026   5.341   1.959   2.767 -0.3216 -0.1057 -0.3680
   41MOL   C54731027   5.250   1.933   2.647 -0.2045 -0.3139 -0.1576
   41MOL   C54831028   5.127   1.851   2.684  0.3512  0.2602  0.1981
   41MOL   N54931029   5.159   1.711   2.716  0.6514  0.2868 -0.1553
   41MOL   H55031030   6.273   1.715   2.229 -0.2544 -0.3646  0.5574
   41MOL   H55131031   6.343   1.856   2.280  0.0001  0.3622 -0.8108
   41MOL   H55231032   6.109   1.965   2.327 -0.8253 -0.8924 -1.2001
   41MOL   H55331033   6.048   1.804   2.292 -0.3360  0.7653  0.4483
   41MOL   H55431034   6.218   1.855   2.536 -0.2351  0.9748 -0.4764
   41MOL   H55531035   6.201   1.699   2.479 -1.1201 -0.0253  1.4766
   41MOL   H55631036   6.008   1.727   2.628  0.4786  0.9116  1.2698
   41MOL   H55731037   5.942   1.733   2.472  0.2764 -0.2428 -0.3576
   41MOL   H55831038   5.758   1.824   2.528  0.0482  0.1782 -0.7396
   41MOL   H55931039   5.743   2.063   2.703  2.2574  1.8441 -1.2295
   41MOL   H56031040   5.692   2.077   2.534  4.2662  0.0097  0.1057
   41MOL   H56131041   5.533   1.886   2.571 -0.4422 -2.2122  0.8174
   41MOL   H56231042   5.602   1.858   2.729  0.4050 -0.5385 -0.7824
   41MOL   H56331043   5.459   2.123   2.690 -1.1542  0.4691  1.2302
   41MOL   H56431044   5.515   2.056   2.835 -1.3584 -0.3583  1.0471
   41MOL   H56531045   5.375   1.865   2.811  0.7176  0.5357  0.2135
   41MOL   H56631046   5.304   2.018   2.851  0.3920 -0.0716 -0.0789
   41MOL   H56731047   5.212   2.032   2.622  0.1727 -1.0924 -4.1223
   41MOL   H56831048   5.294   1.875   2.565 -0.6083  0.9410 -1.2786
   41MOL   H56931049   5.055   1.847   2.601  0.1453 -0.9321  0.4238
   41MOL   H57031050   5.082   1.896   2.772  0.6859  1.2824 -0.1393
   41MOL   H57131051   5.173   1.696   2.815 -2.6298 -0.9381  0.1622
   41MOL   C57231052   5.199   1.613   2.634  0.9453  0.7264 -0.2654
   41MOL   O57331053   5.181   1.622   2.509  0.6312 -0.0191 -0.4055
   41MOL   C57431054   5.269   1.490   2.696  0.3632 -0.3013  0.5487
   41MOL   C57531055   5.389   1.427   2.621  0.2616  0.1344 -0.4162
   41MOL   C57631056   5.501   1.522   2.570 -0.1012  0.4036  0.6215
   41MOL   C57731057   5.602   1.457   2.479 -0.6117  0.4614 -0.0346
   41MOL   C57831058   5.699   1.547   2.400  0.0314 -0.5238 -0.7768
   41MOL   O57931059   5.694   1.670   2.410 -0.7578 -0.0650  0.1268
   41MOL   N58031060   5.776   1.486   2.315  0.0679 -0.1941 -1.2283
   41MOL   C58131061   5.889   1.533   2.242  0.0229  0.3379 -0.5915
   41MOL   C58231062   5.919   1.475   2.101 -0.0304  0.0161  0.0683
   41MOL   C58331063   6.044   1.543   2.035 -0.3834 -0.0293  0.2402
   41MOL   C58431064   6.071   1.511   1.889 -0.2941  0.1073  0.0516
   41MOL   C58531065   6.064   1.361   1.845  0.1765  0.0748  0.4045
   41MOL   C58631066   5.927   1.295   1.820 -0.0489 -0.4600  0.1447
   41MOL   N58731067   5.960   1.177   1.741  0.1591 -0.7226  0.4478
   41MOL   H58831068   5.305   1.512   2.796 -0.6152 -0.0310  0.8513
   41MOL   H58931069   5.186   1.421   2.711 -0.7556  0.6151 -1.1762
   41MOL   H59031070   5.432   1.351   2.685  1.3791  0.0159 -1.2899
   41MOL   H59131071   5.362   1.379   2.526 -2.8374  1.1278 -0.1050
   41MOL   H59231072   5.562   1.573   2.645 -0.1274  1.6304 -0.1726
   41MOL   H59331073   5.462   1.602   2.508 -4.9299 -1.9368  0.4480
   41MOL   H59431074   5.546   1.405   2.402  0.8014 -0.0572 -0.7152
   41MOL   H59531075   5.653   1.384   2.542  0.4492  0.9928 -0.2585
   41MOL   H59631076   5.758   1.389   2.297  1.4660 -0.9315  0.9877
   41MOL   H59731077   5.887   1.641   2.229  1.7260  0.1484 -2.6327
   41MOL   H59831078   5.972   1.510   2.310 -2.3620 -2.4977  1.5130
   41MOL   H59931079   5.923   1.366   2.105  0.0629 -0.0392 -1.2792
   41MOL   H60031080   5.839   1.517   2.039 -0.1704  2.6447  1.9778
   41MOL   H60131081   6.130   1.541   2.101 -1.1207 -2.7392  1.1762
   41MOL   H60231082   6.017   1.648   2.044 -1.2378 -0.3539  1.5192
   41MOL   H60331083   5.993   1.562   1.832 -1.3796 -1.1776  0.3427
   41MOL   H60431084   6.164   1.556   1.856 -0.8653  3.4070  2.6281
   41MOL   H60531085   6.110   1.353   1.746  0.4184  2.8298  0.2692
   41MOL   H60631086   6.118   1.298   1.916  0.3268  0.8275  0.9570
   41MOL   H60731087   5.862   1.358   1.759 -0.5487 -1.0675  0.0440
   41MOL   H60831088   5.877   1.268   1.913  0.4310  1.9754  1.1535
   41MOL   H60931089   6.054   1.141   1.745  0.9788  1.1889 -0.9814
   41MOL   C61031090   5.869   1.121   1.662  0.4304 -0.0745 -0.2866
   41MOL   O61131091   5.747   1.159   1.660  0.7113  0.3786  0.2356
   41MOL   C61231092   5.925   1.008   1.563  0.4472 -0.4216 -0.1464
   41MOL   C61331093   5.916   1.057   1.412  0.7384  0.1497 -0.3444
   41MOL   C61431094   6.015   1.154   1.373 -0.6845  0.3992 -0.1330
   41MOL   C61531095   6.053   1.190   1.228 -0.1309 -0.7262 -0.0742
   41MOL   C61631096   6.148   1.308   1.208 -0.1696 -1.0759  0.4223
   41MOL   O61731097   6.164   1.389   1.299 -0.0532 -0.0021  0.5571
   41MOL   N61831098   6.211   1.318   1.090  0.7113 -0.2933 -0.3350
   41MOL   C61931099   6.313   1.427   1.074  0.0123  0.2254 -0.5039
   41MOL   C62031100   6.454   1.377   1.100 -0.6405 -0.2442 -0.7510
   41MOL   C62131101   6.556   1.446   1.017 -0.2697  0.2546  0.3610
   41MOL   C62231102   6.604   1.353   0.905  0.1290  0.2024 -0.1170
   41MOL   C62331103   6.512   1.340   0.781 -0.0996 -0.4017 -0.1957
   41MOL   C62431104   6.447   1.199   0.771  0.6524 -0.4044 -0.0806
   41MOL   N62531105   6.541   1.090   0.741 -0.1207  0.0079 -0.2919
   41MOL   H62631106   6.025   0.968   1.577  1.1908  1.5563  0.4153
   41MOL   H62731107   5.859   0.925   1.588  1.2746 -0.7699  0.9143
   41MOL   H62831108   5.916   0.967   1.350 -0.0288  1.3397 -2.1170
   41MOL   H62931109   5.816   1.098   1.402  1.0050  0.9482  0.2383
   41MOL   H63031110   6.108   1.134   1.426 -0.3505  0.3461 -0.7453
   41MOL   H63131111   5.973   1.243   1.422 -0.4695  0.6434 -0.3920
   41MOL   H63231112   5.961   1.207   1.172  0.1628  0.2210 -0.2727
   41MOL   H63331113   6.096   1.099   1.186 -1.8432 -2.6820  2.3020
   41MOL   H63431114   6.199   1.252   1.014 -0.6593  0.5391 -0.8662
   41MOL   H63531115   6.307   1.465   0.972 -0.7020  0.0687 -0.5239
   41MOL   H63631116   6.297   1.515   1.136 -1.8127 -0.2340 -0.2912
   41MOL   H63731117   6.488   1.375   1.204 -1.1302  1.3659 -0.5400
   41MOL   H63831118   6.450   1.269   1.090 -0.3063 -0.2092 -1.2786
   41MOL   H63931119   6.647   1.468   1.073  0.3974 -1.9768  0.2073
   41MOL   H64031120   6.517   1.534   0.966  2.1590  0.4705 -1.1862
   41MOL   H64131121   6.707   1.378   0.880  0.9576 -0.8654  2.1072
   41MOL   H64231122   6.614   1.255   0.951  0.8808  0.0630 -0.5833
   41MOL   H64331123   6.443   1.424   0.771 -1.0454 -1.2261 -0.7887
   41MOL   H64431124   6.576   1.343   0.693  0.4990  0.6279  0.2726
   41MOL   H64531125   6.375   1.203   0.689 -0.5708 -2.2704  0.8724
   41MOL   H64631126   6.383   1.184   0.858 -1.0054  4.0126 -0.4056
   41MOL   H64731127   6.615   1.100   0.673  2.6515 -1.0248  2.4479
   41MOL   C64831128   6.544   0.976   0.811  1.0384 -0.5104  0.4357
   41MOL   O64931129   6.462   0.945   0.903 -0.6173  0.1801 -0.5796
   41MOL   C65031130   6.660   0.881   0.779 -0.1446 -0.6807 -0.0894
   41MOL   C65131131   6.786   0.909   0.867 -0.1114  0.1574 -0.0674
   41MOL   C65231132   6.870   1.039   0.839  0.1901  0.4701 -0.1967
   41MOL   C65331133   6.992   1.057   0.926  0.4480  0.1672  0.6130
   41MOL   C65431134   6.956   1.095   1.066  0.2957 -0.1348 -1.2308
   41MOL   O65531135   6.946   1.012   1.154 -0.3720  0.1535 -0.7438
   41MOL   N65631136   6.937   1.224   1.092  0.6419 -0.4207 -1.0687
   41MOL   C65731137   6.940   1.291   1.227 -0.4977  0.2104  0.4304
   41MOL   C65831138   6.856   1.233   1.340 -0.1387 -0.4830 -0.5027
   41MOL   C65931139   6.868   1.324   1.461  0.3385 -0.1887 -0.1436
   41MOL   C66031140   6.803   1.281   1.587 -0.2922 -0.1642 -0.5344
   41MOL   C66131141   6.844   1.364   1.706  0.3532  0.4079  0.2727
   41MOL   C66231142   6.752   1.319   1.818  0.4509 -0.2981 -0.1317
   41MOL   N66331143   6.774   1.390   1.946 -0.2148  0.1944  0.2150
   41MOL   H66431144   6.625   0.781   0.802 -1.0248 -0.2507  0.5057
   41MOL   H66531145   6.678   0.897   0.673  1.0172 -1.5861 -0.0303
   41MOL   H66631146   6.776   0.888   0.974  1.6020 -3.7003 -0.6049
   41MOL   H66731147   6.858   0.830   0.846 -0.2763  0.4930 -1.9551
   41MOL   H66831148   6.811   1.131   0.840 -0.1329  0.2535  1.4438
   41MOL   H66931149   6.903   1.043   0.735 -2.8143  1.0204 -1.1726
   41MOL   H67031150   7.056   1.134   0.882 -0.3886  1.3470  1.4166
   41MOL   H67131151   7.045   0.963   0.914 -0.6595 -0.5033  0.8690
   41MOL   H67231152   6.930   1.294   1.020 -0.8880  0.8434  0.2600
   41MOL   H67331153   7.044   1.301   1.258 -0.6028  2.6757  0.1607
   41MOL   H67431154   6.899   1.390   1.204  0.8027  0.3807 -1.2924
   41MOL   H67531155   6.760   1.206   1.296 -0.1274 -2.0163  0.3755
   41MOL   H67631156   6.897   1.135   1.364  4.0579  0.9513 -1.3733
   41MOL   H67731157   6.834   1.427   1.448 -0.8817 -0.3810  1.4377
   41MOL   H67831158   6.974   1.326   1.487 -0.1748  0.5286  1.9715
   41MOL   H67931159   6.697   1.303   1.581  0.0991  2.2159  0.4818
   41MOL   H68031160   6.826   1.175   1.592  2.4326  0.4418  1.5115
   41MOL   H68131161   6.950   1.350   1.726  0.3194 -0.4276 -0.1055
   41MOL   H68231162   6.818   1.467   1.683 -1.3830  0.1416  0.9435
   41MOL   H68331163   6.779   1.213   1.826  2.3198  0.0708 -1.3877
   41MOL   H68431164   6.646   1.313   1.794  0.3403 -1.0844  0.5147
   41MOL   H68531165   6.784   1.489   1.933  2.5723 -0.3278 -2.0904
   41MOL   C68631166   6.791   1.331   2.063  0.6692 -0.4682  0.0368
   41MOL   O68731167   6.773   1.214   2.086 -0.1804 -0.0846 -0.5265
   41MOL   C68831168   6.832   1.420   2.184 -0.2715 -0.0876 -0.0017
   41MOL   C68931169   6.727   1.459   2.292  0.5760 -0.1170 -0.2778
   41MOL   C69031170   6.630   1.578   2.262 -0.4698 -0.7511  0.0106
   41MOL   C69131171   6.578   1.640   2.392 -0.0081  0.2303 -0.0852
   41MOL   C69231172   6.515   1.551   2.500 -0.4004  0.3952 -0.0606
   41MOL   O69331173   6.523   1.431   2.504 -0.3210 -0.2167  0.4205
   41MOL   N69431174   6.461   1.612   2.601 -0.6479 -0.4361 -0.7575
   41MOL   C69531175   6.413   1.545   2.723  0.1531  0.0652 -0.1824
   41MOL   C69631176   6.491   1.596   2.854  0.1643  0.4786 -0.2287
   41MOL   C69731177   6.645   1.597   2.837  0.0712 -0.4376 -0.1113
   41MOL   C69831178   6.729   1.640   2.964 -0.4449 -0.8791 -0.4101
   41MOL   C69931179   6.875   1.621   2.948  0.3136  0.4623  0.1156
   41MOL   C70031180   6.948   1.682   3.073  0.0383  0.1798  0.1478
   41MOL   N70131181   6.899   1.631   3.198  0.0838  0.5015  0.2094
   41MOL   H70231182   6.916   1.364   2.226 -0.4547 -1.6640 -1.6486
   41MOL   H70331183   6.876   1.511   2.143 -1.5739  0.3526 -0.4278
   41MOL   H70431184   6.673   1.365   2.309  1.5094 -0.6292 -0.0820
   41MOL   H70531185   6.779   1.464   2.387 -0.8133 -0.1591  0.5073
   41MOL   H70631186   6.553   1.534   2.198 -1.4314  0.6423  0.1693
   41MOL   H70731187   6.699   1.638   2.203 -0.2108  0.0381  1.1147
   41MOL   H70831188   6.497   1.705   2.358 -0.9760 -0.3561  1.0556
   41MOL   H70931189   6.649   1.707   2.439  0.2185 -0.0320 -0.0539
   41MOL   H71031190   6.458   1.713   2.604  1.8168 -0.3541  0.1772
   41MOL   H71131191   6.310   1.572   2.748  0.7754  1.3727  1.0716
   41MOL   H71231192   6.405   1.437   2.715  0.7749  0.1363 -1.9482
   41MOL   H71331193   6.466   1.696   2.889 -0.8289 -0.7921  2.8664
   41MOL   H71431194   6.465   1.528   2.936 -0.5401  0.6988 -0.2687
   41MOL   H71531195   6.670   1.658   2.750  2.2385  0.1888  0.9121
   41MOL   H71631196   6.676   1.494   2.818  1.6262 -0.5649  2.7407
   41MOL   H71731197   6.703   1.745   2.977 -1.7001 -1.2771  0.4094
   41MOL   H71831198   6.697   1.574   3.044 -0.6571 -0.9674 -0.5688
   41MOL   H71931199   6.896   1.514   2.950  0.6574  0.5397  0.5636
   41MOL   H72031200   6.905   1.673   2.857  0.5649  1.9517  1.0307
   41MOL   H72131201   6.947   1.791   3.078  2.2454  0.4943 -3.8483
   41MOL   H72231202   7.055   1.661   3.067 -0.1768 -0.8926  0.0616
   41MOL   H72331203   6.824   1.563   3.195 -0.9889  1.6638  0.2978
   41MOL   C72431204   6.933   1.665   3.322  0.0388  0.5170  0.4246
   41MOL   O72531205   6.882   1.603   3.421  0.5804  0.0638  1.1214
   41MOL   C72631206   7.022   1.786   3.338  0.3017  0.2935  0.0391
   41MOL   C72731207   7.061   1.829   3.488  0.1036 -0.3896  0.5229
   41MOL   C72831208   7.189   1.759   3.543  0.0994  0.1437  0.4105
   41MOL   C72931209   7.243   1.802   3.684  0.0282 -0.3590  0.3151
   41MOL   C73031210   7.302   1.946   3.684 -0.2182 -0.1365  0.0227
   41MOL   O73131211   7.234   2.045   3.675 -0.0209  0.6337  0.1596
   41MOL   N73231212   7.434   1.954   3.708 -0.1047 -0.1926  0.0581
   41MOL   C73331213   7.511   2.073   3.689  0.1931 -0.2589  0.3393
   41MOL   C73431214   7.570   2.080   3.550  0.2477 -0.4682  0.2749
   41MOL   C73531215   7.640   1.949   3.500 -0.8167  0.0511  0.2245
   41MOL   C73631216   0.059   1.901   3.578 -0.0047  0.1267  0.4284
   41MOL   C73731217   0.156   1.814   3.495  0.2347 -0.0185  0.0621
   41MOL   C73831218   0.242   1.717   3.576 -0.4511 -0.2093  0.7949
   41MOL   N73931219   0.305   1.609   3.499 -0.0392 -0.1003  0.5129
   41MOL   H74031220   7.115   1.789   3.281 -1.2986 -1.7797 -2.8204
   41MOL   H74131221   6.969   1.874   3.304 -2.1933 -1.2857 -0.2579
   41MOL   H74231222   7.078   1.936   3.498 -1.3883 -0.0609 -0.2595
   41MOL   H74331223   6.971   1.822   3.550 -2.0859  3.2954 -1.9823
   41MOL   H74431224   7.269   1.784   3.473  0.6826 -0.9136  0.6896
   41MOL   H74531225   7.180   1.651   3.532  1.4892  0.1445 -0.7721
   41MOL   H74631226   7.326   1.738   3.713  0.6259  1.6454  3.1977
   41MOL   H74731227   7.164   1.799   3.759 -0.9991  0.3951 -0.7094
   41MOL   H74831228   7.475   1.862   3.715 -0.6474 -0.4656 -0.3269
   41MOL   H74931229   7.455   2.166   3.704  0.7937  0.2721 -0.6242
   41MOL   H75031230   7.592   2.068   3.762  2.0860  0.2991 -1.6500
   41MOL   H75131231   7.496   2.115   3.477  2.1757  1.4291 -0.8157
   41MOL   H75231232   7.647   2.156   3.557 -1.2717  1.2967 -1.4640
   41MOL   H75331233   7.681   1.978   3.403  0.3197  3.5534  1.6918
   41MOL   H75431234   7.570   1.865   3.493  0.9544 -1.4357  0.0467
   41MOL   H75531235   0.106   1.989   3.621  1.9257 -0.7705  0.1800
   41MOL   H75631236   0.026   1.837   3.660 -1.2162 -0.9773 -0.8765
   41MOL   H75731237   0.093   1.756   3.427  2.0093  0.9377 -2.4887
   41MOL   H75831238   0.226   1.875   3.438  2.1915 -1.3075  1.0124
   41MOL   H75931239   0.175   1.676   3.652  0.1780  0.6534  1.8351
   41MOL   H76031240   0.309   1.781   3.633  2.6726 -2.0203 -0.7379
   41MOL   H76131241   0.355   1.542   3.556 -0.3659 -1.7718 -1.1212
   41MOL   H76231242   0.377   1.649   3.440  0.4282 -2.5357 -0.6111
   42MOL     C131243   4.403   6.868   1.922 -0.3464 -0.3106 -0.3419
   42MOL     O231244   4.491   6.788   1.955  0.4791 -0.1378  0.1412
   42MOL     C331245   4.259   6.822   1.901  0.5840  0.2344 -0.5611
   42MOL     C431246   4.194   6.789   2.032  0.1902 -0.8791 -0.8554
   42MOL     C531247   4.214   6.649   2.077  0.2624  0.2401 -0.0654
   42MOL     C631248   4.146   6.624   2.214 -0.5502  0.2968 -0.3027
   42MOL     C731249   3.988   6.616   2.214 -0.2744 -0.3448  0.3423
   42MOL     O831250   3.919   6.713   2.170 -0.0862 -0.0132 -0.1718
   42MOL     N931251   3.935   6.502   2.267 -0.1687 -0.1202 -0.4891
   42MOL    C1031252   3.797   6.467   2.282  0.0644  0.0639 -0.6963
   42MOL    C1131253   3.727   6.558   2.385  0.2511 -0.4529 -0.1248
   42MOL    C1231254   3.575   6.550   2.385  0.0944 -0.1667  0.2866
   42MOL    C1331255   3.505   6.602   2.260 -0.2005 -0.4004  0.5154
   42MOL    C1431256   3.530   6.755   2.244  0.2297  0.0803 -0.4685
   42MOL    C1531257   3.402   6.822   2.190  0.2526  0.1955 -0.2666
   42MOL    N1631258   3.401   6.971   2.200 -0.3409  0.0600  0.5618
   42MOL    H1731259   4.204   6.891   1.837  1.8629  1.8457  0.0304
   42MOL    H1831260   4.257   6.727   1.849 -1.4520 -0.2848  0.3867
   42MOL    H1931261   4.233   6.863   2.101  1.2531 -1.1374 -1.1749
   42MOL    H2031262   4.089   6.816   2.020  0.2580  0.2538  1.0296
   42MOL    H2131263   4.322   6.641   2.087  0.2169  0.5194  0.7024
   42MOL    H2231264   4.191   6.572   2.002  3.3512 -0.1716 -0.6551
   42MOL    H2331265   4.179   6.697   2.289 -1.0865  1.0156 -0.7648
   42MOL    H2431266   4.178   6.528   2.254 -0.9336 -0.0004 -0.7071
   42MOL    H2531267   3.996   6.421   2.273  1.3944  0.8141 -3.0547
   42MOL    H2631268   3.757   6.469   2.181 -0.3537 -2.3806 -0.6076
   42MOL    H2731269   3.784   6.371   2.332 -3.8673 -0.1195 -1.8928
   42MOL    H2831270   3.749   6.539   2.490  0.3425  2.5808  0.4309
   42MOL    H2931271   3.753   6.658   2.351 -0.3780  0.0419  0.8135
   42MOL    H3031272   3.546   6.619   2.464 -0.4742  1.2470 -1.1428
   42MOL    H3131273   3.539   6.449   2.405 -2.0705  0.6513  0.6737
   42MOL    H3231274   3.550   6.544   2.179  0.7322  1.4910 -0.3622
   42MOL    H3331275   3.398   6.582   2.270 -0.5734  0.3341 -1.6222
   42MOL    H3431276   3.539   6.794   2.346 -1.8446  0.7437 -0.5179
   42MOL    H3531277   3.620   6.770   2.185  0.3766 -0.2009 -0.3143
   42MOL    H3631278   3.318   6.792   2.254  2.7837 -1.7474  2.2430
   42MOL    H3731279   3.387   6.787   2.088 -0.8392 -3.6498  1.1543
   42MOL    H3831280   3.401   7.011   2.293  0.8106 -0.5379  0.8194
   42MOL    H3931281   4.412   6.974   1.899 -2.4116 -0.4620 -1.9611
   42MOL    C4031282   3.392   7.057   2.099  0.3628  0.0854  0.0418
   42MOL    O4131283   3.373   7.017   1.979 -0.8952 -0.0070  0.3065
   42MOL    C4231284   3.409   7.204   2.133  0.5514  0.5540  0.3417
   42MOL    C4331285   3.292   7.283   2.072 -0.5863  1.1663 -0.0061
   42MOL    C4431286   3.329   7.434   2.105  0.9523  0.1795  0.0659
   42MOL    C4531287   3.444   7.495   2.012  0.4428  0.0516 -0.2415
   42MOL    C4631288   3.479   7.645   2.048 -0.1770  0.5568  0.3375
   42MOL    O4731289   3.425   7.701   2.144 -0.5256  0.5733  0.3802
   42MOL    N4831290   3.579   7.695   1.972 -0.0462 -0.9485  0.4517
   42MOL    C4931291   3.605   0.137   1.975  0.5526 -0.3888  0.8428
   42MOL    C5031292   3.630   0.195   1.835 -0.2184  0.0842  0.1223
   42MOL    C5131293   3.669   0.345   1.824  0.0990 -0.5829 -0.5408
   42MOL    C5231294   3.555   0.444   1.835 -0.4166 -0.2581 -0.3814
   42MOL    C5331295   3.592   0.581   1.774  0.0064 -0.3150 -0.0330
   42MOL    C5431296   3.724   0.654   1.822 -0.5629  0.2518  0.1330
   42MOL    N5531297   3.719   0.691   1.960 -0.2687  0.4924 -0.0715
   42MOL    H5631298   3.417   7.217   2.241  0.0653  0.6584  0.3673
   42MOL    H5731299   3.502   7.242   2.090  0.8401 -1.7266 -1.1179
   42MOL    H5831300   3.266   7.270   1.966  0.7135  0.8812 -0.2965
   42MOL    H5931301   3.207   7.248   2.130  0.3952  3.1520  2.7249
   42MOL    H6031302   3.353   7.450   2.210  0.1571 -0.5362  0.3652
   42MOL    H6131303   3.240   7.491   2.079  1.8966  1.6487 -0.0058
   42MOL    H6231304   3.420   7.485   1.907  1.3729  0.5726 -0.5190
   42MOL    H6331305   3.541   7.445   2.022  0.8978  0.8030 -0.8176
   42MOL    H6431306   3.622   7.638   1.901  0.2148  1.4949 -1.4067
   42MOL    H6531307   3.519   0.194   2.011 -1.9621 -3.6443  0.1804
   42MOL    H6631308   3.692   0.165   2.034 -1.5285  4.2328  1.9816
   42MOL    H6731309   3.711   0.149   1.778 -1.4693 -0.0457 -1.5993
   42MOL    H6831310   3.541   0.182   1.773 -1.3449  2.4163  1.1802
   42MOL    H6931311   3.722   0.364   1.731 -1.7202 -2.0490 -1.9061
   42MOL    H7031312   3.744   0.378   1.896 -0.7123  0.3440 -0.1030
   42MOL    H7131313   3.469   0.411   1.776  0.5196 -1.1502 -1.2724
   42MOL    H7231314   3.535   0.448   1.942  0.4614 -0.7346 -0.1907
   42MOL    H7331315   3.600   0.580   1.665  0.1506 -0.5079 -0.0222
   42MOL    H7431316   3.507   0.643   1.802  0.9968  0.6505  0.8917
   42MOL    H7531317   3.724   0.747   1.764 -0.1512 -0.5602 -1.1893
   42MOL    H7631318   3.816   0.601   1.797 -0.1698 -0.1628  2.4192
   42MOL    H7731319   3.656   0.766   1.987 -0.1694  0.2292  0.9410
   42MOL    C7831320   3.774   0.630   2.063 -0.3749 -0.2351  0.4147
   42MOL    O7931321   3.850   0.534   2.039  0.5020 -0.3638  0.3021
   42MOL    C8031322   3.719   0.661   2.201 -0.4621  0.3770 -0.6726
   42MOL    C8131323   3.829   0.657   2.314 -0.2467 -0.1674  0.2795
   42MOL    C8231324   3.875   0.520   2.360 -1.0206  0.1002 -0.5559
   42MOL    C8331325   3.980   0.547   2.479 -0.2854  0.7880  0.5472
   42MOL    C8431326   3.904   0.583   2.607  0.1321  0.2111 -0.4771
   42MOL    O8531327   3.794   0.535   2.630  0.0829 -0.4285  0.2623
   42MOL    N8631328   3.970   0.657   2.691 -0.1121  0.0546  0.3455
   42MOL    C8731329   3.914   0.698   2.824 -0.5418 -0.7721 -0.0618
   42MOL    C8831330   3.881   0.852   2.823 -0.0136  0.3182  0.2388
   42MOL    C8931331   3.822   0.905   2.958  0.3527 -0.5920 -0.6041
   42MOL    C9031332   3.914   0.950   3.073  0.1282  0.1395 -0.1878
   42MOL    C9131333   4.021   0.849   3.122 -0.1482  0.2358 -0.0973
   42MOL    C9231334   4.078   0.893   3.258  0.3883 -0.8587  0.2277
   42MOL    N9331335   4.222   0.886   3.253 -0.5586  0.2037 -0.0373
   42MOL    H9431336   3.661   0.753   2.188  0.3594  0.9039 -0.6472
   42MOL    H9531337   3.637   0.596   2.231 -0.1951  0.7466  0.8966
   42MOL    H9631338   3.906   0.700   2.250  0.4109  0.1313  1.2781
   42MOL    H9731339   3.802   0.733   2.387 -1.8848  1.9732 -2.4353
   42MOL    H9831340   3.928   0.464   2.284 -3.0235  0.5246 -2.3270
   42MOL    H9931341   3.781   0.470   2.384 -1.8078  1.2857 -1.1204
   42MOL   H10031342   4.059   0.613   2.443  0.6504 -0.6370 -0.0855
   42MOL   H10131343   4.034   0.457   2.508 -1.8679 -0.0483  0.9557
   42MOL   H10231344   4.065   0.684   2.670 -0.2092  0.7151  0.7460
   42MOL   H10331345   3.825   0.642   2.851 -0.9939 -0.3010 -0.5689
   42MOL   H10431346   3.988   0.678   2.902  0.2939  0.7829 -0.4143
   42MOL   H10531347   3.970   0.912   2.803 -0.6531  1.1460 -0.1531
   42MOL   H10631348   3.811   0.881   2.745  0.1480  2.3071  0.7961
   42MOL   H10731349   3.754   0.830   2.999  0.4832 -0.9814 -1.0932
   42MOL   H10831350   3.753   0.988   2.940 -1.0838 -1.8882 -1.2578
   42MOL   H10931351   3.959   1.040   3.030 -0.9403  1.5095  1.4936
   42MOL   H11031352   3.851   0.982   3.156  2.7980 -1.4853  2.5817
   42MOL   H11131353   3.983   0.747   3.132  2.3049 -0.6587  0.3844
   42MOL   H11231354   4.097   0.825   3.048  1.1925 -2.3007  2.0167
   42MOL   H11331355   4.038   0.829   3.337 -0.6620 -0.5841 -0.0752
   42MOL   H11431356   4.049   0.996   3.276  1.0051 -0.5194 -0.7111
   42MOL   H11531357   4.275   0.872   3.168 -2.2376 -2.7401 -0.6358
   42MOL   C11631358   4.288   0.915   3.367  0.3867 -0.3730  0.3173
   42MOL   O11731359   4.236   0.946   3.476  0.1359  0.3029  0.1912
   42MOL   C11831360   4.439   0.900   3.356 -0.0208 -0.3201 -1.3213
   42MOL   C11931361   4.511   0.862   3.486  0.0167 -0.0746 -0.3363
   42MOL   C12031362   4.554   0.982   3.566  0.8913  0.4578  0.2509
   42MOL   C12131363   4.694   1.043   3.527 -1.2989 -0.5510  0.2191
   42MOL   C12231364   4.718   1.111   3.387  0.5838  0.3013 -0.6567
   42MOL   O12331365   4.660   1.220   3.370 -0.4407  0.7319  0.3762
   42MOL   N12431366   4.792   1.058   3.294 -0.6500  0.2214 -0.4308
   42MOL   C12531367   4.828   1.114   3.163 -0.2653  0.0290 -0.3484
   42MOL   C12631368   4.983   1.123   3.156 -0.1314  0.1690 -0.4829
   42MOL   C12731369   5.031   1.201   3.048  0.3142  0.4696  0.2146
   42MOL   C12831370   5.180   1.246   3.062  0.6533 -0.4988  0.7230
   42MOL   C12931371   5.280   1.133   3.065  0.7702  1.1556  0.1229
   42MOL   C13031372   5.299   1.062   2.927  0.3304  0.3651 -0.3472
   42MOL   N13131373   5.412   0.968   2.936 -0.2715  0.5849  0.5764
   42MOL   H13231374   4.453   0.809   3.298 -0.7550 -2.8137  2.2208
   42MOL   H13331375   4.479   0.980   3.294 -0.9261  0.0266 -1.4732
   42MOL   H13431376   4.435   0.816   3.549 -0.9189  2.1789  0.2354
   42MOL   H13531377   4.585   0.784   3.467 -0.9228 -1.3848  1.2674
   42MOL   H13631378   4.558   0.944   3.669 -2.8273  2.3042  1.1808
   42MOL   H13731379   4.473   1.055   3.571  0.6728  0.1599  1.3393
   42MOL   H13831380   4.772   0.970   3.547 -2.8530 -1.9191  1.3941
   42MOL   H13931381   4.709   1.117   3.606  0.7453 -0.7879  0.0866
   42MOL   H14031382   4.821   0.962   3.303 -0.5575  0.4489  2.2231
   42MOL   H14131383   4.789   1.058   3.079  0.0864 -0.4200 -0.2155
   42MOL   H14231384   4.791   1.216   3.164 -1.0980 -0.1929  4.3020
   42MOL   H14331385   5.014   1.184   3.240  1.1054 -0.5898 -0.3709
   42MOL   H14431386   5.020   1.020   3.159  1.4337  0.7595  0.6320
   42MOL   H14531387   4.981   1.298   3.052  1.8453  1.2242  1.7940
   42MOL   H14631388   4.994   1.159   2.954  2.6017 -0.8121 -0.1521
   42MOL   H14731389   5.212   1.319   2.988 -2.2814 -0.9021 -1.0152
   42MOL   H14831390   5.196   1.311   3.148 -0.0605 -1.2566  1.4403
   42MOL   H14931391   5.375   1.183   3.086 -0.0203  2.2213  1.2889
   42MOL   H15031392   5.265   1.060   3.145  0.8185 -1.3492 -2.0996
   42MOL   H15131393   5.325   1.135   2.850  0.3293  0.7435  0.0106
   42MOL   H15231394   5.213   1.015   2.880  0.8880  0.1335 -1.1482
   42MOL   H15331395   5.404   0.891   3.001 -1.0328 -0.1981 -0.4101
   42MOL   C15431396   5.516   0.961   2.857 -0.7420 -0.9884 -0.5614
   42MOL   O15531397   5.545   1.056   2.788 -0.6552 -0.3056  0.2449
   42MOL   C15631398   5.620   0.861   2.873 -0.3954  0.0440  0.1987
   42MOL   C15731399   5.658   0.787   2.745  0.2767  0.2647  0.1546
   42MOL   C15831400   5.557   0.675   2.715 -0.5360  0.3374  0.2267
   42MOL   C15931401   5.594   0.598   2.587 -0.3128 -0.4627 -0.9558
   42MOL   C16031402   5.475   0.529   2.524 -0.4103  0.7019 -0.1506
   42MOL   O16131403   5.371   0.589   2.505 -0.0274  0.2691  0.3430
   42MOL   N16231404   5.485   0.403   2.493 -0.3836 -0.7488 -0.0576
   42MOL   C16331405   5.387   0.317   2.439  0.3687 -0.2119 -0.1703
   42MOL   C16431406   5.432   0.261   2.298 -0.1798 -0.5687  0.2412
   42MOL   C16531407   5.328   0.185   2.215 -0.4295  0.8638 -0.2375
   42MOL   C16631408   5.222   0.270   2.144  0.1940  0.0166  1.5949
   42MOL   C16731409   5.118   0.176   2.086 -0.0143 -0.4225 -0.2132
   42MOL   C16831410   5.029   0.242   1.977  0.1501 -0.0230  0.2720
   42MOL   N16931411   4.946   0.345   2.025 -0.4793  0.7480 -0.5056
   42MOL   H17031412   5.716   0.908   2.890  0.2499 -1.9996  2.5260
   42MOL   H17131413   5.598   0.799   2.960  0.2273 -0.1554  0.2176
   42MOL   H17231414   5.666   0.847   2.655 -0.2087 -0.4103 -0.3468
   42MOL   H17331415   5.760   0.751   2.742  0.5460  1.0870 -0.7701
   42MOL   H17431416   5.465   0.733   2.706  0.5845  2.1835  0.3898
   42MOL   H17531417   5.550   0.609   2.801 -0.9882 -0.2028 -0.2281
   42MOL   H17631418   5.672   0.526   2.614 -0.8161 -0.6263  0.0571
   42MOL   H17731419   5.638   0.673   2.521  0.8414 -0.4395 -0.1837
   42MOL   H17831420   5.569   0.356   2.522 -0.7353 -1.2573  0.1307
   42MOL   H17931421   5.374   0.230   2.502  1.2916 -0.8593 -0.8624
   42MOL   H18031422   5.287   0.362   2.442 -0.8332 -2.8320  0.5992
   42MOL   H18131423   5.467   0.351   2.246 -1.5332  0.1753  0.5802
   42MOL   H18231424   5.529   0.216   2.320 -0.1379 -1.0830 -0.9762
   42MOL   H18331425   5.276   0.109   2.274 -2.3237  0.9050 -1.8341
   42MOL   H18431426   5.383   0.123   2.144  1.0821 -0.6070  2.1341
   42MOL   H18531427   5.171   0.334   2.216  1.8396  2.3420  0.7344
   42MOL   H18631428   5.262   0.346   2.076 -1.2068 -0.1132  0.5967
   42MOL   H18731429   5.159   0.095   2.027 -1.1841  0.7065 -2.6670
   42MOL   H18831430   5.060   0.123   2.161  1.9809 -1.4110  0.6650
   42MOL   H18931431   4.960   0.166   1.938 -1.2780  1.3383  0.0775
   42MOL   H19031432   5.097   0.281   1.902  0.4774 -0.1931  0.4834
   42MOL   H19131433   4.932   0.344   2.125 -1.2370 -1.6260 -0.6028
   42MOL   C19231434   4.851   0.399   1.955 -0.2748 -0.5258 -0.8884
   42MOL   O19331435   4.844   0.395   1.834 -0.2571 -0.5064 -0.0706
   42MOL   C19431436   4.742   0.475   2.032 -0.0873 -0.3000  0.4184
   42MOL   C19531437   4.717   0.440   2.180 -0.3671 -0.5323  0.3828
   42MOL   C19631438   4.669   0.293   2.206  0.6750  0.4469 -0.0826
   42MOL   C19731439   4.708   0.235   2.339  0.5179 -0.1319  0.1610
   42MOL   C19831440   4.854   0.203   2.353 -0.3836  0.2250 -0.0486
   42MOL   O19931441   4.934   0.292   2.332 -0.1136 -0.1784 -0.0731
   42MOL   N20031442   4.891   0.079   2.396  0.1578 -0.1862 -0.5801
   42MOL   C20131443   5.024   0.035   2.418 -0.0735  0.6272  0.1595
   42MOL   C20231444   5.020   7.671   2.556  0.1891  0.6385  0.0416
   42MOL   C20331445   5.147   7.587   2.581 -0.3116  0.1319 -1.7283
   42MOL   C20431446   5.279   7.650   2.520  0.3893  0.6479 -0.5170
   42MOL   C20531447   5.410   7.577   2.565  0.4765 -0.1645  0.0943
   42MOL   C20631448   5.437   7.448   2.491  0.6944 -0.3072  0.1497
   42MOL   N20731449   5.552   7.376   2.551  0.1661  0.1546  1.1993
   42MOL   H20831450   4.774   0.579   2.025  0.1601 -0.4780 -1.4343
   42MOL   H20931451   4.650   0.473   1.973  1.5694 -0.7744 -2.2040
   42MOL   H21031452   4.804   0.465   2.241  0.4674  1.2138 -1.4400
   42MOL   H21131453   4.647   0.520   2.202  0.7805  0.5280  0.2736
   42MOL   H21231454   4.705   0.225   2.129 -0.8299 -0.4730  0.0050
   42MOL   H21331455   4.560   0.291   2.206  0.6409 -0.8013  2.6179
   42MOL   H21431456   4.654   0.141   2.356  0.3641  0.4109  2.9719
   42MOL   H21531457   4.692   0.307   2.419 -1.2647 -1.4203  0.9905
   42MOL   H21631458   4.818   0.010   2.411  0.4112 -0.8866 -2.4160
   42MOL   H21731459   5.065   7.674   2.343  0.8868 -0.3726  1.5640
   42MOL   H21831460   5.099   0.113   2.430  0.5066  0.4325 -1.9571
   42MOL   H21931461   4.987   0.028   2.637 -0.8816  0.1634 -0.0024
   42MOL   H22031462   4.935   7.603   2.562  1.2637 -0.6083  1.8139
   42MOL   H22131463   5.139   7.488   2.535  1.7407 -1.4171  1.0936
   42MOL   H22231464   5.152   7.552   2.684 -0.0166  2.4172 -0.9499
   42MOL   H22331465   5.265   7.641   2.412  0.4266  1.7852 -0.6266
   42MOL   H22431466   5.290   0.048   2.545 -1.5889  0.4854  1.1552
   42MOL   H22531467   5.495   7.642   2.542  0.9869 -1.6789 -2.4482
   42MOL   H22631468   5.407   7.560   2.672 -0.9902 -0.1870  0.0631
   42MOL   H22731469   5.454   7.463   2.384  2.1454 -1.4657  0.2025
   42MOL   H22831470   5.353   7.379   2.496  1.7214 -1.6470 -0.4095
   42MOL   H22931471   5.583   7.408   2.642  0.2515  1.4721  0.7133
   42MOL   C23031472   5.629   7.284   2.494  0.6745 -0.0975 -0.0613
   42MOL   O23131473   5.616   7.266   2.375 -0.2564 -0.2246 -0.4514
   42MOL   C23231474   5.740   7.222   2.573  0.0087  0.5373  0.2452
   42MOL   C23331475   5.755   7.074   2.562  0.7106 -0.5167  0.1140
   42MOL   C23431476   5.724   7.002   2.689  0.2173 -0.4606  0.9207
   42MOL   C23531477   5.748   6.854   2.676 -0.2931 -0.7493 -0.3142
   42MOL   C23631478   5.725   6.779   2.803  0.2931 -0.3138 -0.1216
   42MOL   O23731479   5.628   6.808   2.867  0.2368  0.1829  0.3549
   42MOL   N23831480   5.818   6.686   2.839  0.2820  0.2409  0.5522
   42MOL   C23931481   5.834   6.622   2.968 -0.1802 -0.3098 -0.1536
   42MOL   C24031482   5.954   6.692   3.034 -0.1499  0.0113 -0.4733
   42MOL   C24131483   6.087   6.667   2.969  0.0197 -0.4628  0.1321
   42MOL   C24231484   6.198   6.762   2.993 -0.1016 -0.4765 -0.0979
   42MOL   C24331485   6.226   6.863   2.873 -0.5829  0.5381 -0.2427
   42MOL   C24431486   6.119   6.961   2.848 -0.3412  0.0024  0.2362
   42MOL   N24531487   6.156   7.077   2.774 -0.5205  0.2200  0.5413
   42MOL   H24631488   5.829   7.270   2.531 -0.1756  0.1356 -0.6259
   42MOL   H24731489   5.742   7.243   2.680  0.2910 -0.0133  0.3505
   42MOL   H24831490   5.698   7.044   2.474  1.6349 -0.0914 -0.6365
   42MOL   H24931491   5.857   7.055   2.530  0.2058 -1.6170 -0.8660
   42MOL   H25031492   5.623   7.026   2.724  0.1008 -0.8029  0.8237
   42MOL   H25131493   5.792   7.045   2.763 -1.8003 -0.7292  2.9865
   42MOL   H25231494   5.851   6.847   2.643 -0.1180  0.4540 -0.0425
   42MOL   H25331495   5.690   6.819   2.591  0.9105 -2.2057 -0.5446
   42MOL   H25431496   5.900   6.673   2.781  0.2184  2.7989 -0.1641
   42MOL   H25531497   5.755   6.650   3.037 -0.6169  1.7315 -1.4619
   42MOL   H25631498   5.850   6.514   2.958  3.2390  0.1679 -0.6447
   42MOL   H25731499   5.946   6.800   3.035  3.8757  0.4119 -2.2888
   42MOL   H25831500   5.957   6.669   3.141 -2.4837  0.9163 -0.1903
   42MOL   H25931501   6.079   6.646   2.862  3.1946 -1.2133 -0.0097
   42MOL   H26031502   6.125   6.569   2.996  0.7655  0.0289  0.9004
   42MOL   H26131503   6.180   6.816   3.086 -0.2759  1.3165 -1.1511
   42MOL   H26231504   6.283   6.697   3.013 -0.1024 -0.5508 -0.3338
   42MOL   H26331505   6.310   6.924   2.904 -1.3972  1.2347  0.6547
   42MOL   H26431506   6.265   6.804   2.790  2.6618 -1.1775  2.3741
   42MOL   H26531507   6.078   6.992   2.944  0.2094 -0.1584  0.5272
   42MOL   H26631508   6.041   6.916   2.787  0.5545  1.2858 -1.9477
   42MOL   H26731509   6.112   7.162   2.805 -3.2929 -0.9108 -0.1434
   42MOL   C26831510   6.229   7.087   2.660 -0.0564 -0.1791 -0.2584
   42MOL   O26931511   6.271   6.987   2.613 -0.5096  0.2607  0.2210
   42MOL   C27031512   6.250   7.225   2.600 -0.2916 -0.4041  0.2032
   42MOL   C27131513   6.178   7.233   2.467 -0.2887 -0.2974  0.1394
   42MOL   C27231514   6.207   7.369   2.391 -0.0382 -0.6741  0.1679
   42MOL   C27331515   6.128   7.392   2.261  0.1942 -0.2288  0.2733
   42MOL   C27431516   6.128   7.539   2.210  0.0670  0.1654  0.0509
   42MOL   O27531517   6.152   7.632   2.284  0.0244  0.1404 -0.3885
   42MOL   N27631518   6.091   7.564   2.085  0.0540  0.2577 -0.0241
   42MOL   C27731519   6.075   7.689   2.018  0.5832 -0.2405  0.1024
   42MOL   C27831520   6.043   7.669   1.875 -0.1158 -0.3575 -0.6815
   42MOL   C27931521   5.900   7.633   1.850  0.7428  0.0514  0.9355
   42MOL   C28031522   5.871   7.631   1.705  0.0505 -0.0918 -0.0603
   42MOL   C28131523   5.727   7.611   1.675  0.4965  0.3557  0.1817
   42MOL   C28231524   5.684   7.663   1.536  0.7545 -0.4382  0.2838
   42MOL   N28331525   5.742   7.600   1.415 -0.4912  0.1557  0.1672
   42MOL   H28431526   6.209   7.299   2.668  1.5756 -0.9605  1.9817
   42MOL   H28531527   6.356   7.249   2.591 -0.1218 -1.1200  0.2270
   42MOL   H28631528   6.197   7.139   2.414 -3.6441 -0.8896 -0.1195
   42MOL   H28731529   6.070   7.231   2.480 -0.1711 -1.2874  1.0892
   42MOL   H28831530   6.312   7.389   2.371  0.8774 -3.4856  1.7875
   42MOL   H28931531   6.172   7.450   2.454  0.1036 -1.6954  1.5950
   42MOL   H29031532   6.022   7.371   2.270 -0.3737  2.8087  1.4048
   42MOL   H29131533   6.155   7.330   2.175  0.6411  0.1033  0.1684
   42MOL   H29231534   6.059   7.480   2.039  1.7261  0.5926 -1.8601
   42MOL   H29331535   6.008   0.053   2.066 -2.4782 -2.9676  0.0549
   42MOL   H29431536   6.178   0.018   2.016 -0.3451  2.5730  1.1246
   42MOL   H29531537   6.073   0.050   1.819 -0.5111  0.1070 -0.1456
   42MOL   H29631538   6.110   7.593   1.834 -0.1508 -1.5131  1.3847
   42MOL   H29731539   5.836   7.707   1.898 -1.3611 -0.9950 -0.2045
   42MOL   H29831540   5.873   7.540   1.899 -0.7969  0.7122  1.3806
   42MOL   H29931541   5.905   0.006   1.644  3.1058 -1.6942 -0.6054
   42MOL   H30031542   5.923   7.545   1.663 -0.6884  0.3366 -1.8854
   42MOL   H30131543   5.692   7.508   1.684 -0.5369  0.6559 -0.4445
   42MOL   H30231544   5.664   7.673   1.739 -1.0847 -0.8144 -0.2295
   42MOL   H30331545   5.703   0.059   1.512  0.3474 -0.6132 -0.8566
   42MOL   H30431546   5.576   7.648   1.536  0.3111  2.0557 -3.9194
   42MOL   H30531547   5.823   7.633   1.364 -0.6677 -0.9445 -0.8485
   42MOL   C30631548   5.705   7.488   1.366 -0.1611  0.1594  0.7242
   42MOL   O30731549   5.596   7.430   1.392  0.1411  0.3612  0.0410
   42MOL   C30831550   5.809   7.428   1.262  0.3703 -0.0972 -0.0321
   42MOL   C30931551   5.755   7.418   1.117 -0.2231  0.0618  0.4976
   42MOL   C31031552   5.758   7.546   1.031 -0.5614 -0.5743  0.3390
   42MOL   C31131553   5.901   7.582   0.992  0.2474 -0.2639  0.3690
   42MOL   C31231554   5.922   7.659   0.862  0.0548  0.3474  0.0527
   42MOL   O31331555   5.916   7.591   0.761  0.4576 -0.0818  0.0415
   42MOL   N31431556   5.941   0.082   0.867  0.6205  0.1741  0.6846
   42MOL   C31531557   5.947   0.190   0.767  0.4541  0.5190  0.1466
   42MOL   C31631558   6.092   0.217   0.729 -0.0842  0.3382 -0.2353
   42MOL   C31731559   6.114   0.358   0.682 -1.0262  0.4328  0.1825
   42MOL   C31831560   6.270   0.388   0.661  0.2812  0.2351 -0.3602
   42MOL   C31931561   6.291   0.508   0.576  0.0802 -0.6763  0.9563
   42MOL   C32031562   6.439   0.525   0.550 -0.3775 -0.2208 -0.7042
   42MOL   N32131563   6.478   0.656   0.494 -0.3645 -0.4630 -0.3052
   42MOL   H32231564   5.913   7.461   1.269  0.6570 -1.5592  3.2004
   42MOL   H32331565   5.825   7.326   1.295 -1.9529 -0.5052 -0.1120
   42MOL   H32431566   5.821   7.345   1.069 -0.6675 -0.1820  0.2499
   42MOL   H32531567   5.657   7.373   1.102 -0.1874 -0.4753  1.8025
   42MOL   H32631568   5.714   7.625   1.091 -1.6291 -0.9684  0.0951
   42MOL   H32731569   5.700   7.534   0.939  1.0534  2.2055 -1.0821
   42MOL   H32831570   5.965   7.494   0.985 -0.1752 -0.5686  0.2994
   42MOL   H32931571   5.939   7.636   1.079 -2.5456  0.6291  1.1125
   42MOL   H33031572   5.953   0.113   0.963 -0.1347 -0.9499  1.1512
   42MOL   H33131573   5.885   0.169   0.680  2.7774  1.4835 -1.8248
   42MOL   H33231574   5.910   0.276   0.823  1.6860 -0.0196  1.8089
   42MOL   H33331575   6.153   0.204   0.819  0.0065 -2.1079 -0.6297
   42MOL   H33431576   6.149   0.144   0.672  0.9416  0.5608  0.4836
   42MOL   H33531577   6.083   0.421   0.765 -2.2662 -1.5505  1.2655
   42MOL   H33631578   6.059   0.384   0.591  1.5757 -0.8280 -1.8002
   42MOL   H33731579   6.318   0.397   0.759 -0.4594 -2.6718  0.3052
   42MOL   H33831580   6.327   0.312   0.609  2.2612  1.2065  0.3378
   42MOL   H33931581   6.240   0.513   0.480 -0.3098  1.6789  1.2567
   42MOL   H34031582   6.258   0.600   0.626  2.3469 -0.4203  2.0660
   42MOL   H34131583   6.489   0.441   0.502  0.7730  0.4037 -0.6047
   42MOL   H34231584   6.483   0.531   0.650 -0.7545 -0.6370 -0.5111
   42MOL   H34331585   6.404   0.722   0.472  0.4402  1.0421  1.3603
   42MOL   C34431586   6.593   0.694   0.437  0.0664  0.9440  0.3075
   42MOL   O34531587   6.695   0.621   0.441 -0.2621 -0.2938  0.0706
   42MOL   C34631588   6.604   0.835   0.378  0.2321  0.1529  0.1776
   42MOL   C34731589   6.627   0.847   0.227  1.1774 -0.3655  0.6614
   42MOL   C34831590   6.671   0.991   0.185 -0.0903 -0.4669 -0.2584
   42MOL   C34931591   6.607   1.045   0.062 -0.0300  0.4678 -0.3287
   42MOL   C35031592   6.633   1.188   0.021 -0.8818 -1.0623 -0.0697
   42MOL   O35131593   6.732   1.254   0.055 -0.2277  0.1974  0.1519
   42MOL   N35231594   6.542   1.245   7.647  0.1895  0.1310  0.1129
   42MOL   C35331595   6.531   1.384   7.602  0.4298 -0.0888 -0.2153
   42MOL   C35431596   6.467   1.471   7.701 -0.2350 -0.7740  0.0189
   42MOL   C35531597   6.413   1.614   7.653 -0.5791 -0.0616  0.6843
   42MOL   C35631598   6.377   1.704   0.062  0.1215 -0.1527 -0.0817
   42MOL   C35731599   6.328   1.848   0.029  0.0329  0.7508  0.1992
   42MOL   C35831600   6.355   1.940   0.148  0.4845  0.3799 -0.2376
   42MOL   N35931601   6.295   2.071   0.114  0.2857 -0.0447 -0.0258
   42MOL   H36031602   6.513   0.893   0.391 -0.4756 -0.8451 -0.2429
   42MOL   H36131603   6.680   0.890   0.433 -0.0853  1.4780 -0.6744
   42MOL   H36231604   6.703   0.774   0.199  0.3424 -1.1017  0.3027
   42MOL   H36331605   6.528   0.838   0.184  0.1918  0.5322  2.6644
   42MOL   H36431606   6.780   0.997   0.184  0.0308 -2.3702 -0.1055
   42MOL   H36531607   6.632   1.056   0.263 -0.1794  0.3417 -0.9554
   42MOL   H36631608   6.502   1.021   0.051 -0.2424  0.2516  1.8576
   42MOL   H36731609   6.650   0.995   7.683 -2.0109 -1.6972 -0.0919
   42MOL   H36831610   6.463   1.184   7.627  1.2482 -1.4007  0.4729
   42MOL   H36931611   6.632   1.411   7.571  1.6953 -0.0706  3.6672
   42MOL   H37031612   6.463   1.375   7.516  2.3652 -1.2836 -1.6429
   42MOL   H37131613   6.386   1.416   0.041  0.9597 -1.2886  1.4710
   42MOL   H37231614   6.539   1.483   0.074 -0.7807  2.4531  0.0990
   42MOL   H37331615   6.339   1.596   7.575 -1.5151  0.8655  1.3556
   42MOL   H37431616   6.489   1.673   7.601  0.3060 -1.0467  0.8391
   42MOL   H37531617   6.314   1.651   0.133  0.5379 -1.0694 -0.3885
   42MOL   H37631618   6.465   1.716   0.124  0.8614 -2.1212 -0.7283
   42MOL   H37731619   6.386   1.878   7.650  0.1469  0.1341  0.0622
   42MOL   H37831620   6.223   1.853   7.706  0.1867  2.1777 -0.1519
   42MOL   H37931621   6.463   1.951   0.155  0.4685  0.2156  0.3714
   42MOL   H38031622   6.312   1.891   0.236 -0.4479 -0.1438 -0.9686
   42MOL   H38131623   6.225   2.067   0.041  0.4338  0.1238 -0.1771
   42MOL   C38231624   6.324   2.192   0.161  0.5912  0.6325 -0.0186
   42MOL   O38331625   6.410   2.220   0.247  0.4773  0.4252 -0.1839
   42MOL   C38431626   6.241   2.308   0.094 -0.2217 -0.1437 -0.2836
   42MOL   C38531627   6.212   2.427   0.182  0.6656  0.2796  0.3956
   42MOL   C38631628   6.322   2.511   0.235 -0.0411  0.2991  0.0672
   42MOL   C38731629   6.269   2.646   0.290  0.2311  1.0159 -0.1527
   42MOL   C38831630   6.376   2.751   0.331  0.3113 -0.2632 -1.2545
   42MOL   O38931631   6.488   2.714   0.345 -0.7032  0.0138  0.0173
   42MOL   N39031632   6.336   2.877   0.344 -0.0748  0.2618 -0.4488
   42MOL   C39131633   6.419   2.997   0.357  0.6397  0.5110 -0.9332
   42MOL   C39231634   6.407   3.078   0.224 -0.3655  0.2758 -0.0261
   42MOL   C39331635   6.513   3.185   0.231  0.4021  0.2103 -0.3298
   42MOL   C39431636   6.503   3.291   0.123 -0.2644  0.2456  0.1035
   42MOL   C39531637   6.572   3.240   7.706 -0.5263  0.5914 -0.0064
   42MOL   C39631638   6.585   3.342   7.589  0.1162 -0.5753 -0.2449
   42MOL   N39731639   6.681   3.303   7.489 -0.1374 -0.4123  0.5011
   42MOL   H39831640   6.283   2.342   7.708 -1.1247  0.7688 -0.3773
   42MOL   H39931641   6.149   2.256   0.068 -0.0162 -0.3374 -0.6257
   42MOL   H40031642   6.151   2.492   0.120  1.1391  1.4583  1.1639
   42MOL   H40131643   6.139   2.393   0.256  0.7109 -0.2032  0.2189
   42MOL   H40231644   6.402   2.523   0.162 -0.2853 -0.6204 -0.3653
   42MOL   H40331645   6.376   2.461   0.317 -0.7440 -1.2145 -0.3679
   42MOL   H40431646   6.190   2.651   0.366  2.4564  0.1480  2.2847
   42MOL   H40531647   6.214   2.697   0.211 -0.3145 -1.0905 -1.1670
   42MOL   H40631648   6.237   2.890   0.359 -0.0127 -0.7612  1.0365
   42MOL   H40731649   6.377   3.057   0.439  1.0502 -0.3467 -0.0891
   42MOL   H40831650   6.522   2.968   0.374  0.6784  1.4134  0.4563
   42MOL   H40931651   6.425   3.017   0.135 -0.6905 -0.7518  0.6019
   42MOL   H41031652   6.305   3.114   0.214 -1.1102 -0.7522  3.1689
   42MOL   H41131653   6.611   3.141   0.246  0.6912  0.9920  0.0852
   42MOL   H41231654   6.481   3.241   0.320  0.5980 -0.8775  0.4363
   42MOL   H41331655   6.400   3.307   0.091 -0.4362 -1.7925 -0.4905
   42MOL   H41431656   6.548   3.384   0.157  3.2505 -1.8182  1.4492
   42MOL   H41531657   6.668   3.194   0.022 -0.6407  0.5586  0.3943
   42MOL   H41631658   6.509   3.159   7.671  0.3980 -0.2150  0.1846
   42MOL   H41731659   6.633   3.434   7.624 -2.1354 -0.0191  1.5355
   42MOL   H41831660   6.485   3.359   7.549  0.0091 -0.2762  0.1420
   42MOL   H41931661   6.771   3.346   7.502 -0.1146 -0.5629  0.8640
   42MOL   C42031662   6.654   3.231   7.383 -0.1441  0.4702  0.0368
   42MOL   O42131663   6.547   3.181   7.357 -0.1309  0.0129 -0.4914
   42MOL   C42231664   6.768   3.191   7.296 -0.3603  0.1386  0.7067
   42MOL   C42331665   6.790   3.036   7.269 -0.0902  0.8384 -0.1156
   42MOL   C42431666   6.935   2.979   7.286  0.3863  0.1350  0.1532
   42MOL   C42531667   7.044   3.067   7.217 -0.3049  0.2725  0.6906
   42MOL   C42631668   7.165   2.975   7.190 -0.7963  0.3595 -0.2736
   42MOL   O42731669   7.163   2.851   7.176  0.0807  0.0679 -0.1955
   42MOL   N42831670   7.280   3.045   7.182 -0.0127  0.1268  0.1005
   42MOL   C42931671   7.412   2.985   7.190  0.5876 -0.1296 -0.5280
   42MOL   C43031672   7.519   3.089   7.233  0.4420  0.4575 -0.1859
   42MOL   C43131673   7.669   3.040   7.203 -0.6970 -0.1969  0.3097
   42MOL   C43231674   0.006   2.907   7.267  0.2913 -0.0368  0.7514
   42MOL   C43331675   0.138   2.862   7.208  0.5208 -0.2982  0.3944
   42MOL   C43431676   0.177   2.723   7.248 -0.8203 -1.1271  0.0864
   42MOL   N43531677   0.205   2.723   7.390  0.1791  0.9701  0.0545
   42MOL   H43631678   6.760   3.243   7.201  0.1225 -2.6271 -0.8997
   42MOL   H43731679   6.855   3.230   7.350  0.0481 -1.3207  1.1515
   42MOL   H43831680   6.719   2.978   7.328  0.1658  0.7763  0.1375
   42MOL   H43931681   6.774   3.024   7.162  0.0445  1.4921 -0.2086
   42MOL   H44031682   6.933   2.873   7.262 -0.0058 -0.1423  1.3517
   42MOL   H44131683   6.958   2.965   7.392 -0.1811  1.9444  0.5474
   42MOL   H44231684   7.071   3.151   7.281  2.0341 -0.5392  0.8262
   42MOL   H44331685   7.013   3.108   7.121  1.0478 -0.3585 -0.0197
   42MOL   H44431686   7.273   3.145   7.171  0.3103  0.2547  1.0725
   42MOL   H44531687   7.419   2.907   7.266 -0.7079 -2.0164 -2.2952
   42MOL   H44631688   7.436   2.934   7.097 -0.8163 -1.9653  0.0824
   42MOL   H44731689   7.493   3.179   7.176 -0.9279 -0.1417 -0.5163
   42MOL   H44831690   7.503   3.112   7.339 -0.7741 -0.3019 -0.1972
   42MOL   H44931691   0.029   3.115   7.241 -2.0573  0.5342  1.3217
   42MOL   H45031692   7.675   3.027   7.095 -0.3426 -1.4178  0.4672
   42MOL   H45131693   0.020   2.919   7.375  0.8458 -0.2688  0.7077
   42MOL   H45231694   7.641   2.829   7.249  1.2052 -0.4723 -1.1148
   42MOL   H45331695   0.122   2.857   7.100 -0.1179 -1.7585  0.5527
   42MOL   H45431696   0.214   2.937   7.231  1.0398 -0.9670  0.8816
   42MOL   H45531697   0.266   2.684   7.199 -1.4234 -1.4806 -0.7483
   42MOL   H45631698   0.096   2.653   7.226 -1.2917 -0.0262 -1.8775
   42MOL   H45731699   0.124   2.700   7.446  1.0693 -0.7776  0.6510
   42MOL   C45831700   0.317   2.764   7.453 -0.5394  0.3055 -0.4440
   42MOL   O45931701   0.416   2.809   7.389 -0.1594 -0.2437 -0.5607
   42MOL   C46031702   0.311   2.783   7.609 -0.3606 -0.5763  0.1953
   42MOL   C46131703   0.407   2.899   7.659  0.3385 -0.5363 -0.5376
   42MOL   C46231704   0.352   2.952   0.087  0.6389  0.6710  0.0759
   42MOL   C46331705   0.439   3.067   0.128 -0.4369 -0.3212  0.3026
   42MOL   C46431706   0.361   3.160   0.217 -0.1660  0.0274  0.1109
   42MOL   O46531707   0.317   3.112   0.323 -0.9254  0.4099  0.3588
   42MOL   N46631708   0.350   3.285   0.183  0.2626  0.0530 -0.0935
   42MOL   C46731709   0.297   3.380   0.281  0.9953 -0.1845 -0.3554
   42MOL   C46831710   0.394   3.407   0.395 -0.8217 -0.0261 -0.2954
   42MOL   C46931711   0.369   3.543   0.465  0.6457  0.2708 -0.1579
   42MOL   C47031712   0.461   3.584   0.580  0.1317 -0.2975 -0.8455
   42MOL   C47131713   0.430   3.727   0.640 -0.2045  0.4947  0.2569
   42MOL   C47231714   0.543   3.769   0.737  0.2647  1.0853 -0.2399
   42MOL   N47331715   0.658   3.824   0.665 -0.3571 -0.2942  0.2389
   42MOL   H47431716   0.210   2.807   7.644 -1.4604 -1.7560 -2.0002
   42MOL   H47531717   0.334   2.690   7.662  2.7275  1.3355  2.3138
   42MOL   H47631718   0.509   2.864   7.669  0.9714  0.5641 -2.7583
   42MOL   H47731719   0.415   2.981   7.588  1.7415 -0.3393 -0.1649
   42MOL   H47831720   0.335   2.869   0.155  1.6891  0.5153  0.1685
   42MOL   H47931721   0.252   2.984   0.060  0.7946  0.1352 -1.2003
   42MOL   H48031722   0.476   3.120   0.040  4.2176 -1.4989  1.4350
   42MOL   H48131723   0.532   3.040   0.178 -0.0648 -0.2176 -0.3339
   42MOL   H48231724   0.386   3.332   0.101 -0.5456  0.1550 -0.3978
   42MOL   H48331725   0.296   3.477   0.231 -0.0989  0.2484  0.4842
   42MOL   H48431726   0.197   3.354   0.317  1.1466 -1.4678 -0.8346
   42MOL   H48531727   0.400   3.328   0.469 -1.8190  1.9998  2.0293
   42MOL   H48631728   0.493   3.407   0.349 -0.1747  1.7627  1.0256
   42MOL   H48731729   0.272   3.542   0.514  1.5203  0.9554  1.6445
   42MOL   H48831730   0.368   3.624   0.391  1.4666  1.9953  1.6767
   42MOL   H48931731   0.456   3.504   0.654  0.0384 -0.4619 -1.0288
   42MOL   H49031732   0.567   3.594   0.558  0.2460 -0.7649 -0.5033
   42MOL   H49131733   0.411   3.804   0.564 -3.1736  0.3645  0.7851
   42MOL   H49231734   0.333   3.724   0.691 -0.0861  0.4927  0.4822
   42MOL   H49331735   0.554   3.688   0.809 -1.3706  0.6366 -0.4763
   42MOL   H49431736   0.519   3.848   0.807 -2.8805 -2.8387  3.3830
   42MOL   H49531737   0.655   3.924   0.651 -1.6563 -0.3497  0.0892
   42MOL   C49631738   0.778   3.762   0.651 -0.1917  0.4064  0.4475
   42MOL   O49731739   0.797   3.656   0.714 -0.4917  0.1526  0.4424
   42MOL   C49831740   0.892   3.822   0.558  0.3930 -0.9968 -0.7339
   42MOL   C49931741   1.026   3.785   0.611 -0.1979  0.3257  0.5566
   42MOL   C50031742   1.073   3.655   0.536 -0.4249 -0.2468 -0.1527
   42MOL   C50131743   1.199   3.598   0.601 -0.1350 -0.5481 -0.3400
   42MOL   C50231744   1.186   3.529   0.736  0.6039  0.6075 -0.0190
   42MOL   O50331745   1.203   3.589   0.842  0.1513  0.3403  0.4348
   42MOL   N50431746   1.160   3.397   0.733  0.4084  0.0853  0.3930
   42MOL   C50531747   1.157   3.318   0.860 -0.5776  0.3842  0.2322
   42MOL   C50631748   1.302   3.262   0.898 -0.7550  0.2202  0.4447
   42MOL   C50731749   1.296   3.221   1.051 -0.1645 -0.0595 -0.3437
   42MOL   C50831750   1.429   3.173   1.108  0.3301  0.4451  0.2587
   42MOL   C50931751   1.424   3.101   1.241 -0.0186  0.4779  0.1430
   42MOL   C51031752   1.535   3.127   1.344 -0.0216 -0.5206  0.3978
   42MOL   N51131753   1.658   3.069   1.303 -0.5519  0.2844 -0.2621
   42MOL   H51231754   0.875   3.788   0.456 -1.8968 -0.7712 -0.4557
   42MOL   H51331755   0.887   3.931   0.562 -0.1658 -1.0873  2.2194
   42MOL   H51431756   1.098   3.865   0.598  0.6712 -0.5753 -0.2759
   42MOL   H51531757   1.023   3.766   0.719  0.5948  0.0127  0.5253
   42MOL   H51631758   1.098   3.683   0.434  0.3610  1.3821  0.4675
   42MOL   H51731759   0.998   3.575   0.536 -0.5432 -0.1361 -0.9304
   42MOL   H51831760   1.276   3.675   0.601 -0.6256 -0.0621 -0.3522
   42MOL   H51931761   1.245   3.525   0.534  0.2419  0.5627 -1.3040
   42MOL   H52031762   1.161   3.353   0.642 -1.5581  1.5587 -0.3919
   42MOL   H52131763   1.116   3.375   0.943 -1.8231  1.1058 -0.8640
   42MOL   H52231764   1.091   3.234   0.841 -0.7025  0.1636  1.5777
   42MOL   H52331765   1.332   3.172   0.844  0.7863  1.2689 -0.4922
   42MOL   H52431766   1.381   3.338   0.897 -0.5379  0.0030  0.9500
   42MOL   H52531767   1.222   3.142   1.034 -1.5418  1.5835 -2.2723
   42MOL   H52631768   1.266   3.307   1.110  0.2348  0.9972 -1.6550
   42MOL   H52731769   1.491   3.117   1.038 -0.2135 -1.8615  1.6073
   42MOL   H52831770   1.478   3.269   1.128  0.0887  0.0245  2.9636
   42MOL   H52931771   1.338   3.125   1.303  2.6153  0.4591  3.9859
   42MOL   H53031772   1.414   2.997   1.210 -0.1442  1.5718 -3.8436
   42MOL   H53131773   1.504   3.084   1.439  0.9926 -1.0927  0.4780
   42MOL   H53231774   1.556   3.233   1.357  0.9355 -0.7773  0.9615
   42MOL   H53331775   1.676   2.980   1.347 -0.8007  0.7691  0.8495
   42MOL   C53431776   1.749   3.135   1.227  0.4149 -0.5218 -0.5197
   42MOL   O53531777   1.734   3.250   1.188  0.3516 -0.5481 -0.5256
   42MOL   C53631778   1.870   3.053   1.184  0.5091 -0.1034 -0.7559
   42MOL   C53731779   1.873   3.023   1.035 -0.3710  0.3412  0.6475
   42MOL   C53831780   1.765   2.921   0.981 -0.2080 -0.5816  0.4574
   42MOL   C53931781   1.743   2.896   0.833 -0.3061 -0.5730 -0.3116
   42MOL   C54031782   1.867   2.830   0.769 -0.4265 -0.6590 -0.3927
   42MOL   O54131783   1.888   2.713   0.794  0.3503 -0.3838 -0.4750
   42MOL   N54231784   1.952   2.906   0.696  0.0902  1.1290 -0.6286
   42MOL   C54331785   2.080   2.858   0.648 -0.8814 -0.5861  0.4552
   42MOL   C54431786   2.179   2.979   0.623 -0.1036  0.1712 -0.1171
   42MOL   C54531787   2.319   2.932   0.601  0.1094 -0.9241  0.4158
   42MOL   C54631788   2.422   3.047   0.576 -0.0187  0.0293 -0.1063
   42MOL   C54731789   2.568   3.006   0.560 -0.2580  0.5389  0.0916
   42MOL   C54831790   2.634   2.955   0.690 -0.0395  0.4947  0.4735
   42MOL   N54931791   2.612   3.052   0.794 -0.2189  0.1861  0.4143
   42MOL   H55031792   1.964   3.102   1.209 -0.6976  3.1378 -2.2302
   42MOL   H55131793   1.873   2.959   1.239  2.4001  1.2911  1.6324
   42MOL   H55231794   1.856   3.115   0.980 -2.8686  0.5631  1.7461
   42MOL   H55331795   1.969   2.981   1.004 -1.1772  0.7648 -2.5730
   42MOL   H55431796   1.671   2.958   1.023 -0.5245 -0.9824  0.1018
   42MOL   H55531797   1.775   2.830   1.040 -2.1721 -0.8087  0.4648
   42MOL   H55631798   1.723   2.985   0.774 -0.1423 -0.3865 -0.0897
   42MOL   H55731799   1.654   2.836   0.812 -0.1407 -1.9816  2.6447
   42MOL   H55831800   1.931   3.004   0.685  0.5328  1.6192  2.3944
   42MOL   H55931801   2.123   2.790   0.722  0.7147  0.0466  0.1331
   42MOL   H56031802   2.062   2.802   0.557  1.2272  0.0270 -0.3556
   42MOL   H56131803   2.140   3.040   0.542 -0.0546  0.3393 -0.0134
   42MOL   H56231804   2.162   3.040   0.712 -3.1380  0.3695 -0.7896
   42MOL   H56331805   2.310   2.879   0.506 -0.6228  1.1365 -0.6887
   42MOL   H56431806   2.355   2.858   0.673  3.5014  0.5587  0.3238
   42MOL   H56531807   2.397   3.113   0.493  0.5897 -1.9105 -1.8585
   42MOL   H56631808   2.411   3.119   0.658 -1.2321  1.0874 -1.1802
   42MOL   H56731809   2.578   2.929   0.484  3.1249  0.5313  0.4557
   42MOL   H56831810   2.641   3.078   0.522 -0.8806  1.8709  1.3762
   42MOL   H56931811   2.741   2.931   0.693  0.1252  0.7297 -2.4277
   42MOL   H57031812   2.593   2.863   0.731  2.4411 -1.2163 -0.7230
   42MOL   H57131813   2.548   3.127   0.776  0.4001  0.3995 -0.9561
   42MOL   C57231814   2.659   3.048   0.918  0.1648 -0.2299 -0.5421
   42MOL   O57331815   2.743   2.970   0.951  0.5958 -0.4817  0.2349
   42MOL   C57431816   2.607   3.153   1.016  0.4520 -0.0360 -0.4717
   42MOL   C57531817   2.465   3.125   1.068 -0.1162  0.4041  1.6186
   42MOL   C57631818   2.350   3.111   0.970 -0.3220  0.0838  0.2946
   42MOL   C57731819   2.292   3.243   0.927  0.2905 -0.3810 -0.0130
   42MOL   C57831820   2.192   3.305   1.030  0.2473 -0.5319  0.5012
   42MOL   O57931821   2.233   3.349   1.135 -0.2510 -0.1852  0.1659
   42MOL   N58031822   2.062   3.316   0.995  0.2273  0.3983 -0.1232
   42MOL   C58131823   1.960   3.391   1.071  0.1773  0.1083 -0.1511
   42MOL   C58231824   1.965   3.548   1.077 -0.2309  0.4621  0.0904
   42MOL   C58331825   1.983   3.601   0.939 -0.0390 -0.0681  0.3799
   42MOL   C58431826   1.998   3.749   0.928 -0.0124 -0.6102 -0.2645
   42MOL   C58531827   2.122   3.821   0.989 -0.0275  0.5847 -0.1205
   42MOL   C58631828   2.174   3.942   0.905 -0.7368  0.5809  0.2352
   42MOL   N58731829   2.190   3.901   0.764 -0.7251  0.2391  0.0108
   42MOL   H58831830   2.689   3.182   1.080  0.1671  0.1431 -0.1873
   42MOL   H58931831   2.591   3.244   0.958  2.1797  0.3189 -0.3967
   42MOL   H59031832   2.462   3.031   1.124 -1.3424  1.4893  3.4360
   42MOL   H59131833   2.443   3.198   1.146  0.5094 -0.3281  2.4963
   42MOL   H59231834   2.269   3.061   1.023 -0.6829  1.5533  1.1553
   42MOL   H59331835   2.365   3.047   0.883  0.4007  0.9311 -0.2138
   42MOL   H59431836   2.249   3.231   0.828 -2.0903 -0.2920  0.9844
   42MOL   H59531837   2.373   3.315   0.911  0.3415 -0.4865 -0.2306
   42MOL   H59631838   2.030   3.290   0.903  0.3469  1.8159 -0.5797
   42MOL   H59731839   1.866   3.368   1.020 -0.3776 -0.6535  1.1919
   42MOL   H59831840   1.966   3.354   1.173  0.7846 -0.6910 -0.4732
   42MOL   H59931841   1.883   3.573   1.143 -0.3638  2.2900 -0.7178
   42MOL   H60031842   2.057   3.578   1.128  0.9119 -0.8644 -1.1066
   42MOL   H60131843   1.903   3.553   0.883 -0.1394 -0.7734  1.1268
   42MOL   H60231844   2.071   3.553   0.894 -0.8507 -0.0524 -1.2826
   42MOL   H60331845   1.995   3.768   0.820 -0.9638  0.6329 -0.0392
   42MOL   H60431846   1.905   3.782   0.975  0.8342  1.6992 -0.1782
   42MOL   H60531847   2.109   3.860   1.090 -0.2427 -1.3311  0.6124
   42MOL   H60631848   2.201   3.746   0.997 -2.3643 -2.3322 -2.8899
   42MOL   H60731849   2.275   3.959   0.944 -0.6372  1.3018 -0.3223
   42MOL   H60831850   2.108   4.028   0.910  2.0817  2.8464  0.0663
   42MOL   H60931851   2.177   3.804   0.743  1.5659  0.4588 -2.7896
   42MOL   C61031852   2.199   3.984   0.653  0.2296 -0.9980 -0.0355
   42MOL   O61131853   2.195   4.106   0.667  0.3590 -0.2314  0.0577
   42MOL   C61231854   2.199   3.919   0.524  0.0205  0.3035  0.5863
   42MOL   C61331855   2.139   4.010   0.417 -0.1456 -0.2947  0.5293
   42MOL   C61431856   1.987   3.998   0.398 -0.0612  0.3746  0.3664
   42MOL   C61531857   1.921   3.865   0.351 -0.5837 -0.1825 -0.5107
   42MOL   C61631858   1.923   3.855   0.198  0.2542 -0.3952  0.3084
   42MOL   O61731859   2.031   3.869   0.144 -0.3845  0.5387  0.0301
   42MOL   N61831860   1.809   3.834   0.128 -0.1417  0.5192 -0.0098
   42MOL   C61931861   1.795   3.814   7.694 -0.3966 -1.2657  0.2371
   42MOL   C62031862   1.807   3.665   7.667  0.3306  0.3210  0.1368
   42MOL   C62131863   1.780   3.637   7.516  0.1878  0.7871  0.7878
   42MOL   C62231864   1.761   3.484   7.475  0.3107  0.2054  0.1765
   42MOL   C62331865   1.776   3.448   7.330  0.6084 -0.0146 -0.2170
   42MOL   C62431866   1.750   3.303   7.305  0.1047  0.1316  0.0146
   42MOL   N62531867   1.814   3.253   7.185 -0.3428 -0.2874 -0.0242
   42MOL   H62631868   2.304   3.899   0.502  0.0453  0.1941  0.8081
   42MOL   H62731869   2.141   3.828   0.539  0.3685 -0.0310 -0.0658
   42MOL   H62831870   2.168   4.114   0.434 -1.9370  0.3283 -0.0559
   42MOL   H62931871   2.184   3.986   0.321  1.4093  0.4806  1.0422
   42MOL   H63031872   1.949   4.074   0.329  2.7496  0.7325 -0.8835
   42MOL   H63131873   1.944   4.018   0.496  0.3016  1.5321  0.2999
   42MOL   H63231874   1.817   3.873   0.381 -0.2860 -0.3729  0.5804
   42MOL   H63331875   1.968   3.777   0.395 -0.3467  0.8960  1.4210
   42MOL   H63431876   1.733   3.811   0.190  0.5436 -1.3201  0.1921
   42MOL   H63531877   1.696   3.851   7.670 -0.4349 -0.3749  1.7177
   42MOL   H63631878   1.861   3.865   7.624 -2.6650  2.1166  0.4829
   42MOL   H63731879   1.908   3.629   7.688 -0.1805 -0.6608  0.9209
   42MOL   H63831880   1.743   3.603   0.020  0.6411 -0.2491 -0.1111
   42MOL   H63931881   1.867   3.670   7.461  0.5311 -1.1035  0.1657
   42MOL   H64031882   1.697   3.696   7.476  0.9432  1.9677  0.9281
   42MOL   H64131883   1.838   3.430   7.530  1.7692  1.6028 -0.4524
   42MOL   H64231884   1.667   3.451   7.518 -0.1322  0.2513 -0.7528
   42MOL   H64331885   1.704   3.501   7.269 -0.5754 -0.8268  0.4628
   42MOL   H64431886   1.878   3.472   7.299  0.2169  1.9703 -0.0531
   42MOL   H64531887   1.644   3.280   7.292 -0.1789  1.6671 -0.4603
   42MOL   H64631888   1.783   3.254   7.396 -1.8679 -0.3616  0.4865
   42MOL   H64731889   1.830   3.323   7.114  1.2451  0.6643  1.2501
   42MOL   C64831890   1.854   3.126   7.175 -0.1029  0.6660 -0.7989
   42MOL   O64931891   1.820   3.044   7.257  0.0795 -0.2130 -0.0964
   42MOL   C65031892   1.960   3.095   7.065  0.0708 -0.5675 -0.4936
   42MOL   C65131893   2.039   2.967   7.085  0.5187  0.4217 -0.0560
   42MOL   C65231894   2.146   2.971   7.199  0.1209  0.3340 -0.0279
   42MOL   C65331895   2.197   2.833   7.237 -0.7944  0.5122 -0.2429
   42MOL   C65431896   2.280   2.780   7.119  0.1718  0.2763 -1.1638
   42MOL   O65531897   2.377   2.835   7.077 -0.4610  0.1984 -0.1074
   42MOL   N65631898   2.226   2.665   7.074 -0.1709 -0.0099 -0.2485
   42MOL   C65731899   2.273   2.588   6.969 -0.3034 -0.1300  0.9890
   42MOL   C65831900   2.215   2.446   6.979  0.1594  0.5160  0.2758
   42MOL   C65931901   2.228   2.356   7.105 -0.7217 -0.6281 -0.4447
   42MOL   C66031902   2.147   2.225   7.093 -0.2878 -0.5699 -0.0845
   42MOL   C66131903   2.137   2.137   7.212  0.1416  0.0007 -1.1817
   42MOL   C66231904   2.276   2.101   7.274  0.5068 -0.1011  0.1246
   42MOL   N66331905   2.258   1.983   7.361  0.0812  0.1180 -0.2863
   42MOL   H66431906   1.911   3.092   6.967 -0.4814  1.6096 -0.3201
   42MOL   H66531907   2.021   3.185   7.065  1.2982 -1.3617 -2.3443
   42MOL   H66631908   1.976   2.883   7.113 -0.5497  0.6426 -1.7451
   42MOL   H66731909   2.092   2.949   6.991 -0.8926 -0.4899 -0.7024
   42MOL   H66831910   2.107   3.012   7.293 -2.1378  1.1685 -1.3049
   42MOL   H66931911   2.236   3.028   7.176  1.2466 -1.0186  0.9006
   42MOL   H67031912   2.116   2.773   7.277  2.0454 -3.2092  0.2290
   42MOL   H67131913   2.265   2.846   7.321  0.1680 -0.0913 -0.9194
   42MOL   H67231914   2.156   2.621   7.132 -0.0296 -1.4826 -1.1723
   42MOL   H67331915   2.252   2.635   6.873  1.3598 -1.1102  0.1234
   42MOL   H67431916   2.381   2.580   6.959 -0.4519 -2.0008  0.7511
   42MOL   H67531917   2.112   2.451   6.945  0.7386 -1.4428 -1.9653
   42MOL   H67631918   2.263   2.388   6.899  2.5690  0.9510  1.3478
   42MOL   H67731919   2.205   2.405   7.199  1.0843  0.7141 -0.6821
   42MOL   H67831920   2.331   2.321   7.102 -0.0519  1.1938  0.5443
   42MOL   H67931921   2.046   2.257   7.070  0.3298  2.4013  1.1169
   42MOL   H68031922   2.186   2.168   7.008 -3.0311 -2.8068  0.0601
   42MOL   H68131923   2.054   2.163   7.278  0.7815 -0.2785 -0.2552
   42MOL   H68231924   2.111   2.036   7.179  1.9288 -1.2689  1.1089
   42MOL   H68331925   2.317   2.181   7.334 -1.5846  0.8299  0.3471
   42MOL   H68431926   2.345   2.071   7.194  0.4069  0.1321 -0.0484
   42MOL   H68531927   2.206   1.908   7.317  0.4894 -0.5137  0.2941
   42MOL   C68631928   2.322   1.966   7.480  0.1886  0.2726 -0.3386
   42MOL   O68731929   2.397   2.047   7.532 -0.8549 -0.2040 -0.5801
   42MOL   C68831930   2.308   1.830   7.546  0.0838 -0.5187  0.0235
   42MOL   C68931931   2.371   1.814   7.684  0.0480  0.2354  0.7079
   42MOL   C69031932   2.518   1.771   7.682 -0.0132  0.4509 -0.2742
   42MOL   C69131933   2.569   1.741   0.117  0.0532 -0.2327 -0.5459
   42MOL   C69231934   2.721   1.714   0.121  0.1758  0.3449  0.0244
   42MOL   O69331935   2.773   1.646   0.032  0.1672  0.2917 -0.2371
   42MOL   N69431936   2.792   1.778   0.213  0.6062  0.0751 -0.2865
   42MOL   C69531937   2.939   1.787   0.239  0.2910 -0.0497 -0.1510
   42MOL   C69631938   2.971   1.710   0.376 -0.2052 -0.3815  0.0773
   42MOL   C69731939   2.942   1.565   0.368 -0.0756 -0.5643 -0.2175
   42MOL   C69831940   3.004   1.479   0.478 -0.6056  0.3366 -0.1515
   42MOL   C69931941   2.953   1.328   0.474 -0.0083 -0.3291 -0.1244
   42MOL   C70031942   3.024   1.236   0.579  0.4497  0.3373 -0.0166
   42MOL   N70131943   3.164   1.215   0.536  0.7658 -0.6960 -0.2754
   42MOL   H70231944   2.207   1.792   7.567  0.1107  0.0816  1.2612
   42MOL   H70331945   2.345   1.753   7.477  1.0111 -0.5913  0.5945
   42MOL   H70431946   2.360   1.905   0.036 -1.0334  0.0791  0.7566
   42MOL   H70531947   2.321   1.738   0.036  1.5570 -3.4464 -2.4949
   42MOL   H70631948   2.573   1.853   7.636  0.6160 -0.8661 -1.9389
   42MOL   H70731949   2.527   1.690   7.609 -2.3174  1.4250 -1.6837
   42MOL   H70831950   2.525   1.648   0.155  2.2380 -1.9822 -2.1985
   42MOL   H70931951   2.534   1.820   0.184 -0.6046 -1.1734  0.2376
   42MOL   H71031952   2.735   1.832   0.277  0.6003 -1.4593  1.0085
   42MOL   H71131953   3.004   1.735   0.168  2.4499  0.7362  1.2154
   42MOL   H71231954   2.976   1.889   0.237  1.7762 -0.5588  0.6972
   42MOL   H71331955   3.078   1.717   0.395 -0.0730 -1.7097 -0.1640
   42MOL   H71431956   2.914   1.738   0.465  2.1650  0.2495  1.4335
   42MOL   H71531957   2.971   1.517   0.274 -0.0737 -0.5481 -0.2252
   42MOL   H71631958   2.835   1.549   0.374  0.1839 -2.8508 -1.1074
   42MOL   H71731959   3.112   1.486   0.472 -0.6749  1.2515 -0.4367
   42MOL   H71831960   2.976   1.530   0.570 -1.2884  0.4546 -0.4222
   42MOL   H71931961   2.846   1.325   0.497 -0.8165 -0.4701 -3.6739
   42MOL   H72031962   2.957   1.295   0.371 -0.3635 -2.6733  0.5764
   42MOL   H72131963   2.974   1.141   0.599  1.7268  0.0973  2.2820
   42MOL   H72231964   3.015   1.281   0.679 -0.8211  0.9234 -0.3854
   42MOL   H72331965   3.232   1.236   0.608  0.0209  0.1878  0.1700
   42MOL   C72431966   3.200   1.150   0.422 -0.3795  0.3156 -0.3893
   42MOL   O72531967   3.111   1.109   0.345 -0.2167 -0.3541 -0.2422
   42MOL   C72631968   3.345   1.131   0.385  0.1483 -0.1828  0.7462
   42MOL   C72731969   3.384   1.209   0.259 -0.1061  0.4936 -0.2661
   42MOL   C72831970   3.363   1.363   0.275  0.3146  0.1358 -0.2479
   42MOL   C72931971   3.374   1.440   0.140  0.1721  0.3230  0.3886
   42MOL   C73031972   3.247   1.431   0.047  0.2076  0.1262 -0.1598
   42MOL   O73131973   3.251   1.484   7.643 -0.4801  0.3390 -0.5053
   42MOL   N73231974   3.131   1.379   0.089  0.2185  0.0328 -1.2850
   42MOL   C73331975   3.005   1.385   0.022 -0.2418  0.0324 -0.4839
   42MOL   C73431976   2.998   1.295   7.611 -0.2495  0.6122  0.5179
   42MOL   C73531977   2.859   1.270   7.560  0.4684  0.1296  0.1612
   42MOL   C73631978   2.848   1.162   7.453  0.1290 -0.0942  0.3398
   42MOL   C73731979   2.849   1.020   7.504  0.9324 -0.1106 -0.3052
   42MOL   C73831980   2.850   0.918   7.389 -0.3300  1.2398 -0.6171
   42MOL   N73931981   2.828   0.787   7.448  0.6652 -0.1722  0.6398
   42MOL   H74031982   3.404   1.175   0.465 -0.2812 -0.8752  1.4629
   42MOL   H74131983   3.378   1.027   0.374  0.7845  0.1818 -0.9919
   42MOL   H74231984   3.492   1.200   0.249 -0.1387 -0.5052  0.2689
   42MOL   H74331985   3.336   1.159   0.175  1.2670 -0.6645 -0.3845
   42MOL   H74431986   3.439   1.401   0.343 -0.3604 -0.3433  0.7817
   42MOL   H74531987   3.270   1.397   0.319 -0.0505  2.1824 -2.4529
   42MOL   H74631988   3.469   1.416   0.093 -0.3159  0.5173 -0.7185
   42MOL   H74731989   3.385   1.548   0.156 -2.7479  0.3762  2.4827
   42MOL   H74831990   3.136   1.338   0.181  1.5544  0.1959 -1.2759
   42MOL   H74931991   2.940   1.355   0.105 -0.2581 -1.8903 -1.1563
   42MOL   H75031992   2.966   1.484   0.002 -0.5351 -0.5496 -3.0085
   42MOL   H75131993   3.057   1.339   7.530 -0.6274  0.4445  0.1502
   42MOL   H75231994   3.041   1.200   7.645  0.4500  0.5779 -0.4414
   42MOL   H75331995   2.819   1.364   7.521  1.0786  0.4408  0.2689
   42MOL   H75431996   2.803   1.235   7.646 -1.0308 -0.5915 -1.0956
   42MOL   H75531997   2.758   1.177   7.392  0.4100  2.4615  0.4919
   42MOL   H75631998   2.932   1.173   7.385  0.0774  1.4855  0.5046
   42MOL   H75731999   2.940   0.999   7.559  0.8672  0.4548  0.0278
   42MOL   H75832000   2.764   0.994   7.566  0.5253  2.6084  0.3608
   42MOL   H75932001   2.940   0.923   7.327  0.8749 -2.4461  0.6602
   42MOL   H76032002   2.761   0.939   7.331 -1.5260  0.9915  1.0900
   42MOL   H76132003   2.743   0.737   7.426  1.5985 -0.7216 -1.9584
   42MOL   H76232004   2.851   0.786   7.546 -2.6751 -0.3504  1.4844
   43MOL     C132005   7.101   5.093   2.828 -0.0829 -0.5669 -0.1282
   43MOL     O232006   7.033   5.030   2.748 -0.2647  0.5109  0.8532
   43MOL     C332007   7.206   5.188   2.771 -0.4148 -0.0477 -0.0984
   43MOL     C432008   7.134   5.301   2.700  0.8891  0.2946  0.3890
   43MOL     C532009   7.209   5.433   2.692 -0.0274 -0.7732  0.5074
   43MOL     C632010   7.129   5.542   2.612  0.4641  0.1629  0.3878
   43MOL     C732011   7.199   5.685   2.623  0.2626  0.8327 -0.2146
   43MOL     O832012   7.284   5.711   2.705  0.2287 -0.5373  0.2163
   43MOL     N932013   7.154   5.772   2.530  0.0604 -0.0051 -0.1256
   43MOL    C1032014   7.207   5.906   2.506 -0.5779  0.4750 -0.5242
   43MOL    C1132015   7.121   5.979   2.405 -0.0498  0.3193 -0.0429
   43MOL    C1232016   7.173   6.128   2.395  0.0271 -0.1348  0.4894
   43MOL    C1332017   7.100   6.200   2.278 -0.3400 -0.3966 -0.0790
   43MOL    C1432018   7.182   6.324   2.233  0.3583 -0.2897  0.0138
   43MOL    C1532019   7.115   6.420   2.131 -0.0522 -0.1142 -0.3611
   43MOL    N1632020   6.980   6.461   2.175  0.2243 -0.1081  0.3844
   43MOL    H1732021   7.269   5.228   2.851 -1.4881 -0.3016  0.8929
   43MOL    H1832022   7.270   5.124   2.710 -2.6959 -1.2867 -1.2523
   43MOL    H1932023   7.102   5.272   2.600 -3.1620  1.1954  1.3299
   43MOL    H2032024   7.045   5.321   2.760  1.6140  0.5186  1.4095
   43MOL    H2132025   7.312   5.435   2.656 -0.6408 -3.3677 -1.6110
   43MOL    H2232026   7.221   5.459   2.797  1.2788  1.4846 -0.1729
   43MOL    H2332027   7.029   5.544   2.656  0.8687  1.5280  1.2671
   43MOL    H2432028   7.123   5.511   2.508 -0.1078 -0.3937  0.5786
   43MOL    H2532029   7.076   5.740   2.474  0.4764 -0.2973 -0.5417
   43MOL    H2632030   7.221   5.952   2.604 -2.0313  2.7260 -1.3331
   43MOL    H2732031   7.311   5.890   2.479 -0.9307 -1.1395 -0.9336
   43MOL    H2832032   7.135   5.924   2.312  0.1769 -0.9326  0.7342
   43MOL    H2932033   7.018   5.977   2.441  0.5235 -0.2988  1.5727
   43MOL    H3032034   7.280   6.132   2.376 -0.0037  0.7781  0.4865
   43MOL    H3132035   7.148   6.169   2.493  0.7452  2.2368 -0.2877
   43MOL    H3232036   7.088   6.128   2.197  1.3596 -1.0697  0.2319
   43MOL    H3332037   7.004   6.235   2.315 -0.1824  0.3205 -0.3457
   43MOL    H3432038   7.229   6.374   2.318 -1.4533  1.2382  0.1663
   43MOL    H3532039   7.267   6.285   2.177  1.3271 -1.6133  2.3460
   43MOL    H3632040   7.112   6.388   2.027  0.8971  0.3559 -0.5318
   43MOL    H3732041   7.177   6.509   2.133 -0.0196 -0.1187 -1.0787
   43MOL    H3832042   6.984   6.533   2.245  3.6146 -1.0318  1.2446
   43MOL    H3932043   7.086   5.103   2.935  2.3219 -1.0753  0.2798
   43MOL    C4032044   6.865   6.415   2.123  0.1527 -0.1592  0.7446
   43MOL    O4132045   6.862   6.334   2.030  0.3478 -0.7734 -0.7632
   43MOL    C4232046   6.734   6.454   2.189  1.0385  0.0384  0.3812
   43MOL    C4332047   6.621   6.461   2.085 -0.2814 -0.7141 -0.4983
   43MOL    C4432048   6.503   6.535   2.150  0.1272 -0.2329 -0.3012
   43MOL    C4532049   6.379   6.556   2.066 -0.3551 -0.0696  0.3813
   43MOL    C4632050   6.281   6.441   2.051 -0.3449  0.3753 -0.4689
   43MOL    O4732051   6.300   6.323   2.089  0.1141  0.2660  0.5528
   43MOL    N4832052   6.169   6.472   1.988 -0.0543 -0.0594  0.4168
   43MOL    C4932053   6.051   6.387   1.981 -0.1153  0.2481 -0.4104
   43MOL    C5032054   5.976   6.431   1.857 -0.2880  0.2109 -0.0039
   43MOL    C5132055   5.874   6.545   1.880  0.0478  0.1355 -0.5918
   43MOL    C5232056   5.797   6.583   1.753  0.7335  0.0044 -0.0433
   43MOL    C5332057   5.882   6.639   1.646 -0.5705 -0.3806  0.1022
   43MOL    C5432058   5.803   6.623   1.517  0.0755 -0.0518  0.2930
   43MOL    N5532059   5.878   6.665   1.398 -0.0012  0.2978  0.2938
   43MOL    H5632060   6.705   6.370   2.253 -0.7668 -0.5036 -1.0702
   43MOL    H5732061   6.748   6.543   2.249  1.7137  0.7681 -0.8425
   43MOL    H5832062   6.654   6.524   2.002 -1.6187 -1.2063 -1.4077
   43MOL    H5932063   6.598   6.363   2.044 -1.2631  0.0461 -1.8051
   43MOL    H6032064   6.549   6.631   2.170  0.6712  0.1158 -2.9827
   43MOL    H6132065   6.477   6.487   2.244  1.0657 -1.9520 -0.8952
   43MOL    H6232066   6.395   6.602   1.969  2.1967  0.1919  0.8946
   43MOL    H6332067   6.319   6.635   2.111  0.4724  1.0213 -0.4174
   43MOL    H6432068   6.155   6.561   1.941  1.8817  1.9064  3.4509
   43MOL    H6532069   6.090   6.286   1.970 -1.9843 -0.5784  0.2822
   43MOL    H6632070   5.982   6.401   2.064  0.8410 -2.4384  0.9013
   43MOL    H6732071   6.045   6.450   1.775  0.4686 -2.5968 -0.0551
   43MOL    H6832072   5.923   6.341   1.828  0.5742 -0.0976 -0.6451
   43MOL    H6932073   5.936   6.626   1.917  1.3838 -1.5747  1.0367
   43MOL    H7032074   5.810   6.520   1.964 -0.9864 -3.4147 -2.3352
   43MOL    H7132075   5.761   6.487   1.715  2.9888  0.0141 -2.3382
   43MOL    H7232076   5.700   6.629   1.774  0.9369 -0.2623  1.5651
   43MOL    H7332077   5.926   6.737   1.664  0.8918 -0.4526 -2.7784
   43MOL    H7432078   5.966   6.571   1.630 -0.4299 -0.3175  0.5586
   43MOL    H7532079   5.712   6.682   1.513 -0.0503 -0.2197  0.6345
   43MOL    H7632080   5.783   6.517   1.500  0.7818 -0.2301  0.5703
   43MOL    H7732081   5.840   6.740   1.342 -0.0583  0.1808  0.1749
   43MOL    C7832082   5.966   6.588   1.330  0.3874  0.2324 -0.8810
   43MOL    O7932083   5.996   6.476   1.371 -0.6232 -0.2969 -0.1024
   43MOL    C8032084   6.009   6.636   1.192  0.7397  0.7911  0.0907
   43MOL    C8132085   6.123   6.547   1.123 -0.7859  0.0607 -0.0916
   43MOL    C8232086   6.261   6.547   1.201  0.4887  0.7846 -0.1178
   43MOL    C8332087   6.379   6.483   1.116  0.6972  0.3036 -0.5393
   43MOL    C8432088   6.457   6.581   1.031  0.4653  0.0923 -0.4378
   43MOL    O8532089   6.399   6.679   0.988  0.0919 -0.3402  0.6106
   43MOL    N8632090   6.582   6.546   1.000  0.4260 -0.2792 -0.1371
   43MOL    C8732091   6.663   6.622   0.901 -0.3225  0.0425 -0.6999
   43MOL    C8832092   6.721   6.525   0.794  0.2854 -0.2123  0.1187
   43MOL    C8932093   6.829   6.578   0.688 -0.3629 -0.2219 -0.2526
   43MOL    C9032094   6.757   6.650   0.572  0.8842 -0.4367  0.9467
   43MOL    C9132095   6.856   6.705   0.456 -0.4191 -0.2856  0.2304
   43MOL    C9232096   6.784   6.715   0.318 -0.1541 -0.2707 -1.1933
   43MOL    N9332097   6.878   6.721   0.208  0.2025  0.1334  0.0840
   43MOL    H9432098   5.919   6.637   1.132  0.6494  0.8811  0.2267
   43MOL    H9532099   6.039   6.740   1.208  0.6307  0.5576  1.9958
   43MOL    H9632100   6.086   6.444   1.119  0.2677 -0.2568 -2.7240
   43MOL    H9732101   6.140   6.588   1.024  1.4479  1.0913  0.6898
   43MOL    H9832102   6.262   6.501   1.300  0.8334 -1.8153 -1.2844
   43MOL    H9932103   6.290   6.649   1.227 -3.4659  1.6020  1.4311
   43MOL   H10032104   6.336   6.401   1.059 -1.2904 -0.2118  1.6100
   43MOL   H10132105   6.457   6.452   1.186 -0.6961 -1.4775  0.2388
   43MOL   H10232106   6.615   6.456   1.033  1.5830 -1.0468 -3.1734
   43MOL   H10332107   6.611   6.706   0.856  0.0187  0.5551 -0.1471
   43MOL   H10432108   6.752   6.660   0.951  1.5179 -1.4979 -2.7298
   43MOL   H10532109   6.749   6.440   0.857 -1.8980 -1.3381 -0.3922
   43MOL   H10632110   6.645   6.472   0.736 -0.2798 -1.0798  1.6136
   43MOL   H10732111   6.875   6.488   0.649 -0.5074 -0.9494  1.2360
   43MOL   H10832112   6.911   6.632   0.734  1.3049 -1.6327 -1.4898
   43MOL   H10932113   6.685   6.577   0.536  3.2551 -0.8680 -3.1691
   43MOL   H11032114   6.699   6.733   0.612 -0.3402 -1.1236  0.6204
   43MOL   H11132115   6.906   6.797   0.486  3.1877 -2.1501  0.3399
   43MOL   H11232116   6.938   6.633   0.448  3.5325  3.8237  1.6262
   43MOL   H11332117   6.729   6.808   0.304  0.2892  0.2394  0.2975
   43MOL   H11432118   6.708   6.637   0.321 -0.2322 -0.1392  2.5882
   43MOL   H11532119   6.971   6.759   0.216 -1.1177  4.0556 -1.9168
   43MOL   C11632120   6.844   6.673   0.086 -0.3897 -0.2081  0.1787
   43MOL   O11732121   6.740   6.610   0.068 -0.2615 -0.2008 -0.0198
   43MOL   C11832122   6.950   6.680   7.688 -0.3690 -0.4406  0.4093
   43MOL   C11932123   6.892   6.711   7.552 -0.3356 -0.3646  0.1258
   43MOL   C12032124   7.008   6.729   7.452  0.4154  0.2964 -0.1277
   43MOL   C12132125   6.946   6.750   7.310 -0.3640  0.7617 -0.3621
   43MOL   C12232126   6.917   6.889   7.279  0.0882  0.7158 -0.0954
   43MOL   O12332127   7.011   6.966   7.264  0.3368 -0.3396  0.0163
   43MOL   N12432128   6.790   6.929   7.289 -0.0334  0.0192 -0.2395
   43MOL   C12532129   6.748   7.065   7.248  0.8725 -0.0818  0.3983
   43MOL   C12632130   6.751   7.157   7.362  0.0935 -0.0384  0.5185
   43MOL   C12732131   6.670   7.289   7.343 -0.6207  0.5877 -0.4172
   43MOL   C12832132   6.516   7.284   7.344 -0.2285  0.1164  0.1158
   43MOL   C12932133   6.455   7.422   7.313  0.6500  0.0310  0.1263
   43MOL   C13032134   6.300   7.444   7.346  0.5156 -0.4026  0.2908
   43MOL   N13132135   6.254   7.574   7.294 -0.1660 -0.2492  0.2012
   43MOL   H13232136   6.995   6.779   7.701  4.6120 -1.9769 -3.7044
   43MOL   H13332137   7.008   6.588   7.689 -0.5683 -0.6286 -1.6993
   43MOL   H13432138   6.821   6.632   7.527 -0.5005 -0.8857  2.2055
   43MOL   H13532139   6.835   6.804   7.557  0.8416  0.2874  1.6626
   43MOL   H13632140   7.057   6.633   7.434  1.4822  0.8118 -0.0285
   43MOL   H13732141   7.090   6.795   7.484  1.5592 -0.9686 -0.4003
   43MOL   H13832142   6.851   6.697   7.303  0.1440 -0.3796  1.1102
   43MOL   H13932143   7.012   6.705   7.237 -2.3603 -1.8036 -0.6556
   43MOL   H14032144   6.717   6.864   7.313  0.5881 -0.1652  1.2538
   43MOL   H14132145   6.805   7.102   7.163 -0.2153  2.4032  0.6988
   43MOL   H14232146   6.648   7.054   7.206  1.3455 -2.4784 -0.1388
   43MOL   H14332147   6.723   7.114   7.458  1.8404  1.2388  1.6573
   43MOL   H14432148   6.856   7.187   7.370  0.0006  0.4912 -0.2555
   43MOL   H14532149   6.703   7.338   7.251  0.7851 -0.4073 -0.4660
   43MOL   H14632150   6.704   7.351   7.426  2.3107  0.3714 -1.3829
   43MOL   H14732151   6.477   7.203   7.282 -1.8050  0.9326  0.0077
   43MOL   H14832152   6.473   7.255   7.440 -2.7187  2.1308 -0.3382
   43MOL   H14932153   6.518   7.488   7.372  0.7751 -0.1031  0.1395
   43MOL   H15032154   6.468   7.443   7.206 -0.0030  0.7618  0.1786
   43MOL   H15132155   6.295   7.432   7.454 -1.7454 -0.4854  0.2132
   43MOL   H15232156   6.240   7.361   7.310 -0.7265  0.4863  0.2765
   43MOL   H15332157   6.322   7.644   7.266 -0.9678  1.4024  2.2653
   43MOL   C15432158   6.123   7.614   7.309 -0.3329  0.8131  0.9563
   43MOL   O15532159   6.035   7.547   7.364  0.2132 -0.5535  0.2912
   43MOL   C15632160   6.087   0.045   7.258 -0.5985  0.2702 -0.2477
   43MOL   C15732161   6.023   0.043   7.123  0.0419  0.0554  0.1829
   43MOL   C15832162   5.988   0.186   7.081 -0.0910  0.0576 -0.0345
   43MOL   C15932163   5.912   0.174   6.955 -0.1057 -0.4484 -0.3702
   43MOL   C16032164   5.850   0.303   6.903  0.0780  0.0480  0.0492
   43MOL   O16132165   5.925   0.405   6.895 -0.0774 -0.3624 -0.6039
   43MOL   N16232166   5.716   0.310   6.901  0.1875 -0.1214 -0.5433
   43MOL   C16332167   5.623   0.427   6.893  0.1129  0.0335 -0.8281
   43MOL   C16432168   5.579   0.480   7.031 -0.6402  0.2652  0.0156
   43MOL   C16532169   5.495   0.604   7.026  0.2866  0.5821  0.6148
   43MOL   C16632170   5.357   0.591   6.955 -0.7253 -0.4738 -0.4231
   43MOL   C16732171   5.366   0.634   6.808 -0.2222 -0.4433 -0.5732
   43MOL   C16832172   5.236   0.625   6.731  0.1995  0.3919  0.1540
   43MOL   N16932173   5.189   0.486   6.718 -0.1487  0.7981  0.0277
   43MOL   H17032174   6.010   0.092   7.318 -0.9109 -1.2315  0.5493
   43MOL   H17132175   6.178   0.106   7.259 -1.7626  2.0348  0.4540
   43MOL   H17232176   6.088   7.699   7.052 -0.0296  2.1653 -1.4942
   43MOL   H17332177   5.934   7.689   7.132  0.2484  0.0745  2.7390
   43MOL   H17432178   6.084   0.236   7.064  0.1834  0.0519  1.4173
   43MOL   H17532179   5.943   0.247   7.160  1.4380  0.4205  0.5916
   43MOL   H17632180   5.834   0.101   6.978 -0.3770 -0.6923 -2.0448
   43MOL   H17732181   5.984   0.133   6.885  1.0763 -2.4299  1.9527
   43MOL   H17832182   5.673   0.220   6.918 -2.2551  0.8684 -1.2434
   43MOL   H17932183   5.678   0.504   6.839 -2.0649  2.0995 -0.1686
   43MOL   H18032184   5.540   0.388   6.833 -0.5644  0.6020 -0.2632
   43MOL   H18132185   5.534   0.403   7.095  0.7084 -1.2966 -0.8901
   43MOL   H18232186   5.674   0.510   7.075  0.0680 -0.2336 -1.1506
   43MOL   H18332187   5.539   0.690   6.975 -0.7150  0.5152 -0.3816
   43MOL   H18432188   5.469   0.623   7.131  0.6262 -2.6430  1.3182
   43MOL   H18532189   5.309   0.497   6.983 -0.3998 -0.8327 -1.0501
   43MOL   H18632190   5.287   0.667   6.990  0.5929  0.4293  0.2754
   43MOL   H18732191   5.403   0.736   6.805  0.5535 -0.6500  1.1510
   43MOL   H18832192   5.439   0.576   6.751  0.7035  0.3057 -0.1592
   43MOL   H18932193   5.254   0.661   6.630  0.3645  0.3958  0.1842
   43MOL   H19032194   5.153   0.684   6.767  0.6932  1.8005 -0.9831
   43MOL   H19132195   5.214   0.444   6.629  3.0385  1.0106  0.7392
   43MOL   C19232196   5.113   0.418   6.805 -0.6730  0.0411  0.0847
   43MOL   O19332197   5.074   0.464   6.917 -0.5937 -0.5860 -0.0660
   43MOL   C19432198   5.081   0.274   6.764 -0.7845 -0.1250 -0.1353
   43MOL   C19532199   5.125   0.180   6.873  0.0872  0.2626 -0.2118
   43MOL   C19632200   5.281   0.161   6.870  0.3384  0.2287 -0.7226
   43MOL   C19732201   5.326   0.100   7.004  0.5392 -0.0768  0.6972
   43MOL   C19832202   5.464   0.038   6.990 -0.6271 -0.0379  0.6272
   43MOL   O19932203   5.546   0.074   6.906  0.1857 -0.0745  0.1486
   43MOL   N20032204   5.501   7.655   7.082  0.2644 -0.3648  0.9621
   43MOL   C20132205   5.622   7.579   7.095 -0.0094  0.4198  0.4744
   43MOL   C20232206   5.623   7.461   6.999 -0.7010 -0.9238  0.0002
   43MOL   C20332207   5.757   7.391   6.995  0.0359  0.1192 -0.7298
   43MOL   C20432208   5.805   7.329   7.122  0.1422 -0.2095  0.1854
   43MOL   C20532209   5.944   7.254   7.099  0.1344  0.2642 -0.0208
   43MOL   C20632210   5.958   7.133   7.192  0.1887 -0.2914  0.8537
   43MOL   N20732211   6.092   7.082   7.182 -0.2654 -0.7331  0.6560
   43MOL   H20832212   4.972   0.274   6.755 -1.3064  0.0011  4.6529
   43MOL   H20932213   5.125   0.257   6.666  2.1892  0.4277  1.0367
   43MOL   H21032214   5.104   0.212   6.975 -0.3028 -0.1365 -0.1649
   43MOL   H21132215   5.078   0.082   6.866 -0.7297  0.6839 -0.7335
   43MOL   H21232216   5.338   0.250   6.841  1.4411 -0.3417 -0.3491
   43MOL   H21332217   5.304   0.103   6.781 -1.9264 -1.2556 -0.3633
   43MOL   H21432218   5.260   0.018   7.033 -0.8580  0.6911 -0.2573
   43MOL   H21532219   5.319   0.168   7.089 -0.4534  0.1366  0.4422
   43MOL   H21632220   5.431   7.634   7.152 -0.5389  0.1753  0.3473
   43MOL   H21732221   5.695   7.658   7.073 -0.4089  0.3207 -1.2778
   43MOL   H21832222   5.635   7.551   7.199 -0.4900  0.2466  0.4869
   43MOL   H21932223   5.547   7.387   7.024 -0.5622 -0.4430  1.9287
   43MOL   H22032224   5.601   7.504   6.901 -1.7322 -1.2677  0.0699
   43MOL   H22132225   5.844   7.453   6.971  0.9227 -1.4845 -1.7498
   43MOL   H22232226   5.764   7.320   6.913 -0.2670 -1.1978  0.3727
   43MOL   H22332227   5.834   7.407   7.193 -3.5787  2.3426 -0.9694
   43MOL   H22432228   5.738   7.255   7.167  1.0467 -1.6141 -0.7284
   43MOL   H22532229   5.947   7.201   7.003 -0.9472 -1.9330  1.1046
   43MOL   H22632230   6.033   7.316   7.110 -0.3494  0.5626  2.2874
   43MOL   H22732231   5.879   7.063   7.163  0.9567 -1.7619  2.2614
   43MOL   H22832232   5.945   7.157   7.297 -0.8759 -0.0818  0.6895
   43MOL   H22932233   6.162   7.134   7.131 -0.2267 -0.0614  1.3870
   43MOL   C23032234   6.121   6.953   7.226 -0.7472  0.2366 -0.2330
   43MOL   O23132235   6.034   6.878   7.277  0.0090 -0.2217  0.1848
   43MOL   C23232236   6.265   6.901   7.197  0.3041 -0.5483 -0.5418
   43MOL   C23332237   6.357   6.907   7.325 -0.4231  0.1744 -0.0792
   43MOL   C23432238   6.410   6.779   7.387 -0.4005 -0.2562  0.2185
   43MOL   C23532239   6.485   6.793   7.521  0.7104  0.2894 -0.2803
   43MOL   C23632240   6.388   6.813   7.637  0.2265 -0.2182 -0.4848
   43MOL   O23732241   6.304   6.728   7.674  0.6526 -0.3551 -0.2213
   43MOL   N23832242   6.409   6.923   0.011 -1.1469  0.9819  0.1021
   43MOL   C23932243   6.341   6.947   0.141 -0.3466 -0.2531 -0.4830
   43MOL   C24032244   6.435   6.921   0.262  0.4789 -0.0278 -0.3647
   43MOL   C24132245   6.368   6.899   0.399  0.1572 -0.4644 -0.0665
   43MOL   C24232246   6.471   6.880   0.510 -0.2725 -0.1292  0.0153
   43MOL   C24332247   6.407   6.847   0.645  0.1080 -0.5448  0.2531
   43MOL   C24432248   6.320   6.956   0.703 -0.0163  0.1564 -0.3993
   43MOL   N24532249   6.279   6.922   0.843  0.4172  0.1070  0.4124
   43MOL   H24632250   6.265   6.800   7.154 -2.1340 -0.5325 -0.6390
   43MOL   H24732251   6.299   6.968   7.118 -2.6755  0.1310 -1.3089
   43MOL   H24832252   6.437   6.973   7.291  0.0350  0.2857  1.1966
   43MOL   H24932253   6.293   6.960   7.396 -0.7896  2.4040 -2.0115
   43MOL   H25032254   6.471   6.726   7.314  1.8077  1.3063  0.8927
   43MOL   H25132255   6.330   6.707   7.406 -0.6749  0.5200  2.1611
   43MOL   H25232256   6.547   6.882   7.509  0.3025  0.4798 -1.0035
   43MOL   H25332257   6.544   6.703   7.536 -1.7595 -1.6947 -2.0900
   43MOL   H25432258   6.492   6.975   7.696 -0.3976 -0.4606 -0.5748
   43MOL   H25532259   6.300   7.048   0.135  0.7994  0.3369  1.2485
   43MOL   H25632260   6.250   6.889   0.151  0.2875 -1.1786 -0.0318
   43MOL   H25732261   6.502   6.837   0.243  1.3734  0.6380 -0.1942
   43MOL   H25832262   6.506   7.003   0.268  1.3978 -0.8530  0.3105
   43MOL   H25932263   6.291   6.823   0.391 -0.6372  0.2526  0.6472
   43MOL   H26032264   6.320   6.993   0.426  0.1357 -0.1745 -1.0862
   43MOL   H26132265   6.543   6.801   0.488 -0.0512  0.1162 -0.1470
   43MOL   H26232266   6.532   6.969   0.521  1.9091 -1.4589 -1.0091
   43MOL   H26332267   6.343   6.760   0.631 -0.0363 -0.5919  1.1394
   43MOL   H26432268   6.489   6.828   0.714  0.0964  1.4687  0.8614
   43MOL   H26532269   6.229   6.961   0.644 -1.0209 -0.8826  1.0313
   43MOL   H26632270   6.376   7.050   0.710  0.1127  0.0485  0.0516
   43MOL   H26732271   6.313   6.831   0.873  1.8116  0.5146  0.1065
   43MOL   C26832272   6.223   7.007   0.930  0.1580 -0.3863  0.5197
   43MOL   O26932273   6.185   7.125   0.907 -0.3618 -0.5705  0.3576
   43MOL   C27032274   6.226   6.962   1.076  0.2112 -0.3283  0.2882
   43MOL   C27132275   6.123   7.041   1.154  0.0966 -0.0834  0.4787
   43MOL   C27232276   6.147   7.034   1.308 -0.0087 -0.4296  0.1492
   43MOL   C27332277   6.274   7.108   1.363  0.3076  0.4595 -0.8215
   43MOL   C27432278   6.252   7.258   1.392 -0.9896 -0.2623 -0.7849
   43MOL   O27532279   6.170   7.297   1.471 -0.1525 -0.0284 -0.6935
   43MOL   N27632280   6.320   7.348   1.319 -0.0563 -0.7015  0.1037
   43MOL   C27732281   6.311   7.497   1.342  0.6885 -0.2686 -0.0620
   43MOL   C27832282   6.220   7.568   1.238  0.0627  0.5474  0.0961
   43MOL   C27932283   6.275   7.585   1.092 -0.7816  0.1300 -0.1155
   43MOL   C28032284   6.272   7.461   1.002 -0.3556 -0.0087  0.3522
   43MOL   C28132285   6.365   7.478   0.877 -0.4761  0.4586  0.1889
   43MOL   C28232286   6.378   7.350   0.788 -0.7310 -0.3187  0.4850
   43MOL   N28332287   6.477   7.382   0.689  0.2708 -0.1919  0.3290
   43MOL   H28432288   6.213   6.854   1.088 -1.4603 -0.3234 -1.1585
   43MOL   H28532289   6.323   6.993   1.113  0.3264  0.2242 -0.4675
   43MOL   H28632290   6.126   7.147   1.127 -1.0399 -0.1053  0.2757
   43MOL   H28732291   6.021   7.010   1.132  0.0564 -0.0298  0.5917
   43MOL   H28832292   6.157   6.928   1.331  1.6045 -0.1251  0.9043
   43MOL   H28932293   6.060   7.067   1.364 -0.6918 -0.7941 -0.6788
   43MOL   H29032294   6.369   7.087   1.315  0.0953 -1.0904 -0.5923
   43MOL   H29132295   6.287   7.068   1.464  0.5575 -0.4588 -1.2059
   43MOL   H29232296   6.394   7.321   1.256 -0.3607  1.3676 -1.1957
   43MOL   H29332297   6.278   7.516   1.445  2.3556 -2.6085  0.9622
   43MOL   H29432298   6.415   7.527   1.331 -0.1455  2.7768  0.0408
   43MOL   H29532299   6.125   7.516   1.233  0.2322  0.2726 -0.3672
   43MOL   H29632300   6.191   7.667   1.273  0.2042  1.0822 -1.2646
   43MOL   H29732301   6.373   7.632   1.095 -0.3003 -0.8504 -0.2530
   43MOL   H29832302   6.215   7.655   1.035 -0.8893 -0.7690 -1.1139
   43MOL   H29932303   6.305   7.366   1.047  1.5440  0.5574  0.2125
   43MOL   H30032304   6.174   7.436   0.961 -0.5391  2.3163 -0.7052
   43MOL   H30132305   6.326   7.553   0.808 -0.1136  2.0857  1.7084
   43MOL   H30232306   6.468   7.505   0.899 -0.4251  1.4128 -1.1328
   43MOL   H30332307   6.277   7.331   0.752 -0.4975 -1.0314  0.2096
   43MOL   H30432308   6.410   7.265   0.848  2.2279 -0.1710 -0.8097
   43MOL   H30532309   6.552   7.443   0.718 -0.2432  0.8365 -0.4710
   43MOL   C30632310   6.485   7.322   0.572 -0.7577  0.3609  0.3955
   43MOL   O30732311   6.413   7.228   0.528 -0.6318 -0.4962 -0.1473
   43MOL   C30832312   6.585   7.378   0.475 -0.5467 -0.3887  0.1563
   43MOL   C30932313   6.687   7.272   0.424 -0.3689  0.1407  0.1524
   43MOL   C31032314   6.768   7.197   0.529 -0.2526  0.5483 -0.5613
   43MOL   C31132315   6.894   7.280   0.582  0.7036  0.0912  0.2573
   43MOL   C31232316   6.864   7.373   0.696 -0.1277  0.1003 -0.9796
   43MOL   O31332317   6.776   7.361   0.776  0.3177 -0.5612 -0.0169
   43MOL   N31432318   6.966   7.456   0.715  0.1640 -0.0226 -0.5743
   43MOL   C31532319   6.990   7.527   0.844 -0.1937 -0.0795 -0.4780
   43MOL   C31632320   7.106   7.463   0.919  0.1542 -0.1442  0.4241
   43MOL   C31732321   7.074   7.311   0.951 -0.5403  0.5799 -0.2152
   43MOL   C31832322   7.171   7.242   1.057  0.6093 -0.4869  0.4227
   43MOL   C31932323   7.317   7.235   1.006 -0.5533  0.7224 -0.5423
   43MOL   C32032324   7.409   7.159   1.116 -0.2535 -0.1964 -0.6935
   43MOL   N32132325   7.541   7.134   1.060 -0.2009 -0.4731 -0.3258
   43MOL   H32232326   6.538   7.421   0.386 -1.8352  0.3518  1.1757
   43MOL   H32332327   6.644   7.462   0.512 -1.0204  0.1633 -0.3339
   43MOL   H32432328   6.630   7.197   0.370  2.2781 -3.5818  2.3018
   43MOL   H32532329   6.758   7.311   0.351  1.3498 -2.4424  0.3542
   43MOL   H32632330   6.804   7.103   0.487 -0.1362  0.5584 -0.4868
   43MOL   H32732331   6.702   7.160   0.607  0.7141  0.4812  0.2460
   43MOL   H32832332   6.959   7.315   0.502 -0.8075  1.4248 -0.4161
   43MOL   H32932333   6.945   7.200   0.636 -1.4850 -2.7910 -1.7185
   43MOL   H33032334   7.037   7.464   0.644 -0.1744 -0.0599 -0.9237
   43MOL   H33132335   7.021   7.623   0.802  0.7378 -0.3590 -0.4394
   43MOL   H33232336   6.906   7.546   0.912 -0.0639  0.6589 -0.5145
   43MOL   H33332337   7.198   7.461   0.861  0.7511 -0.6201  1.3811
   43MOL   H33432338   7.145   7.510   1.009  1.8044  0.0902 -0.3913
   43MOL   H33532339   7.067   7.247   0.863  0.4622 -0.9416  0.7746
   43MOL   H33632340   6.975   7.315   0.996 -0.7262  1.8290 -0.7352
   43MOL   H33732341   7.161   7.278   1.159  1.5473 -0.9512  0.6845
   43MOL   H33832342   7.118   7.147   1.067  0.5167 -0.2857  1.9475
   43MOL   H33932343   7.317   7.182   0.910  1.4097 -2.9455  1.3638
   43MOL   H34032344   7.362   7.332   0.987  1.3352 -0.0507 -0.2215
   43MOL   H34132345   7.362   7.065   1.145 -0.4218  0.4483  1.1945
   43MOL   H34232346   7.418   7.207   1.214 -0.4377 -1.1984 -0.1773
   43MOL   H34332347   7.603   7.214   1.062 -0.9430  0.3033 -4.3125
   43MOL   C34432348   7.585   7.016   1.029 -0.6855  0.4330  0.4250
   43MOL   O34532349   7.521   6.911   1.027  0.6902 -0.3182 -0.5910
   43MOL   C34632350   0.023   7.004   0.989 -0.0469  0.1991  0.1404
   43MOL   C34732351   0.102   6.885   1.050  0.0929 -0.2742 -0.3875
   43MOL   C34832352   0.138   6.905   1.203 -0.2439 -0.5683 -0.4581
   43MOL   C34932353   0.227   6.789   1.249  0.6191 -0.6739 -0.6675
   43MOL   C35032354   0.364   6.773   1.184  0.9363 -0.4150 -0.1479
   43MOL   O35132355   0.444   6.867   1.190  0.0561  0.0013  0.3879
   43MOL   N35232356   0.392   6.658   1.120 -0.3000  0.0428  0.0974
   43MOL   C35332357   0.522   6.635   1.061  0.5328  0.3909  0.4260
   43MOL   C35432358   0.519   6.507   0.962  0.6624 -0.2465  0.1401
   43MOL   C35532359   0.525   6.375   1.041  0.0351  0.1847  0.4343
   43MOL   C35632360   0.506   6.248   0.947  0.6124 -0.1912  0.4887
   43MOL   C35732361   0.359   6.233   0.902  0.3244  1.0504 -0.1257
   43MOL   C35832362   0.334   6.106   0.830  0.5688  0.4440  0.2942
   43MOL   N35932363   0.197   6.084   0.791  0.2793  0.1880  0.1390
   43MOL   H36032364   0.009   7.004   0.880 -2.9267  0.2483  0.4887
   43MOL   H36132365   0.071   7.098   1.015  0.5455 -0.4886  1.5769
   43MOL   H36232366   0.063   6.786   1.029 -1.6596  0.4928 -0.8833
   43MOL   H36332367   0.192   6.889   0.988 -1.2651 -0.2563 -2.4067
   43MOL   H36432368   0.048   6.908   1.265  0.2295  3.1566  0.1692
   43MOL   H36532369   0.177   7.006   1.211 -1.6580 -0.2103  3.3959
   43MOL   H36632370   0.177   6.693   1.242  1.2654 -1.2216  1.7918
   43MOL   H36732371   0.247   6.802   1.356 -2.8244 -2.2717  0.2340
   43MOL   H36832372   0.318   6.591   1.105 -0.0328 -0.2441  0.0405
   43MOL   H36932373   0.558   6.716   0.997  1.6053 -1.0608 -0.8292
   43MOL   H37032374   0.599   6.622   1.138 -0.6720 -0.6740  1.4709
   43MOL   H37132375   0.421   6.509   0.915  1.4061 -1.7602 -1.5777
   43MOL   H37232376   0.603   6.523   0.894  1.3846  1.4577  1.4063
   43MOL   H37332377   0.458   6.371   1.126 -0.9947 -0.7439 -0.3946
   43MOL   H37432378   0.624   6.364   1.086 -0.0117 -1.6008  0.1474
   43MOL   H37532379   0.571   6.252   0.860  0.7355 -0.2424  0.5780
   43MOL   H37632380   0.524   6.157   1.004 -0.6529 -0.4456  0.5066
   43MOL   H37732381   0.298   6.251   0.991 -0.2016  2.7621 -0.8157
   43MOL   H37832382   0.337   6.315   0.835 -2.8609  1.1601  0.9962
   43MOL   H37932383   0.345   6.026   0.903  0.8338  0.5629  0.3843
   43MOL   H38032384   0.403   6.072   0.753  1.1078  2.3836 -0.0933
   43MOL   H38132385   0.131   6.031   0.846  2.8851 -0.4255  2.7473
   43MOL   C38232386   0.123   6.153   0.708 -0.0799  0.6087 -0.1058
   43MOL   O38332387   0.166   6.232   0.623 -0.0739 -0.0437 -0.1168
   43MOL   C38432388   7.677   6.131   0.712 -0.2793  0.0289 -0.0127
   43MOL   C38532389   7.591   6.227   0.628  0.4417 -0.2477 -0.0368
   43MOL   C38632390   7.456   6.227   0.700 -0.1204 -0.1703 -0.6206
   43MOL   C38732391   7.335   6.293   0.630 -0.3570  0.0778 -0.1049
   43MOL   C38832392   7.268   6.218   0.519  1.0841  0.0097 -0.3309
   43MOL   O38932393   7.337   6.207   0.419 -0.6280  0.2335  0.5089
   43MOL   N39032394   7.142   6.174   0.530 -0.1244  0.2357 -0.3206
   43MOL   C39132395   7.067   6.102   0.429  0.3620 -0.0362 -0.5096
   43MOL   C39232396   7.054   6.171   0.294  0.3083 -0.4050  0.3183
   43MOL   C39332397   6.961   6.294   0.303  0.0112  0.2689  0.5701
   43MOL   C39432398   6.830   6.274   0.378  0.5737  0.4173 -0.3466
   43MOL   C39532399   6.745   6.169   0.307  0.3987 -0.3646 -0.3295
   43MOL   C39632400   6.617   6.149   0.386  0.1825  0.2991  0.0365
   43MOL   N39732401   6.523   6.089   0.296 -0.0322 -0.2259 -0.3937
   43MOL   H39832402   7.649   6.038   0.662 -1.9208  0.4558  0.1048
   43MOL   H39932403   7.655   6.138   0.819  1.9828  1.7197  0.3838
   43MOL   H40032404   7.630   6.329   0.621 -3.7726  1.3471 -2.0354
   43MOL   H40132405   7.567   6.185   0.530  0.0527 -1.3099  0.5029
   43MOL   H40232406   7.474   6.267   0.799  1.0680 -2.7289  0.2324
   43MOL   H40332407   7.432   6.121   0.708  1.1160 -0.3718  0.3890
   43MOL   H40432408   7.362   6.396   0.608  2.5096 -1.4097 -4.0248
   43MOL   H40532409   7.252   6.290   0.701  0.1677 -1.3324  0.4583
   43MOL   H40632410   7.091   6.201   0.613  0.5614 -0.2437  0.2555
   43MOL   H40732411   7.128   6.013   0.414 -0.8206 -0.7479 -1.2565
   43MOL   H40832412   6.972   6.073   0.474 -0.4031  2.9698 -0.1017
   43MOL   H40932413   7.147   6.202   0.248 -1.9154  1.5624 -3.1474
   43MOL   H41032414   7.013   6.093   0.229  2.9968 -1.4479 -0.1552
   43MOL   H41132415   6.942   6.326   0.200  1.1096 -1.1644 -0.0946
   43MOL   H41232416   7.020   6.372   0.351 -0.1351  1.1024 -0.5927
   43MOL   H41332417   6.847   6.250   0.483 -1.2627 -0.2456 -0.1851
   43MOL   H41432418   6.779   6.371   0.378 -0.5789 -0.1766  0.4986
   43MOL   H41532419   6.735   6.186   0.200  0.9254 -2.0009 -0.6673
   43MOL   H41632420   6.800   6.074   0.306 -0.9222 -1.1429 -0.4875
   43MOL   H41732421   6.573   6.243   0.420  0.7421  0.9923 -1.1045
   43MOL   H41832422   6.644   6.084   0.468 -0.3236  0.1083  0.0539
   43MOL   H41932423   6.503   6.132   0.207  0.0934  1.7261  0.4919
   43MOL   C42032424   6.450   5.981   0.326 -0.2109 -0.0691 -0.1435
   43MOL   O42132425   6.466   5.924   0.426 -0.2476 -0.2255  0.0396
   43MOL   C42232426   6.354   5.933   0.213  0.5948 -0.2047  0.0549
   43MOL   C42332427   6.209   5.971   0.260 -0.2793 -0.2326 -0.3825
   43MOL   C42432428   6.104   5.912   0.165  0.0403 -0.0686  0.1378
   43MOL   C42532429   5.963   5.922   0.215  0.2484  0.3543  0.0640
   43MOL   C42632430   5.898   6.064   0.195 -0.0862 -0.3792  0.0741
   43MOL   O42732431   5.795   6.094   0.253 -0.2773 -0.0422  0.1659
   43MOL   N42832432   5.962   6.151   0.113  0.0679  0.2352  0.0954
   43MOL   C42932433   5.907   6.279   0.064 -0.6236  0.7399  0.1923
   43MOL   C43032434   5.894   6.262   7.617 -0.0900  0.2555 -0.1319
   43MOL   C43132435   5.878   6.395   7.546 -0.3777 -0.6097  1.0449
   43MOL   C43232436   6.008   6.473   7.531  0.1812  0.1149 -0.9713
   43MOL   C43332437   5.995   6.568   7.418 -0.5493 -0.1904  0.4345
   43MOL   C43432438   6.037   6.514   7.274  0.1624  0.0042 -0.4538
   43MOL   N43532439   6.020   6.618   7.179 -0.3857 -0.1478  0.5171
   43MOL   H43632440   6.365   5.976   0.114  1.6270 -1.0329 -0.1939
   43MOL   H43732441   6.348   5.825   0.197 -0.7605 -0.2660  0.8211
   43MOL   H43832442   6.191   5.930   0.359 -1.1109  0.9484 -0.0304
   43MOL   H43932443   6.197   6.078   0.275  0.3757 -0.2571  0.3414
   43MOL   H44032444   6.114   5.804   0.153  0.0063  0.1817 -2.2540
   43MOL   H44132445   6.125   5.943   0.063  0.7402  1.7667  0.8171
   43MOL   H44232446   5.951   5.881   0.315 -1.0326  0.8487  0.1284
   43MOL   H44332447   5.906   5.849   0.157  1.9989 -1.2811  0.3504
   43MOL   H44432448   6.052   6.113   0.087  0.0030 -0.2267  0.5266
   43MOL   H44532449   5.811   6.298   0.112  0.0038 -1.5440  2.4177
   43MOL   H44632450   5.991   6.342   0.092 -0.8982  0.2490  2.1913
   43MOL   H44732451   5.981   6.209   7.578 -0.2568 -0.8150  0.8993
   43MOL   H44832452   5.813   6.196   7.586  0.4426 -1.3114  1.6870
   43MOL   H44932453   5.800   6.451   7.597  0.9438  0.8780  1.4642
   43MOL   H45032454   5.853   6.365   7.444  2.0708 -1.0961  0.5679
   43MOL   H45132455   6.038   6.531   7.619 -0.4578  1.1001 -1.3970
   43MOL   H45232456   6.088   6.401   7.513  1.4389  0.6918  1.9109
   43MOL   H45332457   5.896   6.613   7.417 -1.2502 -1.6873  0.2246
   43MOL   H45432458   6.044   6.663   7.436 -1.2884  0.1390  0.7231
   43MOL   H45532459   5.974   6.434   7.235 -1.9670  1.7908 -0.8099
   43MOL   H45632460   6.134   6.466   7.283  2.0809  3.8822  0.3728
   43MOL   H45732461   6.031   6.710   7.219 -0.0777 -0.4484  1.1338
   43MOL   C45832462   5.992   6.601   7.043 -0.4135  0.2926  0.2106
   43MOL   O45932463   5.949   6.494   6.999 -0.0094  0.0635  0.5097
   43MOL   C46032464   5.997   6.723   6.953  0.1461  0.0519 -0.2507
   43MOL   C46132465   6.023   6.691   6.806 -0.4681 -0.0628  0.0538
   43MOL   C46232466   6.166   6.659   6.778 -0.4133  0.2211  0.0521
   43MOL   C46332467   6.207   6.608   6.635  0.6440  0.3984  0.7106
   43MOL   C46432468   6.185   6.706   6.522 -0.6580  0.2317  0.2732
   43MOL   O46532469   6.267   6.798   6.499 -0.1962  0.1030  0.0115
   43MOL   N46632470   6.086   6.685   6.434 -0.1136  0.1627  0.7113
   43MOL   C46732471   6.069   6.756   6.309  0.1175 -0.1953  0.4551
   43MOL   C46832472   6.122   6.665   6.201  0.6666  1.0125 -0.0106
   43MOL   C46932473   6.123   6.736   6.061  0.5964 -0.1761 -0.0185
   43MOL   C47032474   6.176   6.642   5.950  0.3912  0.1421 -0.2325
   43MOL   C47132475   6.182   6.717   5.814 -0.0107  0.8523  0.1322
   43MOL   C47232476   6.246   6.619   5.708  0.3525  0.0038  0.1156
   43MOL   N47332477   6.351   6.535   5.764  0.1436  0.3031 -0.3924
   43MOL   H47432478   5.896   6.762   6.959  0.2748  0.5858 -1.4279
   43MOL   H47532479   6.062   6.804   6.987  1.7841 -1.5039  0.4688
   43MOL   H47632480   5.965   6.609   6.764  0.0369 -0.1515 -0.4692
   43MOL   H47732481   5.994   6.777   6.746  0.9512 -1.1643 -2.2693
   43MOL   H47832482   6.194   6.581   6.850  2.0339  0.8439 -0.1946
   43MOL   H47932483   6.215   6.755   6.792  1.3495 -0.4635 -1.2406
   43MOL   H48032484   6.155   6.513   6.624  1.0896  0.5053 -2.7608
   43MOL   H48132485   6.312   6.581   6.630  0.9782  1.8717 -0.4662
   43MOL   H48232486   6.028   6.604   6.451  0.9535 -1.0448 -1.2756
   43MOL   H48332487   5.964   6.783   6.300 -0.4064 -2.8772 -2.9014
   43MOL   H48432488   6.117   6.853   6.319  3.8293 -1.5925 -2.4591
   43MOL   H48532489   6.227   6.651   6.229  0.3353 -1.4489  0.1112
   43MOL   H48632490   6.071   6.569   6.200  0.9031  0.8811  0.1846
   43MOL   H48732491   6.200   6.813   6.072 -0.0455  0.4526  0.1154
   43MOL   H48832492   6.026   6.780   6.037 -0.0966 -2.1748 -0.9512
   43MOL   H48932493   6.278   6.621   5.983  0.3107  0.1818  0.0401
   43MOL   H49032494   6.116   6.552   5.958  0.8678 -0.0143  2.1708
   43MOL   H49132495   6.083   6.749   5.781 -1.4993 -1.1745  2.4286
   43MOL   H49232496   6.249   6.802   5.827  1.3186 -0.1450 -0.0265
   43MOL   H49332497   6.296   6.675   5.628  0.8693 -1.2911 -0.4758
   43MOL   H49432498   6.175   6.552   5.660 -1.0590  1.0206  0.7289
   43MOL   H49532499   6.427   6.591   5.799 -2.1053  2.8476  0.5876
   43MOL   C49632500   6.359   6.400   5.774 -0.8724 -0.1809  0.2122
   43MOL   O49732501   6.262   6.337   5.740  0.3945  0.3443  0.4426
   43MOL   C49832502   6.488   6.333   5.815  0.1350 -0.4484 -0.8281
   43MOL   C49932503   6.475   6.295   5.959 -0.4789  0.4237  0.8271
   43MOL   C50032504   6.372   6.187   6.001 -0.2020 -0.2045  0.7145
   43MOL   C50132505   6.417   6.045   5.964 -0.9377 -0.6129 -0.2516
   43MOL   C50232506   6.356   5.926   6.038 -0.3063  0.8725 -0.0966
   43MOL   O50332507   6.259   5.932   6.120  0.4388 -0.0862 -0.4067
   43MOL   N50432508   6.426   5.810   6.027  0.0450 -0.1906  0.1547
   43MOL   C50532509   6.396   5.689   6.095  0.8325  0.1528  0.3024
   43MOL   C50632510   6.479   5.673   6.228 -0.1225 -0.0919  0.2039
   43MOL   C50732511   6.454   5.535   6.295 -0.5522  0.0716 -0.1160
   43MOL   C50832512   6.523   5.529   6.433  0.0680 -0.5503  0.1861
   43MOL   C50932513   6.685   5.520   6.439  0.4835  0.0472 -0.0888
   43MOL   C51032514   6.735   5.539   6.586 -0.1217 -0.5268 -0.4730
   43MOL   N51132515   6.883   5.545   6.597  0.0978 -0.1341 -0.7307
   43MOL   H51232516   6.500   6.247   5.748  0.2526  0.1529 -1.5908
   43MOL   H51332517   6.575   6.393   5.789 -0.4952  1.0505  0.5047
   43MOL   H51432518   6.567   6.291   6.017 -1.4052  0.3304  2.3114
   43MOL   H51532519   6.441   6.387   6.006 -1.6438  1.2477 -1.5562
   43MOL   H51632520   6.272   6.197   5.959 -1.0945 -3.1926  1.9610
   43MOL   H51732521   6.362   6.199   6.109  2.2738  0.4141  0.9137
   43MOL   H51832522   6.521   6.048   5.997 -0.5592 -0.1870 -1.4521
   43MOL   H51932523   6.401   6.026   5.858 -1.8626  0.3708 -0.3018
   43MOL   H52032524   6.513   5.802   5.977 -0.6082 -2.2260 -0.6607
   43MOL   H52132525   6.290   5.675   6.115  1.2701 -1.8288  1.3993
   43MOL   H52232526   6.427   5.609   6.028  0.2032 -1.5044  1.9255
   43MOL   H52332527   6.582   5.686   6.194 -1.2398  0.0342 -3.4381
   43MOL   H52432528   6.456   5.759   6.290 -2.6131  1.5892 -2.8973
   43MOL   H52532529   6.486   5.451   6.233 -0.7902  0.0640 -0.2312
   43MOL   H52632530   6.347   5.516   6.308 -0.3256  0.2467  2.0319
   43MOL   H52732531   6.484   5.621   6.478  1.0745  0.5951 -1.2315
   43MOL   H52832532   6.476   5.441   6.477  0.1340 -0.6664  0.0242
   43MOL   H52932533   6.721   5.422   6.408  0.6693 -0.8176  2.6990
   43MOL   H53032534   6.716   5.594   6.366  0.2337 -0.3970 -0.6445
   43MOL   H53132535   6.695   5.460   6.650  0.3785  0.4911  1.1340
   43MOL   H53232536   6.711   5.634   6.634 -0.4283  0.2236 -2.0932
   43MOL   H53332537   6.919   5.632   6.633 -0.2799 -1.2365  2.4859
   43MOL   C53432538   6.964   5.436   6.601 -0.1842  0.7770  0.3094
   43MOL   O53532539   6.934   5.323   6.573  0.4666 -0.4416 -0.0494
   43MOL   C53632540   7.109   5.454   6.649  0.9897 -0.7451  0.0780
   43MOL   C53732541   7.211   5.347   6.593  0.6978  0.4785 -0.5560
   43MOL   C53832542   7.358   5.372   6.648 -0.7259 -0.6542 -0.0017
   43MOL   C53932543   7.475   5.270   6.629 -0.5886  0.1662  0.3589
   43MOL   C54032544   7.516   5.245   6.488 -0.9359 -0.6704  0.3794
   43MOL   O54132545   7.466   5.305   6.390  0.1047 -0.6576  0.6886
   43MOL   N54232546   7.616   5.161   6.466 -0.1437 -0.4668  0.4428
   43MOL   C54332547   7.684   5.137   6.336  0.5492 -0.0152 -0.0407
   43MOL   C54432548   0.099   5.225   6.329  0.1300 -0.2129  0.6622
   43MOL   C54532549   0.185   5.216   6.204  0.1692  0.1840  0.4885
   43MOL   C54632550   0.270   5.094   6.198  0.2316 -0.1072 -0.3976
   43MOL   C54732551   0.368   5.084   6.076 -0.4640  0.7448 -0.7946
   43MOL   C54832552   0.467   4.963   6.083  0.2085 -0.2158 -0.1127
   43MOL   N54932553   0.567   4.956   6.188  0.1457 -0.5010  0.2175
   43MOL   H55032554   7.142   5.549   6.607  0.5233 -0.0957  1.1391
   43MOL   H55132555   7.099   5.459   6.758  0.0620  1.9616 -0.0970
   43MOL   H55232556   7.187   5.254   6.644 -1.3374  0.8635 -0.7878
   43MOL   H55332557   7.206   5.326   6.487 -0.5003 -3.2486  0.1577
   43MOL   H55432558   7.359   5.390   6.756  1.3759  1.4080 -0.3292
   43MOL   H55532559   7.392   5.471   6.618 -0.5760 -0.1380  1.8037
   43MOL   H55632560   7.445   5.177   6.677 -0.7227 -0.0042 -0.0552
   43MOL   H55732561   7.564   5.298   6.686 -0.2227  1.5580 -0.8626
   43MOL   H55832562   7.653   5.092   6.530  0.3732 -0.9612 -0.3771
   43MOL   H55932563   7.705   5.031   6.324  0.6916  0.2150 -1.9402
   43MOL   H56032564   7.620   5.164   6.252  0.1287 -3.4375 -0.8864
   43MOL   H56132565   0.065   5.328   6.332 -1.0388 -0.4595 -2.2732
   43MOL   H56232566   0.168   5.213   6.413  0.2752 -2.2644  0.2816
   43MOL   H56332567   0.240   5.309   6.189 -0.3151 -0.0472 -3.0908
   43MOL   H56432568   0.127   5.226   6.112 -0.4821 -1.2288  0.7351
   43MOL   H56532569   0.316   5.083   6.297 -2.4161  3.0025  1.2662
   43MOL   H56632570   0.207   5.005   6.200  1.7861 -1.2277 -0.2710
   43MOL   H56732571   0.320   5.077   5.979  0.1916  0.2732 -1.0906
   43MOL   H56832572   0.420   5.178   6.058 -0.4061  0.3295 -2.8862
   43MOL   H56932573   0.523   4.959   5.990  1.3610 -0.4524  0.5821
   43MOL   H57032574   0.413   4.869   6.085 -2.7016  1.3782  0.1557
   43MOL   H57132575   0.560   5.022   6.265  0.2958 -0.8727  0.5510
   43MOL   C57232576   0.689   4.902   6.181 -0.2189  0.4451 -0.1910
   43MOL   O57332577   0.731   4.843   6.079 -0.0380 -0.2746 -0.1401
   43MOL   C57432578   0.779   4.916   6.307 -0.4837  0.1185 -0.4559
   43MOL   C57532579   0.844   4.790   6.362 -0.0879 -0.3180 -0.4707
   43MOL   C57632580   0.916   4.817   6.501 -0.2074 -0.2868  0.4328
   43MOL   C57732581   0.967   4.684   6.568  0.0270  0.5718  0.4537
   43MOL   C57832582   0.868   4.618   6.664  0.2135 -0.1540 -0.4808
   43MOL   O57932583   0.856   4.664   6.776  0.1243  0.1445 -0.6322
   43MOL   N58032584   0.798   4.515   6.616 -0.1645  0.5089 -0.3280
   43MOL   C58132585   0.695   4.441   6.691  0.5044  0.8939 -0.5391
   43MOL   C58232586   0.749   4.310   6.727  0.5740  0.0295 -0.3126
   43MOL   C58332587   0.830   4.230   6.621  0.1978 -0.4542 -0.1792
   43MOL   C58432588   0.852   4.081   6.660 -0.4384 -0.3653  0.3491
   43MOL   C58532589   0.930   3.995   6.555 -0.1587 -0.2129  0.5779
   43MOL   C58632590   0.961   3.846   6.582 -0.3554 -0.6285 -0.1554
   43MOL   N58732591   1.047   3.834   6.694  0.0797 -0.4376 -0.2083
   43MOL   H58832592   0.853   4.994   6.295 -0.2916  0.4898  2.8280
   43MOL   H58932593   0.710   4.957   6.381  2.2194  2.5848  0.8051
   43MOL   H59032594   0.776   4.708   6.384  1.6870 -0.8537  3.4934
   43MOL   H59132595   0.915   4.746   6.291  0.4067  0.0307 -0.1936
   43MOL   H59232596   0.836   4.863   6.560  1.4963  0.7500  1.9645
   43MOL   H59332597   0.994   4.892   6.501 -0.6708  0.2137  2.2164
   43MOL   H59432598   1.053   4.713   6.628  0.6365 -0.0991 -0.0784
   43MOL   H59532599   1.001   4.610   6.495  0.2341  1.2190 -0.1155
   43MOL   H59632600   0.823   4.492   6.521  0.1376  1.3354 -0.4565
   43MOL   H59732601   0.654   4.483   6.783 -2.0958  0.6794 -1.5634
   43MOL   H59832602   0.603   4.451   6.633  0.0428  1.3349  0.2516
   43MOL   H59932603   0.810   4.328   6.815  0.9263  0.3342 -0.6184
   43MOL   H60032604   0.669   4.247   6.766 -0.2288  2.0267  1.3551
   43MOL   H60132605   0.928   4.277   6.609 -0.2191  0.4806 -0.0050
   43MOL   H60232606   0.775   4.238   6.527 -0.8112 -0.3937  0.4053
   43MOL   H60332607   0.900   4.082   6.759 -0.4436 -1.1862  0.3653
   43MOL   H60432608   0.759   4.042   6.701 -1.0528 -0.0167 -0.7252
   43MOL   H60532609   0.869   4.010   6.466 -2.7509  0.6291  2.4095
   43MOL   H60632610   1.020   4.047   6.524 -0.9117 -0.0692 -1.4447
   43MOL   H60732611   1.017   3.807   6.498  2.0538 -1.5976  1.8562
   43MOL   H60832612   0.860   3.817   6.612 -1.1437  1.9075 -0.1983
   43MOL   H60932613   1.091   3.919   6.727 -0.2802  0.2507 -1.4601
   43MOL   C61032614   1.096   3.713   6.724 -0.4787 -0.5297 -0.2853
   43MOL   O61132615   1.046   3.609   6.690  0.1728  0.0769 -0.0831
   43MOL   C61232616   1.225   3.710   6.812  0.4617  0.7727 -0.5718
   43MOL   C61332617   1.204   3.654   6.955 -0.1219  0.3852  0.3680
   43MOL   C61432618   1.163   3.756   7.056  0.3231  0.5042 -0.1644
   43MOL   C61532619   1.181   3.732   7.211 -0.0296 -0.0035  0.0456
   43MOL   C61632620   1.060   3.693   7.291  0.3334  0.0425 -0.3750
   43MOL   O61732621   0.951   3.754   7.285  0.2575 -0.4932  0.0422
   43MOL   N61832622   1.081   3.599   7.384  0.1589 -0.1688 -0.1226
   43MOL   C61932623   0.984   3.538   7.473  0.2914 -0.2942  0.5103
   43MOL   C62032624   0.950   3.396   7.419 -0.6263 -0.3004  0.3226
   43MOL   C62132625   0.877   3.311   7.520  0.2212 -0.6055 -0.7103
   43MOL   C62232626   0.866   3.167   7.458 -0.0715 -0.0109  0.1090
   43MOL   C62332627   0.826   3.054   7.550  0.2330  0.0147  0.2589
   43MOL   C62432628   0.839   2.916   7.476 -0.5889  0.0141  0.6237
   43MOL   N62532629   0.746   2.906   7.363 -0.0748  0.5389 -0.4304
   43MOL   H62632630   1.303   3.654   6.760  0.2689 -0.9165  0.9326
   43MOL   H62732631   1.267   3.811   6.812 -0.2251  1.0590 -0.3197
   43MOL   H62832632   1.141   3.565   6.953  0.0296  0.2892 -0.3591
   43MOL   H62932633   1.306   3.626   6.981  0.7358  0.8440 -2.2817
   43MOL   H63032634   1.059   3.786   7.047 -0.1277 -1.2451 -1.0210
   43MOL   H63132635   1.228   3.840   7.030  1.2613 -0.4898 -1.1352
   43MOL   H63232636   1.223   3.824   7.252 -0.7576  0.0055  0.7803
   43MOL   H63332637   1.268   3.669   7.228 -0.4135 -0.4480  0.3690
   43MOL   H63432638   1.176   3.565   7.386 -0.0939 -0.7716  2.5375
   43MOL   H63532639   1.028   3.540   7.573 -1.0194  1.7729  1.0804
   43MOL   H63632640   0.895   3.600   7.480  0.5412  0.4077 -2.0155
   43MOL   H63732641   0.881   3.404   7.335 -1.0966 -0.6585  0.6705
   43MOL   H63832642   1.043   3.351   7.385 -0.4328  1.1798 -1.1696
   43MOL   H63932643   0.783   3.361   7.545  1.2377  0.9138  0.1462
   43MOL   H64032644   0.946   3.301   7.604 -2.5509 -0.6081  1.6852
   43MOL   H64132645   0.806   3.167   7.367 -1.1641 -1.2548  0.8063
   43MOL   H64232646   0.970   3.149   7.432 -0.4097 -0.3610 -1.0215
   43MOL   H64332647   0.885   3.056   7.641 -0.4265 -0.0467  0.6935
   43MOL   H64432648   0.718   3.046   7.565  0.1304  0.2214 -0.3536
   43MOL   H64532649   0.819   2.830   7.540  0.7610 -0.9775 -0.2527
   43MOL   H64632650   0.940   2.902   7.436 -0.0702  0.7141  1.6684
   43MOL   H64732651   0.650   2.931   7.382 -1.2313 -2.4231 -1.9567
   43MOL   C64832652   0.771   2.860   7.239 -0.1627 -0.5724 -0.4720
   43MOL   O64932653   0.886   2.824   7.203 -0.3318  0.2580  1.2054
   43MOL   C65032654   0.655   2.859   7.137 -0.2516  0.3767 -0.6137
   43MOL   C65132655   0.650   2.996   7.073 -0.3094 -0.1797 -0.3268
   43MOL   C65232656   0.745   3.026   6.960  1.0366  0.8832 -0.1473
   43MOL   C65332657   0.742   3.168   6.901  1.3206 -0.1128 -0.2297
   43MOL   C65432658   0.781   3.285   6.998 -0.1259  0.3985 -0.3365
   43MOL   O65532659   0.770   3.268   7.117  0.2665 -0.1980 -0.2293
   43MOL   N65632660   0.813   3.404   6.939 -0.6852  0.0295  0.3459
   43MOL   C65732661   0.844   3.524   7.015  0.1284 -0.6961 -0.1023
   43MOL   C65832662   0.726   3.626   7.019  0.1014  0.6150 -0.3499
   43MOL   C65932663   0.585   3.571   7.053  0.3492  0.7298 -0.0925
   43MOL   C66032664   0.480   3.672   7.065  0.6345  0.0670  0.4414
   43MOL   C66132665   0.345   3.611   7.086  0.1302 -0.4108 -0.1964
   43MOL   C66232666   0.243   3.710   7.148 -1.2188 -0.8803 -0.6254
   43MOL   N66332667   0.109   3.651   7.161  0.5645 -0.0813  0.4237
   43MOL   H66432668   0.659   2.785   7.058  0.2523 -0.8878  0.5845
   43MOL   H66532669   0.567   2.833   7.196  1.4176  0.3155  1.9107
   43MOL   H66632670   0.551   3.006   7.028 -0.3393  1.5021  0.0707
   43MOL   H66732671   0.655   3.057   7.163  3.8807 -2.8005  1.3408
   43MOL   H66832672   0.728   2.952   6.882  0.3479  2.0085 -1.0732
   43MOL   H66932673   0.846   3.005   6.995  0.4227 -1.2995  0.3650
   43MOL   H67032674   0.642   3.187   6.862  0.0415 -3.6652  1.1224
   43MOL   H67132675   0.809   3.161   6.815 -2.2714 -0.7611 -3.0890
   43MOL   H67232676   0.804   3.407   6.838 -2.0217  3.6958  0.4930
   43MOL   H67332677   0.895   3.504   7.110  1.3206 -1.9149 -0.9849
   43MOL   H67432678   0.922   3.567   6.953 -0.6697 -0.2859 -0.8276
   43MOL   H67532679   0.756   3.692   7.100  0.7826  1.3818 -1.2145
   43MOL   H67632680   0.721   3.695   6.935  0.2789  1.0404 -0.0123
   43MOL   H67732681   0.599   3.514   7.146  1.1756 -0.4319 -0.9148
   43MOL   H67832682   0.555   3.511   6.968  0.2938  0.2699  0.2471
   43MOL   H67932683   0.504   3.736   7.149 -0.2739  1.2144 -0.1612
   43MOL   H68032684   0.482   3.734   6.975  1.4426 -0.9768 -0.2777
   43MOL   H68132685   0.298   3.566   6.999 -1.3742  2.9764 -1.2234
   43MOL   H68232686   0.361   3.530   7.157 -0.8766  0.6208  1.2305
   43MOL   H68332687   0.234   3.804   7.092 -1.9545  0.5147  1.7832
   43MOL   H68432688   0.283   3.736   7.246  1.8273 -1.0694 -1.7549
   43MOL   H68532689   0.057   3.631   7.077  0.8660  0.4893  0.0941
   43MOL   C68632690   0.054   3.612   7.282  0.1295  0.1194  0.4905
   43MOL   O68732691   0.114   3.620   7.386 -0.0976  0.0884 -0.0536
   43MOL   C68832692   7.628   3.542   7.278  0.4125  0.4603  0.5296
   43MOL   C68932693   7.524   3.599   7.380  0.8227 -0.2410  0.2087
   43MOL   C69032694   7.383   3.543   7.366 -0.1020 -0.0147 -1.0353
   43MOL   C69132695   7.379   3.388   7.392 -0.5384 -0.0012  0.4904
   43MOL   C69232696   7.237   3.339   7.427 -0.2481 -0.0334 -0.4624
   43MOL   O69332697   7.139   3.409   7.392  0.0994 -0.0284  0.3189
   43MOL   N69432698   7.228   3.237   7.518 -0.2301  0.1422  0.0872
   43MOL   C69532699   7.106   3.191   7.580  0.0710 -0.3893 -0.2207
   43MOL   C69632700   7.106   3.053   7.655 -0.2970  0.4745  0.3390
   43MOL   C69732701   6.977   3.027   0.027  0.4529  0.5769  0.5848
   43MOL   C69832702   6.988   2.907   0.121  0.0540  0.4459  0.0110
   43MOL   C69932703   6.869   2.898   0.220  0.7624 -0.1167  0.0836
   43MOL   C70032704   6.881   2.762   0.292  0.4937  0.4464 -0.4963
   43MOL   N70132705   6.779   2.726   0.387 -0.2569  0.1322  0.2073
   43MOL   H70232706   7.586   3.552   7.178  1.1224 -1.6263  0.0027
   43MOL   H70332707   7.648   3.440   7.310 -1.0641  0.5206  1.6935
   43MOL   H70432708   7.558   3.579   7.482 -0.0006 -0.7639  0.3882
   43MOL   H70532709   7.516   3.708   7.372 -1.4101 -0.4962 -1.5993
   43MOL   H70632710   7.339   3.562   7.269 -1.7286  0.9370 -0.1349
   43MOL   H70732711   7.318   3.592   7.438 -0.3934 -0.3188 -1.0914
   43MOL   H70832712   7.444   3.365   7.476 -1.8068  1.4102  1.8834
   43MOL   H70932713   7.417   3.343   7.300 -0.6048 -1.1586  1.0108
   43MOL   H71032714   7.313   3.188   7.544  0.4340  1.4269  0.3602
   43MOL   H71132715   7.064   3.270   7.643  0.4064  0.4946 -1.0834
   43MOL   H71232716   7.027   3.194   7.505  1.7923 -1.7492 -2.1694
   43MOL   H71332717   7.126   2.976   7.581  2.0328 -0.6182  2.0151
   43MOL   H71432718   7.194   3.042   0.011  0.5998 -0.5774 -1.0289
   43MOL   H71532719   6.899   3.018   7.659 -1.3857 -0.5869  2.5247
   43MOL   H71632720   6.948   3.120   0.076  2.7841  2.1841 -1.0038
   43MOL   H71732721   6.992   2.830   0.044 -1.1863  1.4745 -1.1115
   43MOL   H71832722   7.080   2.913   0.178  1.2772 -0.1216 -1.8701
   43MOL   H71932723   6.873   2.974   0.299 -2.6187  1.0652 -0.8107
   43MOL   H72032724   6.774   2.914   0.168  1.2444  1.8137 -0.2538
   43MOL   H72132725   6.981   2.767   0.334 -0.1852  0.7275  1.1095
   43MOL   H72232726   6.896   2.686   0.215  1.2848 -1.3621  1.3787
   43MOL   H72332727   6.682   2.738   0.363 -0.5094  0.1071  1.2059
   43MOL   C72432728   6.799   2.676   0.512 -0.1822 -0.2548  0.0112
   43MOL   O72532729   6.908   2.664   0.560  0.0732  0.3616 -0.0938
   43MOL   C72632730   6.665   2.652   0.588  0.3591  0.4129 -0.1506
   43MOL   C72732731   6.601   2.514   0.553 -0.0064 -0.3937  0.7668
   43MOL   C72832732   6.694   2.405   0.604  0.1176  0.0757 -0.4357
   43MOL   C72932733   6.663   2.266   0.537  0.3720  0.2383  0.8451
   43MOL   C73032734   6.532   2.224   0.592  0.8961 -0.4487 -0.1128
   43MOL   O73132735   6.514   2.243   0.714 -0.6534 -0.4368 -0.3554
   43MOL   N73232736   6.437   2.177   0.515  0.3218 -0.0134  0.1366
   43MOL   C73332737   6.300   2.150   0.554 -0.3013 -0.1839 -0.3324
   43MOL   C73432738   6.208   2.268   0.538  0.1613 -0.2800 -0.4560
   43MOL   C73532739   6.064   2.239   0.577  0.4673  0.7507 -0.1573
   43MOL   C73632740   5.967   2.364   0.546 -0.0353 -0.1467  0.6115
   43MOL   C73732741   6.021   2.495   0.610 -0.9029 -0.3505  0.3223
   43MOL   C73832742   5.925   2.623   0.587 -0.2304  0.4028  0.1513
   43MOL   N73932743   5.972   2.725   0.677 -0.2901  0.4051 -0.3112
   43MOL   H74032744   6.691   2.659   0.694 -1.3100  3.7560  0.1083
   43MOL   H74132745   6.593   2.731   0.568  1.7171  2.1136  1.4764
   43MOL   H74232746   6.508   2.511   0.609 -1.1803 -1.4272 -1.1929
   43MOL   H74332747   6.581   2.500   0.447  0.1401  0.5557  0.6115
   43MOL   H74432748   6.693   2.398   0.713  0.5351 -4.3363 -0.6037
   43MOL   H74532749   6.800   2.415   0.583  0.0466  0.5857 -0.5582
   43MOL   H74632750   6.739   2.190   0.555 -0.6988 -1.1255 -0.3280
   43MOL   H74732751   6.670   2.280   0.429 -1.1506  0.3401  0.7574
   43MOL   H74832752   6.445   2.177   0.414  0.2852 -0.5688  0.1290
   43MOL   H74932753   6.282   2.069   0.483  0.7887 -1.6811  1.0705
   43MOL   H75032754   6.288   2.108   0.654 -3.4285  3.2029  0.7978
   43MOL   H75132755   6.259   2.351   0.586  0.7899 -0.0288 -1.5421
   43MOL   H75232756   6.204   2.285   0.430  0.1158 -1.5321 -0.6649
   43MOL   H75332757   6.059   2.238   0.686  2.7959 -0.3202 -0.0319
   43MOL   H75432758   6.029   2.136   0.563 -0.8721  1.2449 -0.5466
   43MOL   H75532759   5.954   2.395   0.442 -1.4316 -0.0353  0.8097
   43MOL   H75632760   5.862   2.346   0.567 -1.0087  3.3893 -0.9250
   43MOL   H75732761   6.038   2.477   0.716 -1.3299  0.3192  0.5045
   43MOL   H75832762   6.117   2.518   0.564 -0.2118 -3.3044  0.1888
   43MOL   H75932763   5.820   2.595   0.599  0.0418 -0.0136  1.5900
   43MOL   H76032764   5.927   2.664   0.486 -0.1413 -0.5453 -0.2421
   43MOL   H76132765   6.072   2.731   0.667 -0.2338 -2.1153 -1.4339
   43MOL   H76232766   5.923   2.814   0.672 -0.2905  0.5954  2.4366
   44MOL     C132767   6.478   2.423   7.260 -0.4192  0.3105  0.7073
   44MOL     O232768   6.389   2.501   7.302  0.2166  0.2675 -0.0523
   44MOL     C332769   6.511   2.435   7.118 -0.0399  0.5640  0.3567
   44MOL     C432770   6.573   2.309   7.053  0.1638  0.0629 -0.3560
   44MOL     C532771   6.475   2.187   7.059  0.1183  0.3937  0.0874
   44MOL     C632772   6.338   2.219   6.986  0.2606  0.4162  0.1329
   44MOL     C732773   6.252   2.095   6.980 -0.5505  0.4164 -0.3475
   44MOL     O832774   6.302   1.983   6.992  0.4234 -0.3219 -0.3016
   44MOL     N932775   6.122   2.117   6.987  0.4116 -1.1713  1.0202
   44MOL    C1032776   6.020   2.021   7.019 -0.7491  0.0793 -0.7736
   44MOL    C1132777   5.988   1.912   6.915 -0.3775  0.0987  0.1782
   44MOL    C1232778   5.885   1.960   6.811  0.0621  0.8591  0.2238
   44MOL    C1332779   5.828   1.855   6.724 -0.0549 -0.5070 -0.0703
   44MOL    C1432780   5.722   1.915   6.636 -0.0830  0.8461 -0.1382
   44MOL    C1532781   5.671   1.816   6.532 -0.0830 -0.1540  0.0224
   44MOL    N1632782   5.576   1.878   6.437  0.5398  0.4621 -0.0675
   44MOL    H1732783   6.420   2.454   7.059  1.2855 -2.4802 -2.8649
   44MOL    H1832784   6.571   2.523   7.097 -0.9460  0.6566 -2.1073
   44MOL    H1932785   6.599   2.328   6.949 -0.5875 -1.4690 -0.8392
   44MOL    H2032786   6.666   2.299   7.109 -0.9320  0.1658  1.5396
   44MOL    H2132787   6.465   2.162   7.164 -1.2481 -0.9326 -0.3347
   44MOL    H2232788   6.530   2.104   7.013  0.4576 -0.6877  2.3946
   44MOL    H2332789   6.360   2.260   6.888 -0.5159  1.8148  0.5235
   44MOL    H2432790   6.287   2.286   7.056  1.9139  3.1077 -1.1573
   44MOL    H2532791   6.096   2.211   6.961  1.0674 -1.1167  0.5366
   44MOL    H2632792   6.066   1.960   7.097 -0.6712  0.1795 -0.7414
   44MOL    H2732793   5.930   2.067   7.061 -0.5864 -1.5215  1.4691
   44MOL    H2832794   6.079   1.884   6.863 -0.0994 -0.3397  0.8861
   44MOL    H2932795   5.949   1.822   6.963  2.6555 -2.4795 -1.9874
   44MOL    H3032796   5.933   2.032   6.745  1.7526 -1.9212 -1.6895
   44MOL    H3132797   5.801   2.007   6.862 -1.4168 -2.2089  0.7060
   44MOL    H3232798   5.912   1.806   6.674  0.7214 -1.7153  2.2958
   44MOL    H3332799   5.769   1.776   6.772  0.7378 -1.7523 -1.0993
   44MOL    H3432800   5.643   1.957   6.698 -0.1430  0.2937  0.1634
   44MOL    H3532801   5.751   2.004   6.580 -1.8637  2.0377  0.7690
   44MOL    H3632802   5.629   1.731   6.587  0.2575  0.2457  0.9064
   44MOL    H3732803   5.760   1.776   6.485 -0.3980 -1.2591  0.3521
   44MOL    H3832804   5.547   1.973   6.457 -2.7510 -0.5639  0.2845
   44MOL    H3932805   6.531   2.361   7.332  0.4623  0.9198  0.5904
   44MOL    C4032806   5.559   1.836   6.312 -0.2140  0.0191  0.0579
   44MOL    O4132807   5.517   1.905   6.217 -0.2626 -0.0163 -0.3123
   44MOL    C4232808   5.603   1.689   6.278 -0.5212 -0.5997 -0.6195
   44MOL    C4332809   5.512   1.616   6.180  0.4254  0.0596  0.3436
   44MOL    C4432810   5.497   1.473   6.216 -0.1211  0.3333 -0.0184
   44MOL    C4532811   5.634   1.395   6.208  0.0016  0.6755 -0.4609
   44MOL    C4632812   5.621   1.247   6.172 -0.3877 -0.6955  0.7687
   44MOL    O4732813   5.518   1.181   6.206  0.3863  0.3175  0.2362
   44MOL    N4832814   5.720   1.194   6.096 -0.4776  0.2069  0.0987
   44MOL    C4932815   5.712   1.063   6.027 -0.0033 -0.0744  0.8061
   44MOL    C5032816   5.582   1.020   5.949  0.2558  0.3775  0.2713
   44MOL    C5132817   5.596   0.877   5.893 -0.1389  0.1427  0.0724
   44MOL    C5232818   5.464   0.814   5.837  0.3648 -0.0644 -1.1040
   44MOL    C5332819   5.484   0.667   5.810 -0.8299 -0.1052  0.1036
   44MOL    C5432820   5.531   0.632   5.667 -0.0803  0.3698  0.2031
   44MOL    N5532821   5.462   0.704   5.565  0.0725  0.3979 -0.2941
   44MOL    H5632822   5.693   1.722   6.227 -0.3633 -1.1757 -0.7188
   44MOL    H5732823   5.628   1.624   6.362 -2.3846 -1.7157 -0.9017
   44MOL    H5832824   5.417   1.670   6.176 -0.1788 -0.8249  2.4110
   44MOL    H5932825   5.557   1.632   6.082  0.5932 -0.3622  0.3506
   44MOL    H6032826   5.425   1.425   6.149 -1.0590 -0.9076  1.8275
   44MOL    H6132827   5.462   1.469   6.319 -0.6431  2.5929 -0.0874
   44MOL    H6232828   5.687   1.395   6.303 -0.3189  1.0822 -0.2841
   44MOL    H6332829   5.684   1.451   6.129  0.1653  0.5715 -0.4313
   44MOL    H6432830   5.805   1.248   6.087 -0.9557  1.1513  1.0583
   44MOL    H6532831   5.799   1.046   5.965  2.0008 -0.5009  3.6107
   44MOL    H6632832   5.728   0.990   6.107  1.7138 -0.3612  0.2115
   44MOL    H6732833   5.492   1.025   6.010  0.3118  1.2986  0.2790
   44MOL    H6832834   5.560   1.090   5.869  1.7126 -0.0236 -0.5020
   44MOL    H6932835   5.635   0.815   5.974  0.6566 -0.7234 -0.9588
   44MOL    H7032836   5.671   0.871   5.814 -0.8246  1.8231 -0.7324
   44MOL    H7132837   5.387   0.814   5.915  0.7305 -0.5179 -0.7385
   44MOL    H7232838   5.434   0.863   5.745 -0.5965  0.1803 -0.6686
   44MOL    H7332839   5.545   0.618   5.886  1.2811 -0.9520 -2.0659
   44MOL    H7432840   5.388   0.616   5.821 -1.4530  1.2533  1.0106
   44MOL    H7532841   5.509   0.528   5.644  0.4193  0.7259 -2.0703
   44MOL    H7632842   5.638   0.647   5.655 -0.0389 -0.0680  0.0114
   44MOL    H7732843   5.369   0.664   5.555 -0.0378  0.7199 -0.5716
   44MOL    C7832844   5.518   0.798   5.483  0.0383  0.5084 -0.0875
   44MOL    O7932845   5.615   0.857   5.513 -0.4600 -0.0168  0.3307
   44MOL    C8032846   5.464   0.798   5.339  0.7170 -0.5442 -0.3921
   44MOL    C8132847   5.477   0.944   5.284  0.3015  0.3002  0.4777
   44MOL    C8232848   5.415   0.963   5.141  0.4870  0.1619 -0.9791
   44MOL    C8332849   5.404   1.107   5.108  0.0976 -0.9731  0.0342
   44MOL    C8432850   5.535   1.177   5.068 -0.5142 -0.1805 -0.3291
   44MOL    O8532851   5.588   1.165   4.957  0.2626  0.0565  0.5556
   44MOL    N8632852   5.576   1.265   5.158  0.5210 -0.4205 -0.4830
   44MOL    C8732853   5.684   1.357   5.149 -0.7954 -1.2085 -0.1621
   44MOL    C8832854   5.820   1.289   5.191 -0.1901  0.2835 -0.5599
   44MOL    C8932855   5.937   1.390   5.190 -0.6594 -0.0561  0.0147
   44MOL    C9032856   5.925   1.506   5.293 -0.4957  0.0628  0.1656
   44MOL    C9132857   6.059   1.569   5.328 -0.0631  0.4427 -0.1024
   44MOL    C9232858   6.074   1.647   5.465 -0.2748 -0.1396 -0.0623
   44MOL    N9332859   6.210   1.696   5.477  0.0850 -0.9267  0.2088
   44MOL    H9432860   5.497   0.726   5.264  0.0358  1.1282 -2.3730
   44MOL    H9532861   5.359   0.773   5.353  0.8384 -1.6041 -1.3246
   44MOL    H9632862   5.427   1.015   5.350  2.1388  1.4733  0.6475
   44MOL    H9732863   5.582   0.972   5.279  0.1022  1.1151  0.8242
   44MOL    H9832864   5.316   0.917   5.145  2.4633 -4.3224 -1.2667
   44MOL    H9932865   5.485   0.911   5.075  0.4531 -0.6281 -0.4077
   44MOL   H10032866   5.353   1.171   5.179  0.7436 -1.1964  0.7025
   44MOL   H10132867   5.354   1.117   5.012 -0.2241 -0.7953  0.2229
   44MOL   H10232868   5.519   1.270   5.241 -1.4703 -0.3530 -1.8160
   44MOL   H10332869   5.688   1.383   5.044  0.6741  1.4359  0.5246
   44MOL   H10432870   5.668   1.445   5.211 -1.0646 -3.3888  3.0015
   44MOL   H10532871   5.805   1.232   5.283  0.0326  1.4165  0.1905
   44MOL   H10632872   5.845   1.216   5.115 -0.0072 -0.5373  0.2827
   44MOL   H10732873   5.948   1.437   5.093  0.6502  2.0789  1.1690
   44MOL   H10832874   6.026   1.334   5.218  0.5549  2.2081  0.8091
   44MOL   H10932875   5.854   1.581   5.258  0.2133  1.0779  0.8815
   44MOL   H11032876   5.874   1.468   5.381  0.5916  0.4433  0.9747
   44MOL   H11132877   6.128   1.485   5.334  0.5477  0.5851 -3.6017
   44MOL   H11232878   6.087   1.638   5.248  0.4642 -0.9244 -1.0989
   44MOL   H11332879   6.058   1.574   5.544 -0.8690  0.6226  0.5294
   44MOL   H11432880   6.005   1.730   5.478 -1.2778 -1.0623  0.5397
   44MOL   H11532881   6.278   1.644   5.424  0.6848 -0.3284  0.3801
   44MOL   C11632882   6.249   1.799   5.556 -0.4186  0.8520 -0.2127
   44MOL   O11732883   6.173   1.861   5.631  0.3592 -0.1788  0.3958
   44MOL   C11832884   6.400   1.825   5.547  0.5489 -0.3574  0.1784
   44MOL   C11932885   6.462   1.829   5.692  0.3209  0.5185  0.1755
   44MOL   C12032886   6.439   1.698   5.771 -0.2995 -0.1434  0.6657
   44MOL   C12132887   6.503   1.697   5.914  0.1119  0.7229  0.3274
   44MOL   C12232888   6.661   1.680   5.914  0.1426  0.5123 -0.1499
   44MOL   O12332889   6.732   1.766   5.869  0.3580  0.1209  0.1684
   44MOL   N12432890   6.724   1.573   5.966 -0.8097 -0.7918 -0.8541
   44MOL   C12532891   6.867   1.541   5.979  0.2985 -0.4021 -0.2710
   44MOL   C12632892   6.937   1.486   5.861 -0.0178  0.1578  0.4927
   44MOL   C12732893   7.088   1.492   5.859 -0.4059  0.0249 -0.9723
   44MOL   C12832894   7.156   1.466   5.722  0.3986  0.3173  0.0979
   44MOL   C12932895   7.312   1.447   5.726  0.5307 -0.1466 -0.0156
   44MOL   C13032896   7.384   1.436   5.591 -0.1412 -0.7167  0.0229
   44MOL   N13132897   7.526   1.418   5.615 -0.2005  1.0931  0.7428
   44MOL   H13232898   6.448   1.751   5.483  0.9678  1.1124 -1.2642
   44MOL   H13332899   6.422   1.921   5.499 -1.3817  0.1090  0.1806
   44MOL   H13432900   6.566   1.862   5.693  0.9159 -1.1510 -1.9205
   44MOL   H13532901   6.420   1.904   5.759 -0.7433 -0.3319  0.4675
   44MOL   H13632902   6.470   1.607   5.720 -2.4201 -1.5673  1.8217
   44MOL   H13732903   6.331   1.696   5.789 -0.0894 -1.1007  1.9007
   44MOL   H13832904   6.451   1.624   5.976  1.2093 -0.8375 -0.5564
   44MOL   H13932905   6.474   1.790   5.963  0.4822  0.0737  1.8062
   44MOL   H14032906   6.667   1.499   6.003 -1.7449  1.4651  2.3725
   44MOL   H14132907   6.916   1.630   6.018  0.3752  0.5179 -2.3854
   44MOL   H14232908   6.876   1.474   6.064 -1.7163  0.2996  0.5372
   44MOL   H14332909   6.900   1.385   5.847  0.3021  0.2948 -1.5823
   44MOL   H14432910   6.903   1.545   5.775  0.8160 -0.7590 -0.4879
   44MOL   H14532911   7.120   1.425   5.939  2.6798  0.5302 -1.7009
   44MOL   H14632912   7.115   1.590   5.899 -1.4529  0.4902 -1.3985
   44MOL   H14732913   7.117   1.373   5.682  0.2580  0.7363 -0.7519
   44MOL   H14832914   7.118   1.545   5.657 -0.6456 -1.6913 -1.8005
   44MOL   H14932915   7.351   1.538   5.773 -2.4157  1.2256 -0.1297
   44MOL   H15032916   7.339   1.363   5.790 -0.6160 -1.3485 -1.0792
   44MOL   H15132917   7.358   1.530   5.544  0.7746  0.1906  1.2798
   44MOL   H15232918   7.335   1.361   5.529  0.1534  1.0324 -2.3899
   44MOL   H15332919   7.553   1.367   5.698 -1.8769 -2.4098 -0.7214
   44MOL   C15432920   7.610   1.439   5.511  0.4418 -0.0067 -0.0214
   44MOL   O15532921   7.587   1.475   5.394  0.0234 -0.4737 -0.3306
   44MOL   C15632922   0.054   1.421   5.538  0.1470 -0.4686 -0.0833
   44MOL   C15732923   0.134   1.345   5.431 -0.5802 -0.0014 -0.4915
   44MOL   C15832924   0.289   1.364   5.450  0.1370 -0.4946 -0.1179
   44MOL   C15932925   0.350   1.501   5.444 -0.2773  0.5969 -0.5192
   44MOL   C16032926   0.349   1.588   5.568 -1.3192 -0.1725  0.4147
   44MOL   O16132927   0.418   1.551   5.661 -0.3036 -0.2191  0.3583
   44MOL   N16232928   0.285   1.706   5.563 -0.1814 -0.2620 -0.1308
   44MOL   C16332929   0.308   1.817   5.651 -0.5236  0.3822 -0.3764
   44MOL   C16432930   0.174   1.885   5.678  0.8521  0.2297 -0.8370
   44MOL   C16532931   0.058   1.803   5.742 -0.2346 -0.0550  0.6230
   44MOL   C16632932   0.088   1.771   5.891 -0.0427 -0.1905  0.4440
   44MOL   C16732933   7.678   1.700   5.956  0.2395  0.1746 -0.1036
   44MOL   C16832934   7.681   1.554   5.919 -0.2185  0.4462  0.3482
   44MOL   N16932935   7.581   1.475   5.998 -0.5791  0.3522  0.5801
   44MOL   H17032936   0.093   1.520   5.561 -1.8642  0.1729  0.6896
   44MOL   H17132937   0.067   1.368   5.633  1.3587 -0.1652 -0.0650
   44MOL   H17232938   0.114   1.240   5.451 -2.5063  0.7005  1.4851
   44MOL   H17332939   0.084   1.373   5.338 -1.1171 -0.3649 -0.3168
   44MOL   H17432940   0.337   1.311   5.368  0.2693  1.3836 -1.2747
   44MOL   H17532941   0.329   1.326   5.544 -2.0434  0.5839  1.3057
   44MOL   H17632942   0.296   1.555   5.366 -0.2634  1.3229 -0.0351
   44MOL   H17732943   0.453   1.497   5.408  0.0380 -0.6977  0.4956
   44MOL   H17832944   0.239   1.730   5.476 -2.8831 -3.6442  0.2683
   44MOL   H17932945   0.362   1.780   5.738  1.6191  0.5184 -1.6387
   44MOL   H18032946   0.380   1.886   5.609  1.4710 -0.5179  1.4808
   44MOL   H18132947   0.199   1.973   5.738 -0.7271 -0.0137  0.2290
   44MOL   H18232948   0.137   1.920   5.582 -0.5713 -0.9334 -0.7403
   44MOL   H18332949   0.041   1.712   5.684 -0.9211 -1.1691  2.5265
   44MOL   H18432950   7.676   1.864   5.736 -0.7173 -0.3587  3.9389
   44MOL   H18532951   0.177   1.708   5.891  1.7041  2.1672 -0.4755
   44MOL   H18632952   0.123   1.858   5.947  0.0360 -0.0833  0.2296
   44MOL   H18732953   7.690   1.696   6.065  0.0202  0.2669 -0.0756
   44MOL   H18832954   7.582   1.744   5.929 -0.5160 -0.9473  0.6965
   44MOL   H18932955   0.074   1.515   5.932 -0.3570 -0.7369 -1.8977
   44MOL   H19032956   7.655   1.545   5.814 -2.0849  0.2409  0.8155
   44MOL   H19132957   7.547   1.518   6.083 -0.8762 -0.3541  0.8251
   44MOL   C19232958   7.539   1.352   5.968 -0.1152 -1.1005 -0.1550
   44MOL   O19332959   7.571   1.293   5.862  0.0857  0.0760 -0.3325
   44MOL   C19432960   7.451   1.266   6.056 -0.7980 -0.3522 -0.3566
   44MOL   C19532961   7.385   1.144   5.986 -0.1245 -0.0201  1.0257
   44MOL   C19632962   7.475   1.019   5.983  0.0525 -0.2587  0.0746
   44MOL   C19732963   7.520   0.975   6.119 -0.5980 -0.1393 -0.3241
   44MOL   C19832964   7.414   0.965   6.234 -0.4006  0.5700 -0.7260
   44MOL   O19932965   7.309   0.901   6.220  0.1707 -0.6972  0.0232
   44MOL   N20032966   7.443   1.034   6.349  0.3926 -0.3256  0.7669
   44MOL   C20132967   7.346   1.048   6.458  0.7037 -0.1960 -0.0774
   44MOL   C20232968   7.401   1.009   6.589 -0.1079 -0.0209  0.0622
   44MOL   C20332969   7.290   0.984   6.692  0.5362  0.0787 -0.0194
   44MOL   C20432970   7.212   1.112   6.743  0.2004 -0.1192  0.4468
   44MOL   C20532971   7.156   1.101   6.880  0.3103 -1.6556  0.1961
   44MOL   C20632972   7.099   1.233   6.919 -0.0906 -0.3792 -0.0426
   44MOL   N20732973   7.197   1.329   6.961 -0.3391 -0.1758  0.1246
   44MOL   H20832974   7.501   1.245   6.150  0.9949  2.2701 -0.6712
   44MOL   H20932975   7.372   1.338   6.079  1.4621  2.6502 -1.6188
   44MOL   H21032976   7.293   1.116   6.036 -0.6088 -2.4595 -1.1124
   44MOL   H21132977   7.348   1.173   5.888  0.0668 -2.5729  0.1709
   44MOL   H21232978   7.553   1.042   5.911  0.2591  0.1140  0.4124
   44MOL   H21332979   7.409   0.938   5.951 -0.2382  0.4486 -1.1308
   44MOL   H21432980   7.598   1.035   6.165  1.1524 -4.5299  2.7224
   44MOL   H21532981   7.563   0.876   6.105 -1.7445 -0.6226 -0.4961
   44MOL   H21632982   7.532   1.082   6.352  1.3250 -2.0445  1.5803
   44MOL   H21732983   7.310   1.151   6.465  1.3696  0.2367 -2.7819
   44MOL   H21832984   7.250   0.997   6.444 -0.5633  2.0955 -0.0662
   44MOL   H21932985   7.466   0.922   6.577 -1.0729 -0.4911 -2.1021
   44MOL   H22032986   7.462   1.094   6.621 -1.8701  0.8279  1.2426
   44MOL   H22132987   7.336   0.938   6.779  0.3431  2.5088  1.4375
   44MOL   H22232988   7.217   0.907   6.669  0.1433  0.5019 -0.2133
   44MOL   H22332989   7.290   1.187   6.756  1.3743 -1.5872  2.1660
   44MOL   H22432990   7.151   1.159   6.666  2.0030 -0.2899 -1.1439
   44MOL   H22532991   7.071   1.032   6.871 -1.6909  0.4605  2.2110
   44MOL   H22632992   7.221   1.064   6.959 -0.3347  0.0050  1.5358
   44MOL   H22732993   7.022   1.224   6.995  0.9356  0.3111  1.1020
   44MOL   H22832994   7.050   1.283   6.835 -1.2145  0.5983  1.1668
   44MOL   H22932995   7.255   1.373   6.890  2.2590 -4.9244 -0.9285
   44MOL   C23032996   7.224   1.364   7.087 -0.2712 -0.0633 -1.1410
   44MOL   O23132997   7.182   1.304   7.187  0.5047  0.1031  0.7536
   44MOL   C23232998   7.314   1.479   7.109 -0.3650  0.0942  0.3711
   44MOL   C23332999   7.442   1.434   7.186 -0.5941  0.8604 -0.1031
   44MOL   C23433000   7.434   1.416   7.345 -0.5841  0.2738  0.1682
   44MOL   C23533001   7.373   1.550   7.414  0.0018  0.1042 -0.4869
   44MOL   C23633002   7.462   1.669   7.416 -0.5850 -0.4342 -0.7938
   44MOL   O23733003   7.562   1.660   7.486 -0.2516  0.1289 -0.1974
   44MOL   N23833004   7.425   1.773   7.345  0.4421  0.2184 -0.5234
   44MOL   C23933005   7.487   1.908   7.358 -0.1035  0.4944  0.3977
   44MOL   C24033006   7.460   1.999   7.234 -0.4445 -0.5894  0.1369
   44MOL   C24133007   7.451   2.148   7.269 -0.4461 -0.0270 -0.0552
   44MOL   C24233008   7.399   2.237   7.155  0.0430  0.0523 -0.7009
   44MOL   C24333009   7.367   2.382   7.210  0.0674 -0.4961  0.5874
   44MOL   C24433010   7.308   2.472   7.101  0.3419  0.1963 -0.6873
   44MOL   N24533011   7.399   2.500   6.991  0.0390 -0.6137  0.0390
   44MOL   H24633012   7.339   1.526   7.013  1.3314 -0.6979  0.4082
   44MOL   H24733013   7.265   1.541   7.184  1.2010  0.7530  0.8679
   44MOL   H24833014   7.463   1.336   7.144 -0.5416  0.1700  1.4928
   44MOL   H24933015   7.518   1.505   7.154  2.5563 -1.9242  0.9223
   44MOL   H25033016   7.536   1.394   7.374 -0.5395 -0.3794 -0.4547
   44MOL   H25133017   7.355   1.350   7.381 -0.5085 -0.7191 -1.4217
   44MOL   H25233018   7.337   1.524   7.513 -1.1239  1.2252 -0.5852
   44MOL   H25333019   7.276   1.572   7.368  0.3052 -0.7683 -1.5635
   44MOL   H25433020   7.360   1.772   7.268  1.8141 -0.9276 -1.6799
   44MOL   H25533021   7.452   1.955   7.449 -2.1009  0.4467 -0.3105
   44MOL   H25633022   7.594   1.887   7.361  0.0752  1.4379  0.6727
   44MOL   H25733023   7.546   1.984   7.168  0.5861 -0.5779  1.4544
   44MOL   H25833024   7.370   1.962   7.187 -1.8336  3.3417 -0.5256
   44MOL   H25933025   7.545   2.189   7.308 -2.0035  0.8288  2.9795
   44MOL   H26033026   7.380   2.151   7.352 -0.6341  0.2068 -0.2233
   44MOL   H26133027   7.466   2.250   7.071  0.7324  3.1552  0.2569
   44MOL   H26233028   7.300   2.195   7.138  1.1025 -2.2644 -1.2701
   44MOL   H26333029   7.303   2.394   7.297  0.7893  1.7241  0.8618
   44MOL   H26433030   7.459   2.422   7.253  1.4027 -2.4709 -0.3276
   44MOL   H26533031   7.280   2.566   7.149 -1.1167 -0.7920  0.4564
   44MOL   H26633032   7.221   2.421   7.059 -0.4776 -0.5288  1.7811
   44MOL   H26733033   7.381   2.454   6.903  1.9167  0.5691 -1.0011
   44MOL   C26833034   7.500   2.590   6.993  0.0423  0.6006  0.3935
   44MOL   O26933035   7.532   2.637   7.105  0.0188 -0.4164  0.6520
   44MOL   C27033036   7.562   2.629   6.858 -0.2412  0.2098  0.9404
   44MOL   C27133037   7.610   2.769   6.873 -0.2938  1.0474 -0.3824
   44MOL   C27233038   7.643   2.825   6.741  0.4889  0.2166  0.8469
   44MOL   C27333039   0.062   2.777   6.670  0.1822 -0.3853 -0.1780
   44MOL   C27433040   0.190   2.818   6.745  0.0552 -0.3314 -1.1448
   44MOL   O27533041   0.225   2.930   6.743 -0.1927  0.4179  0.1687
   44MOL   N27633042   0.250   2.725   6.808 -0.4403 -0.1774 -0.0284
   44MOL   C27733043   0.373   2.743   6.890  0.3273 -0.6585 -0.4269
   44MOL   C27833044   0.441   2.615   6.941 -0.3581  0.1204 -0.9096
   44MOL   C27933045   0.503   2.523   6.834 -0.1943 -0.3484  0.0609
   44MOL   C28033046   0.555   2.386   6.876  0.0771 -0.1504  0.3723
   44MOL   C28133047   0.601   2.296   6.770 -0.3283  0.1933  0.4758
   44MOL   C28233048   0.477   2.246   6.695 -0.9195 -0.0165  0.1147
   44MOL   N28333049   0.520   2.147   6.595 -0.0939 -0.1020 -0.0615
   44MOL   H28433050   7.639   2.558   6.830  1.0127  1.4306  1.2207
   44MOL   H28533051   7.488   2.623   6.778  0.3284  0.3766  0.4017
   44MOL   H28633052   7.530   2.824   6.923  1.1858  2.1461  0.8610
   44MOL   H28733053   7.705   2.778   6.927 -0.3978  0.8177 -0.1583
   44MOL   H28833054   7.645   2.933   6.755 -0.9302 -0.2632  5.7212
   44MOL   H28933055   7.563   2.823   6.667  1.1109  2.0243  0.1044
   44MOL   H29033056   0.067   2.817   6.569  0.6436 -1.0678 -0.4252
   44MOL   H29133057   0.045   2.670   6.659  1.2692 -0.6329  0.5019
   44MOL   H29233058   0.214   2.630   6.809  1.2056 -0.8282 -0.2580
   44MOL   H29333059   0.447   2.806   6.841  0.1628  0.3747  0.6120
   44MOL   H29433060   0.349   2.807   6.975 -0.2922 -0.2805 -0.8748
   44MOL   H29533061   0.518   2.625   7.018 -2.1700  0.7049  0.8607
   44MOL   H29633062   0.367   2.546   6.981  0.4652 -1.3593 -1.8914
   44MOL   H29733063   0.585   2.571   6.780 -1.5209  0.9157 -0.8464
   44MOL   H29833064   0.423   2.501   6.763  1.5022 -1.3382 -1.6292
   44MOL   H29933065   0.643   2.400   6.939  1.2494 -0.9878 -1.0778
   44MOL   H30033066   0.477   2.341   6.939 -0.0704  0.7949  0.8808
   44MOL   H30133067   0.668   2.347   6.700  1.6471 -3.1226 -0.1286
   44MOL   H30233068   0.655   2.214   6.817 -0.0457 -0.2301 -0.5759
   44MOL   H30333069   0.424   2.326   6.645  1.1567  1.2170 -0.1896
   44MOL   H30433070   0.406   2.199   6.763 -1.7874  0.9403 -0.1311
   44MOL   H30533071   0.608   2.172   6.551  0.2010 -0.5774  0.2534
   44MOL   C30633072   0.467   2.031   6.585  0.6770  0.4958  0.0738
   44MOL   O30733073   0.372   1.994   6.648 -0.2888 -0.3680  0.4185
   44MOL   C30833074   0.532   1.930   6.488 -0.0078  0.2191  0.1000
   44MOL   C30933075   0.517   1.777   6.507 -0.8707  0.5673 -0.3044
   44MOL   C31033076   0.606   1.727   6.622 -0.9765  0.2612 -0.0750
   44MOL   C31133077   0.532   1.708   6.755 -0.4505  0.4070 -0.3582
   44MOL   C31233078   0.426   1.596   6.747  0.0163 -0.5325 -0.2057
   44MOL   O31333079   0.310   1.613   6.710  0.3022 -0.3133 -0.7497
   44MOL   N31433080   0.473   1.472   6.774  0.3570 -0.1354  0.3659
   44MOL   C31533081   0.399   1.338   6.782  0.5395 -0.7873  0.1384
   44MOL   C31633082   0.491   1.218   6.746 -0.2305  0.1733 -0.6849
   44MOL   C31733083   0.425   1.079   6.721 -0.3254 -0.3158  0.3502
   44MOL   C31833084   0.318   1.073   6.609 -1.1040  0.1728  0.4972
   44MOL   C31933085   0.291   0.939   6.545 -0.1358 -0.3744 -0.1272
   44MOL   C32033086   0.155   0.936   6.463  0.2939 -0.1265  0.0131
   44MOL   N32133087   0.143   1.036   6.354  0.2043  0.0028  0.1505
   44MOL   H32233088   0.483   1.943   6.392 -0.7141 -2.4500  0.0470
   44MOL   H32333089   0.637   1.957   6.480 -0.2436  1.2549  0.3977
   44MOL   H32433090   0.413   1.755   6.528 -1.0708 -0.4892 -2.3501
   44MOL   H32533091   0.539   1.729   6.412 -0.4588 -0.2392  0.1850
   44MOL   H32633092   0.683   1.802   6.642 -1.0802  0.1280  0.8532
   44MOL   H32733093   0.648   1.629   6.598  0.7045  0.5812  1.3890
   44MOL   H32833094   0.484   1.800   6.788 -1.0522 -0.5750  1.5783
   44MOL   H32933095   0.601   1.691   6.837 -0.5292  1.1065 -0.1379
   44MOL   H33033096   0.564   1.473   6.818 -0.1985 -0.5154  1.5692
   44MOL   H33133097   0.347   1.328   6.877  0.8272  0.6734  0.4740
   44MOL   H33233098   0.313   1.330   6.716  1.0682  0.1228 -0.6779
   44MOL   H33333099   0.545   1.226   6.651  1.4294  0.9559  0.3062
   44MOL   H33433100   0.564   1.206   6.825  0.3340 -1.5634 -1.4451
   44MOL   H33533101   0.380   1.037   6.811 -1.7600 -0.7629 -0.5548
   44MOL   H33633102   0.505   1.015   6.686  0.6669  0.8817  0.3909
   44MOL   H33733103   0.226   1.112   6.652 -1.3405  1.3899 -1.0413
   44MOL   H33833104   0.346   1.143   6.530  1.9017 -0.3347  1.0654
   44MOL   H33933105   0.376   0.909   6.483  1.0542  0.0156  1.2957
   44MOL   H34033106   0.294   0.861   6.621 -1.6075  0.0130  0.3480
   44MOL   H34133107   0.078   0.958   6.537  0.6229  0.5069  0.1737
   44MOL   H34233108   0.129   0.833   6.441  0.2693  0.2460 -1.7373
   44MOL   H34333109   0.168   1.008   6.260 -1.1845 -0.1782 -0.1727
   44MOL   C34433110   0.079   1.161   6.360  0.2040 -0.2571  0.2417
   44MOL   O34533111   0.004   1.189   6.453 -0.5999  0.5026  0.0183
   44MOL   C34633112   0.097   1.264   6.250 -0.2930  0.3233  0.3927
   44MOL   C34733113   0.153   1.401   6.293  0.2371  0.0710  0.2114
   44MOL   C34833114   0.265   1.447   6.195  0.3507  0.1031  0.6949
   44MOL   C34933115   0.318   1.578   6.255 -0.5132 -0.2168  0.2513
   44MOL   C35033116   0.444   1.623   6.173 -0.2069 -0.5117  0.2962
   44MOL   O35133117   0.542   1.551   6.178 -0.1771  0.1444 -0.4055
   44MOL   N35233118   0.439   1.733   6.102 -0.4119  0.7236  0.2582
   44MOL   C35333119   0.531   1.773   6.003 -0.3694 -0.3559  0.3488
   44MOL   C35433120   0.514   1.918   5.956  0.2881 -0.2577 -0.1336
   44MOL   C35533121   0.609   1.945   5.841  0.3953  0.1299 -0.3008
   44MOL   C35633122   0.561   2.068   5.768 -0.0319  0.3336 -1.0312
   44MOL   C35733123   0.650   2.123   5.659  0.3383 -0.5167  0.6494
   44MOL   C35833124   0.652   2.030   5.535  0.0770  0.0085 -0.1046
   44MOL   N35933125   0.770   2.032   5.447  0.1824  0.1591 -0.9593
   44MOL   H36033126   0.165   1.223   6.175 -0.3405 -1.9010  1.5342
   44MOL   H36133127   0.001   1.289   6.204  1.1535 -0.6715 -3.3390
   44MOL   H36233128   0.071   1.473   6.283 -0.2529 -0.7471 -1.8403
   44MOL   H36333129   0.178   1.411   6.399  0.8849 -1.0965  0.1721
   44MOL   H36433130   0.221   1.469   6.098  1.4111 -1.5642 -0.2001
   44MOL   H36533131   0.343   1.372   6.182 -0.1601 -0.4990  1.0498
   44MOL   H36633132   0.348   1.568   6.359 -0.5849 -0.8397  0.2121
   44MOL   H36733133   0.243   1.657   6.251 -0.4485  0.0150  2.9216
   44MOL   H36833134   0.352   1.782   6.114 -0.9528 -0.9419  3.5701
   44MOL   H36933135   0.632   1.762   6.043  0.0842  0.8976 -0.4164
   44MOL   H37033136   0.513   1.717   5.912  1.2200 -0.3004 -0.0194
   44MOL   H37133137   0.410   1.940   5.936  0.1274  0.2109  1.1397
   44MOL   H37233138   0.540   1.986   6.037 -1.2493  3.3384 -2.5650
   44MOL   H37333139   0.596   1.859   5.775  0.9843 -0.0864 -0.1466
   44MOL   H37433140   0.715   1.950   5.867  0.3537  1.4573 -0.3378
   44MOL   H37533141   0.462   2.047   5.729  0.0442 -2.0052 -0.0245
   44MOL   H37633142   0.546   2.151   5.837 -0.0009  0.8657 -1.6588
   44MOL   H37733143   0.630   2.228   5.639 -0.0117 -0.6333  0.3878
   44MOL   H37833144   0.744   2.128   5.716  0.5335  3.0526  0.1351
   44MOL   H37933145   0.557   2.042   5.483  0.9970 -1.3107 -2.1675
   44MOL   H38033146   0.639   1.925   5.561  0.1099  0.6273  2.5184
   44MOL   H38133147   0.855   1.984   5.471  2.0929  3.1918 -1.4727
   44MOL   C38233148   0.768   2.098   5.337 -0.3136 -0.3373  0.2432
   44MOL   O38333149   0.670   2.159   5.290 -0.5152 -0.4886  0.3616
   44MOL   C38433150   0.896   2.085   5.250  0.3586  0.6748 -0.0223
   44MOL   C38533151   0.916   2.196   5.150 -0.3534 -0.0502 -0.0662
   44MOL   C38633152   1.030   2.161   5.043  0.1508  0.7578 -0.0374
   44MOL   C38733153   0.989   2.058   4.931  0.9485 -0.7240  0.1518
   44MOL   C38833154   0.877   2.107   4.836  0.8731 -0.0853  0.1837
   44MOL   O38933155   0.910   2.176   4.742 -0.6612  0.2822  0.3040
   44MOL   N39033156   0.748   2.084   4.861  0.1738  0.0271  0.0078
   44MOL   C39133157   0.634   2.149   4.795 -0.2823  0.5692  0.2157
   44MOL   C39233158   0.570   2.262   4.889  0.0556  0.2643  0.1866
   44MOL   C39333159   0.473   2.344   4.807 -0.2769 -0.3341 -0.1562
   44MOL   C39433160   0.330   2.280   4.775  0.3110 -0.8859 -0.3447
   44MOL   C39533161   0.247   2.232   4.898  0.0284 -0.4729  0.7588
   44MOL   C39633162   0.098   2.197   4.874  0.3390  0.2252  0.3967
   44MOL   N39733163   0.093   2.093   4.772  0.1290 -0.8512  0.4817
   44MOL   H39833164   0.984   2.063   5.311  1.2454 -1.3237 -1.9164
   44MOL   H39933165   0.891   1.989   5.199  1.5065  0.6641 -0.1245
   44MOL   H40033166   0.824   2.225   5.098  0.5697  0.9006 -1.1840
   44MOL   H40133167   0.953   2.284   5.203  0.1127  0.9416 -1.9866
   44MOL   H40233168   1.105   2.109   5.103 -1.2462 -0.0710  1.0278
   44MOL   H40333169   1.074   2.254   5.008  0.2674  1.6811  2.4932
   44MOL   H40433170   0.956   1.971   4.987 -1.7878 -1.2940 -2.2481
   44MOL   H40533171   1.076   2.023   4.874  0.7579  1.0566 -1.2625
   44MOL   H40633172   0.729   2.033   4.947  0.3060  1.9176  1.1806
   44MOL   H40733173   0.665   2.192   4.699  2.1364 -1.1835  0.1715
   44MOL   H40833174   0.561   2.073   4.769  0.7860 -0.2609 -0.4052
   44MOL   H40933175   0.528   2.223   4.981 -0.6831  0.7082  0.0430
   44MOL   H41033176   0.650   2.329   4.921 -1.2161  1.7592  0.2741
   44MOL   H41133177   0.503   2.375   4.708 -2.2250  1.3748 -0.2383
   44MOL   H41233178   0.473   2.435   4.868  0.0692 -0.5620  0.1879
   44MOL   H41333179   0.271   2.353   4.718 -2.3661 -1.2459  1.8832
   44MOL   H41433180   0.346   2.199   4.704  1.2457 -1.5144  0.5869
   44MOL   H41533181   0.299   2.146   4.939 -1.2579 -1.4724  0.3358
   44MOL   H41633182   0.260   2.317   4.966 -0.4746  0.8470 -0.7731
   44MOL   H41733183   0.037   2.283   4.848  1.0519  0.6500  0.1259
   44MOL   H41833184   0.048   2.153   4.960 -0.5013  0.5018  0.0471
   44MOL   H41933185   0.129   2.118   4.681 -2.1988  2.1926  0.3205
   44MOL   C42033186   0.053   1.966   4.783 -0.5433  0.1757  0.0470
   44MOL   O42133187   7.701   1.917   4.879  0.6151  0.4322 -0.1003
   44MOL   C42233188   0.081   1.865   4.668  0.1312 -0.3641  0.8781
   44MOL   C42333189   0.196   1.769   4.702  0.6581  0.1874 -0.7012
   44MOL   C42433190   0.340   1.834   4.693  0.4302 -0.1483  0.1597
   44MOL   C42533191   0.464   1.745   4.724 -0.0461  0.8271 -0.0835
   44MOL   C42633192   0.497   1.624   4.629  0.9499 -0.5110  0.0193
   44MOL   O42733193   0.429   1.526   4.628  0.3639 -0.2708 -0.2824
   44MOL   N42833194   0.604   1.630   4.549  0.5133 -0.3904  0.7865
   44MOL   C42933195   0.658   1.517   4.481  0.0078 -0.5130  0.5259
   44MOL   C43033196   0.597   1.494   4.343  0.0996 -0.2767  0.1609
   44MOL   C43133197   0.683   1.389   4.264 -0.5234  0.3207  0.3958
   44MOL   C43233198   0.636   1.359   4.126  0.0381 -0.2736 -0.1321
   44MOL   C43333199   0.665   1.478   4.030 -0.4992 -0.1198 -0.7276
   44MOL   C43433200   0.607   1.456   3.894  0.6579 -0.4187  0.2938
   44MOL   N43533201   0.468   1.492   3.896  0.4429  0.1277 -0.4197
   44MOL   H43633202   7.696   1.821   4.634  0.2294  0.3614 -0.3769
   44MOL   H43733203   0.106   1.916   4.575  2.8285 -2.5841  0.3220
   44MOL   H43833204   0.186   1.736   4.805  1.3670 -2.2849 -1.3863
   44MOL   H43933205   0.183   1.687   4.631  1.6028 -0.2672 -0.3496
   44MOL   H44033206   0.347   1.928   4.746  3.1505  0.7502 -1.7017
   44MOL   H44133207   0.358   1.852   4.587 -0.1056 -2.0806 -0.2980
   44MOL   H44233208   0.449   1.702   4.823  0.4054 -0.7337 -0.6851
   44MOL   H44333209   0.558   1.801   4.722  1.4380 -1.6083 -0.5145
   44MOL   H44433210   0.654   1.717   4.546 -2.2618  1.2603  0.0561
   44MOL   H44533211   0.764   1.524   4.457  0.6035 -3.1711  2.1439
   44MOL   H44633212   0.647   1.429   4.545  0.7900 -2.0795 -1.4443
   44MOL   H44733213   0.492   1.463   4.346 -0.4989  1.5564 -0.7495
   44MOL   H44833214   0.610   1.582   4.280  0.2461  1.6882  2.8465
   44MOL   H44933215   0.664   1.294   4.315  0.1401 -0.1027 -0.1458
   44MOL   H45033216   0.789   1.413   4.263 -0.2246 -0.8465  1.8602
   44MOL   H45133217   0.674   1.263   4.092 -1.2020 -0.7618 -0.1806
   44MOL   H45233218   0.527   1.354   4.137 -0.1303 -1.2470 -2.0850
   44MOL   H45333219   0.639   1.578   4.065  0.6516  0.3323 -1.1353
   44MOL   H45433220   0.774   1.476   4.023 -0.1862  2.1840  2.5528
   44MOL   H45533221   0.617   1.355   3.854  0.2998 -0.3016 -0.0973
   44MOL   H45633222   0.655   1.516   3.816 -0.8247 -0.6729 -0.8354
   44MOL   H45733223   0.401   1.423   3.927 -0.2985 -0.1482 -2.5085
   44MOL   C45833224   0.429   1.618   3.889  0.2352  0.0039  1.0223
   44MOL   O45933225   0.510   1.709   3.854  0.4518  0.6175 -0.5527
   44MOL   C46033226   0.303   1.653   3.967 -0.3071  0.7493 -0.2369
   44MOL   C46133227   0.311   1.788   4.032 -0.2301 -0.4909  0.2008
   44MOL   C46233228   0.247   1.895   3.938  0.4540  0.2176  0.0706
   44MOL   C46333229   0.097   1.907   3.937  0.0226 -0.0342  0.2818
   44MOL   C46433230   0.040   1.959   4.069 -0.9933 -0.1873 -0.0870
   44MOL   O46533231   0.054   2.076   4.106  0.0712 -0.1152 -0.2669
   44MOL   N46633232   7.674   1.879   4.139  0.0198 -0.1320  0.5237
   44MOL   C46733233   7.630   1.887   4.275 -0.2983  0.0762 -0.0414
   44MOL   C46833234   7.619   1.746   4.342 -0.2716  0.5581  0.4183
   44MOL   C46933235   0.046   1.674   4.346 -0.2090 -0.2019 -0.5817
   44MOL   C47033236   0.050   1.542   4.415 -0.1307  0.2714 -0.3856
   44MOL   C47133237   0.187   1.471   4.404 -0.0642  0.5491  0.1323
   44MOL   C47233238   0.209   1.337   4.481  0.1567  0.5421  0.4387
   44MOL   N47333239   0.311   1.253   4.414  0.2764 -0.2855 -0.3981
   44MOL   H47433240   0.214   1.641   3.904 -0.5124  1.9740 -0.1806
   44MOL   H47533241   0.289   1.580   4.046  0.1959  0.8900 -0.0209
   44MOL   H47633242   0.269   1.780   4.132  0.6862  1.1251  0.7347
   44MOL   H47733243   0.415   1.809   4.058 -0.1982 -0.0214 -0.2887
   44MOL   H47833244   0.297   1.884   3.841  1.8956 -0.7704  0.9060
   44MOL   H47933245   0.291   1.986   3.979  0.2927 -0.4234  1.6971
   44MOL   H48033246   0.061   1.806   3.919  0.2143 -0.1602  0.6078
   44MOL   H48133247   0.077   1.974   3.853  0.8989  0.8835  0.7832
   44MOL   H48233248   7.668   1.785   4.104 -0.5310  0.5216 -1.1789
   44MOL   H48333249   7.695   1.952   4.333  1.5355  0.6669 -2.6819
   44MOL   H48433250   7.530   1.930   4.278 -0.9670 -1.4908  0.9558
   44MOL   H48533251   7.581   1.754   4.443 -2.4807 -1.9261 -0.1611
   44MOL   H48633252   7.545   1.681   4.295 -0.4107  0.0761  1.3052
   44MOL   H48733253   0.115   1.746   4.391  0.5766 -1.2352 -0.1275
   44MOL   H48833254   0.086   1.662   4.245  2.0493  1.8262  0.0062
   44MOL   H48933255   0.025   1.546   4.521  0.3197 -0.7700 -0.2321
   44MOL   H49033256   7.685   1.472   4.374 -1.1205  1.6184 -0.9442
   44MOL   H49133257   0.197   1.453   4.297  2.4216  1.4966  0.1549
   44MOL   H49233258   0.266   1.544   4.418 -1.0078  1.4695  0.7240
   44MOL   H49333259   0.106   1.302   4.492  0.2279  0.3320  0.4328
   44MOL   H49433260   0.255   1.373   4.572 -2.1119  2.5173  0.8617
   44MOL   H49533261   0.409   1.277   4.415  0.0820  0.5076  0.5506
   44MOL   C49633262   0.266   1.146   4.339 -0.4850  0.2818  0.0892
   44MOL   O49733263   0.148   1.123   4.307 -0.5924  0.1878  0.0278
   44MOL   C49833264   0.376   1.049   4.280 -0.6857 -0.2995 -0.2326
   44MOL   C49933265   0.329   0.909   4.236  0.1867 -0.0456 -0.1148
   44MOL   C50033266   0.249   0.915   4.099  1.2354  0.1259 -0.4483
   44MOL   C50133267   0.257   0.785   4.019 -0.4658 -0.0408  0.7438
   44MOL   C50233268   0.202   0.791   3.872  0.0141  0.0345 -0.3720
   44MOL   O50333269   0.097   0.850   3.851  0.0964 -0.2914 -0.2850
   44MOL   N50433270   0.264   0.728   3.776 -0.5014 -0.3484 -0.1918
   44MOL   C50533271   0.227   0.744   3.638 -0.0972 -0.3681  0.2039
   44MOL   C50633272   0.131   0.634   3.584 -0.0670 -0.2022  0.5161
   44MOL   C50733273   0.049   0.678   3.460  0.4461  0.2651 -0.7456
   44MOL   C50833274   0.037   0.560   3.369  0.1294  0.0359  0.6525
   44MOL   C50933275   7.694   0.595   3.235  1.0400 -0.8735 -0.3298
   44MOL   C51033276   0.090   0.622   3.131 -0.0587  0.1906 -0.3394
   44MOL   N51133277   0.024   0.610   2.994 -0.2344 -0.7467  0.0152
   44MOL   H51233278   0.425   1.101   4.197  0.0379  2.1909  1.6956
   44MOL   H51333279   0.456   1.045   4.353  0.0146 -1.1872 -1.0456
   44MOL   H51433280   0.417   0.847   4.224  1.8705  2.9433 -4.3639
   44MOL   H51533281   0.278   0.867   4.323 -1.7665  1.3859 -0.5231
   44MOL   H51633282   0.287   1.002   4.044  0.8794 -0.5628 -1.7821
   44MOL   H51733283   0.149   0.955   4.113  1.1380 -0.0371 -0.6901
   44MOL   H51833284   0.201   0.715   4.081 -0.3892 -1.4130 -0.6978
   44MOL   H51933285   0.360   0.752   4.009 -0.3130  0.7651 -0.5092
   44MOL   H52033286   0.345   0.671   3.797 -0.1190  0.5624  0.8244
   44MOL   H52133287   0.175   0.837   3.617  0.9409  0.5884  1.7670
   44MOL   H52233288   0.320   0.745   3.582  0.6601  0.1454  1.4441
   44MOL   H52333289   0.200   0.556   3.550 -0.1291  0.7902 -2.0019
   44MOL   H52433290   0.068   0.583   3.657  0.2630  0.8409  1.5396
   44MOL   H52533291   0.101   0.758   3.409 -0.0044  0.2408 -1.2499
   44MOL   H52633292   7.656   0.706   3.489  0.7561  0.9584 -0.3221
   44MOL   H52733293   0.130   0.504   3.356  0.9886  2.1758 -3.0430
   44MOL   H52833294   7.673   0.504   3.428 -1.0015  0.8158  0.0177
   44MOL   H52933295   7.629   0.516   3.195  0.7247 -1.1168  0.6386
   44MOL   H53033296   7.633   0.684   3.249  0.7496 -1.1306  0.0637
   44MOL   H53133297   0.189   0.578   3.137  1.6569  3.8698 -0.5098
   44MOL   H53233298   0.122   0.725   3.145  0.9399  0.1217 -1.9758
   44MOL   H53333299   7.669   0.534   2.973  0.5647 -1.6105  0.7220
   44MOL   C53433300   0.046   0.694   2.889 -0.0821 -0.2596  0.0877
   44MOL   O53533301   0.130   0.794   2.890 -0.1315  0.2876  0.3170
   44MOL   C53633302   7.681   0.660   2.759  0.0758 -0.1621 -0.6909
   44MOL   C53733303   7.586   0.777   2.710 -0.6251  0.4189 -0.7243
   44MOL   C53833304   7.460   0.795   2.793  0.4934 -0.2461  0.6536
   44MOL   C53933305   7.359   0.891   2.738 -0.2030 -0.1334  0.3989
   44MOL   C54033306   7.232   0.905   2.830 -0.9259 -0.1448 -0.3682
   44MOL   O54133307   7.190   1.012   2.866  0.6316  0.3002 -0.3653
   44MOL   N54233308   7.181   0.788   2.866  0.0854 -0.0223 -0.1441
   44MOL   C54333309   7.058   0.765   2.948 -0.0988 -0.0259  0.7097
   44MOL   C54433310   6.929   0.780   2.863 -0.0036  0.7753  0.4062
   44MOL   C54533311   6.940   0.706   2.727  0.0911  0.3697  0.5707
   44MOL   C54633312   6.795   0.699   2.665 -0.0564 -0.5663  0.4438
   44MOL   C54733313   6.783   0.596   2.555 -0.0513 -0.6366 -0.2872
   44MOL   C54833314   6.642   0.586   2.492  0.4684  0.5032 -0.3631
   44MOL   N54933315   6.624   0.700   2.395 -0.1069  0.1478 -0.4295
   44MOL   H55033316   0.046   0.639   2.680  0.1730  0.4235 -0.7574
   44MOL   H55133317   7.609   0.579   2.767  0.3309 -0.3190  0.0340
   44MOL   H55233318   7.646   0.868   2.701  2.4727 -1.4023  0.7739
   44MOL   H55333319   7.554   0.741   2.612 -0.0106 -2.5383  0.1304
   44MOL   H55433320   7.494   0.835   2.889  0.2620 -1.0532  1.0732
   44MOL   H55533321   7.412   0.698   2.804 -2.0407  0.6671 -1.6993
   44MOL   H55633322   7.317   0.864   2.641  0.1035  1.1170 -0.0992
   44MOL   H55733323   7.397   0.993   2.728  0.9801 -0.5242  0.8070
   44MOL   H55833324   7.220   0.705   2.826 -0.9868 -1.1009  0.9822
   44MOL   H55933325   7.067   0.671   3.002  1.2001  0.0569  0.6455
   44MOL   H56033326   7.059   0.847   3.020  1.9447  1.1053 -0.5310
   44MOL   H56133327   6.835   0.749   2.910 -1.1537  0.8929 -1.7578
   44MOL   H56233328   6.910   0.887   2.853 -4.5331 -0.0690 -1.0379
   44MOL   H56333329   6.980   0.605   2.744  2.4923  1.4935  1.8482
   44MOL   H56433330   7.014   0.758   2.666  0.1797  0.5266  0.8126
   44MOL   H56533331   6.722   0.682   2.744  0.3912 -0.4847  0.8738
   44MOL   H56633332   6.764   0.793   2.619 -0.0999 -0.4717  0.6707
   44MOL   H56733333   6.856   0.620   2.478  0.2985  1.1523  0.5980
   44MOL   H56833334   6.816   0.498   2.592 -2.2021 -1.2939 -0.0809
   44MOL   H56933335   6.564   0.584   2.568 -0.7383  0.0156 -1.6065
   44MOL   H57033336   6.627   0.491   2.442 -2.4280  0.8197 -0.1497
   44MOL   H57133337   6.700   0.733   2.337  0.5333 -2.0629 -0.8908
   44MOL   C57233338   6.510   0.762   2.368  0.5931 -0.5573  0.4594
   44MOL   O57333339   6.401   0.732   2.418 -0.3762  0.0056  0.1742
   44MOL   C57433340   6.506   0.879   2.273  0.4187 -0.1021 -0.2317
   44MOL   C57533341   6.472   0.831   2.126 -0.5124  0.1808  0.5878
   44MOL   C57633342   6.599   0.780   2.054  0.8032 -0.6772 -0.0578
   44MOL   C57733343   6.722   0.873   2.050  0.3020  0.1518 -0.0152
   44MOL   C57833344   6.815   0.861   2.161  0.0368  0.2327  0.4585
   44MOL   O57933345   6.846   0.749   2.208 -0.5497 -0.2837  0.5861
   44MOL   N58033346   6.862   0.980   2.209 -0.4369  0.0658  0.1082
   44MOL   C58133347   6.967   0.992   2.306  0.3314  0.4028 -0.1471
   44MOL   C58233348   6.909   1.060   2.435  0.1083 -0.1330  0.9046
   44MOL   C58333349   7.015   1.070   2.542  0.2965  0.9284  0.5218
   44MOL   C58433350   7.046   1.212   2.599 -0.2511  0.5331 -0.2347
   44MOL   C58533351   6.929   1.291   2.663  0.2025  0.5774 -0.5234
   44MOL   C58633352   6.861   1.216   2.778  0.2481 -0.5034 -0.0394
   44MOL   N58733353   6.950   1.205   2.894 -0.1928 -0.3050 -0.2204
   44MOL   H58833354   6.422   0.940   2.305  0.6179 -0.0857  0.2502
   44MOL   H58933355   6.594   0.944   2.277  2.0239 -2.1669 -0.9831
   44MOL   H59033356   6.397   0.751   2.124  0.3692 -0.6437 -0.4451
   44MOL   H59133357   6.430   0.920   2.079 -1.8691  0.0074  1.4295
   44MOL   H59233358   6.567   0.739   1.958  1.6380  2.3871 -1.6861
   44MOL   H59333359   6.627   0.697   2.120 -0.8331 -1.0431  0.1878
   44MOL   H59433360   6.684   0.974   2.036 -0.5511 -0.3106 -1.1502
   44MOL   H59533361   6.795   0.855   1.971  1.2121 -0.5239  0.9642
   44MOL   H59633362   6.832   1.063   2.160 -0.3817 -0.2002 -0.3728
   44MOL   H59733363   6.998   0.890   2.332  0.1454  0.1826 -0.7769
   44MOL   H59833364   7.045   1.056   2.264  0.6208 -0.0129 -0.2601
   44MOL   H59933365   6.884   1.157   2.394 -0.4202 -1.5138 -2.1507
   44MOL   H60033366   6.822   1.002   2.467 -0.8403  0.0806 -1.2518
   44MOL   H60133367   7.108   1.032   2.499 -0.7997 -0.3724 -0.7424
   44MOL   H60233368   7.005   0.997   2.622 -2.1290 -0.1690 -0.7454
   44MOL   H60333369   7.121   1.213   2.678  0.7250 -0.6367 -1.1360
   44MOL   H60433370   7.091   1.276   2.523 -0.9081  1.7622  0.3945
   44MOL   H60533371   6.977   1.377   2.709  3.5923 -1.8556  0.6566
   44MOL   H60633372   6.860   1.330   2.588 -0.6967  1.2860  0.6380
   44MOL   H60733373   6.817   1.123   2.742  0.5498  0.0093 -1.7888
   44MOL   H60833374   6.781   1.275   2.823 -2.2622 -2.1612 -2.2086
   44MOL   H60933375   7.033   1.148   2.887  0.2257  0.2677  0.0626
   44MOL   C61033376   6.923   1.238   3.022  0.3099 -0.2553  0.2232
   44MOL   O61133377   6.817   1.297   3.051 -0.3485 -0.1266 -0.4978
   44MOL   C61233378   7.027   1.196   3.128 -0.1155  0.1297 -0.4351
   44MOL   C61333379   7.074   1.315   3.214  0.3540 -0.0459  0.1200
   44MOL   C61433380   7.171   1.270   3.324 -0.1812 -0.5214  0.0477
   44MOL   C61533381   7.202   1.380   3.426  0.2856  0.2679 -0.4128
   44MOL   C61633382   7.339   1.436   3.415 -0.0909  0.0131  0.0681
   44MOL   O61733383   7.385   1.481   3.310  0.3347  0.5256 -0.8246
   44MOL   N61833384   7.412   1.443   3.526 -0.2926  0.3543  0.4503
   44MOL   C61933385   7.543   1.505   3.535 -0.3482  0.0649  0.2735
   44MOL   C62033386   7.648   1.419   3.481  0.5259 -0.2943  0.4484
   44MOL   C62133387   7.653   1.270   3.532 -0.0895  0.4568  0.3681
   44MOL   C62233388   7.581   1.155   3.456  0.2144  0.2266 -0.1231
   44MOL   C62333389   7.600   1.020   3.518 -0.0935 -0.1732 -0.0990
   44MOL   C62433390   7.529   1.002   3.656  0.1356  0.3824 -0.1018
   44MOL   N62533391   7.549   0.863   3.712  0.2380  0.1168  0.1106
   44MOL   H62633392   6.982   1.112   3.181  1.3704 -0.4217 -0.0470
   44MOL   H62733393   7.114   1.163   3.073 -0.2058 -0.4225 -0.2466
   44MOL   H62833394   7.112   1.395   3.151  0.0724 -0.7059 -0.8944
   44MOL   H62933395   6.984   1.354   3.261  0.0703 -1.1215  0.4905
   44MOL   H63033396   7.265   1.233   3.283  0.0392 -0.7191  0.7259
   44MOL   H63133397   7.138   1.175   3.365  0.2135 -0.1890  1.1522
   44MOL   H63233398   7.204   1.322   3.518 -2.2619  0.0466 -0.4698
   44MOL   H63333399   7.129   1.461   3.429  0.0618  0.0029  2.0287
   44MOL   H63433400   7.377   1.387   3.603 -2.0620  0.5052 -0.2227
   44MOL   H63533401   7.568   1.599   3.486  0.3972  0.1204  0.7693
   44MOL   H63633402   7.551   1.520   3.643  2.1141  1.3713 -0.0486
   44MOL   H63733403   7.638   1.422   3.373  0.3324  1.4342  0.5036
   44MOL   H63833404   0.031   1.473   3.507 -0.1799  0.8002  0.6669
   44MOL   H63933405   7.631   1.271   3.639  0.5210 -0.5113  0.5195
   44MOL   H64033406   0.052   1.247   3.533 -0.2472 -0.3013 -0.0170
   44MOL   H64133407   7.478   1.178   3.430  0.7045  0.8541 -1.5560
   44MOL   H64233408   7.628   1.142   3.359 -2.5059 -0.6227 -1.3776
   44MOL   H64333409   7.573   0.942   3.447  2.2273 -0.1909 -1.0137
   44MOL   H64433410   0.000   1.012   3.527 -0.0756 -0.7441 -0.7895
   44MOL   H64533411   7.421   1.017   3.660  0.1556  1.2234 -1.8726
   44MOL   H64633412   7.554   1.076   3.732  2.1235  0.6742 -0.9899
   44MOL   H64733413   7.632   0.842   3.764  1.2733 -1.0880 -1.9592
   44MOL   C64833414   7.457   0.768   3.719  0.8532  0.4747  0.0072
   44MOL   O64933415   7.338   0.779   3.671 -0.3652  0.4961  0.8885
   44MOL   C65033416   7.495   0.641   3.804  0.1327 -0.6194  0.4030
   44MOL   C65133417   7.419   0.509   3.773  0.2943 -0.0364  0.2600
   44MOL   C65233418   7.438   0.439   3.638 -0.7459  0.0015 -0.1779
   44MOL   C65333419   7.372   0.297   3.617 -0.0351  0.3737 -0.4406
   44MOL   C65433420   7.411   0.191   3.723  0.2616 -0.4988  0.0612
   44MOL   O65533421   7.401   0.210   3.843 -0.5091  0.1549  0.0060
   44MOL   N65633422   7.466   0.078   3.677 -0.0480  0.2678 -0.6372
   44MOL   C65733423   7.512   7.680   3.764  0.0613 -0.0153 -0.1299
   44MOL   C65833424   7.571   7.570   3.673 -0.3175  0.4755  0.0671
   44MOL   C65933425   7.634   7.455   3.753 -0.2431  0.4504 -0.3857
   44MOL   C66033426   0.022   7.359   3.675  0.2024 -0.1217 -0.4234
   44MOL   C66133427   0.072   7.238   3.754  0.4627 -0.4941  0.3372
   44MOL   C66233428   7.692   7.111   3.744 -0.3151 -0.2847 -0.2603
   44MOL   N66333429   7.681   7.065   3.607 -0.5324  0.8264  0.7015
   44MOL   H66433430   7.602   0.623   3.794 -0.3769 -2.5043 -2.4574
   44MOL   H66533431   7.469   0.656   3.909  0.3748  0.8881  0.2550
   44MOL   H66633432   7.440   0.436   3.851 -0.4775 -0.4344  0.0930
   44MOL   H66733433   7.314   0.535   3.784  0.4336 -0.1677  2.0274
   44MOL   H66833434   7.545   0.429   3.624 -0.4317  0.3055  1.8596
   44MOL   H66933435   7.395   0.499   3.557  2.6706  0.9781 -1.3413
   44MOL   H67033436   7.400   0.263   3.517  1.5881  2.7929 -0.8537
   44MOL   H67133437   7.264   0.290   3.617 -0.0028 -0.1630 -0.7255
   44MOL   H67233438   7.468   0.060   3.578  2.8962 -0.6121 -0.4542
   44MOL   H67333439   7.600   0.014   3.812  1.0927 -1.5526 -0.6710
   44MOL   H67433440   7.436   7.641   3.832 -2.2995  1.4380 -1.8424
   44MOL   H67533441   7.489   7.515   3.628  1.2799 -0.2676 -2.0446
   44MOL   H67633442   7.642   7.599   3.595  1.5908 -1.8550  0.8732
   44MOL   H67733443   7.549   7.401   3.796 -2.4495  2.1861 -2.4177
   44MOL   H67833444   7.688   7.500   3.836 -2.2389 -1.1305  1.8354
   44MOL   H67933445   7.670   7.310   3.598  1.1453  0.3314 -1.4706
   44MOL   H68033446   0.094   7.424   3.624 -0.4077  0.9365  0.0572
   44MOL   H68133447   0.162   7.214   3.697 -0.4152  0.7953 -1.6447
   44MOL   H68233448   0.097   7.258   3.858 -1.1723 -0.7138  0.7875
   44MOL   H68333449   7.594   7.143   3.782 -0.3625 -1.5931  0.7400
   44MOL   H68433450   0.024   7.029   3.803 -1.1269  0.8630  1.9793
   44MOL   H68533451   0.005   7.126   3.533  1.2309 -1.5282 -0.5643
   44MOL   C68633452   7.633   6.942   3.587  0.3890  0.1865 -0.2979
   44MOL   O68733453   7.591   6.874   3.675 -0.2463  0.6524 -0.3230
   44MOL   C68833454   7.641   6.872   3.443 -0.3938  0.1752  0.0945
   44MOL   C68933455   7.530   6.766   3.431  0.0455  0.5907  0.0807
   44MOL   C69033456   7.386   6.822   3.417  0.9584  0.2616 -0.0221
   44MOL   C69133457   7.272   6.722   3.425  0.2543  0.6281  0.5767
   44MOL   C69233458   7.189   6.730   3.303  0.2434 -0.2282 -0.5150
   44MOL   O69333459   7.185   6.637   3.223 -0.0745 -0.0429  0.8508
   44MOL   N69433460   7.105   6.831   3.299  0.0283  0.1178  0.2701
   44MOL   C69533461   7.024   6.863   3.184  0.4830  0.2451  0.4533
   44MOL   C69633462   7.002   7.016   3.181  0.3579 -0.4546  0.3635
   44MOL   C69733463   6.934   7.077   3.309 -0.1987  0.3402  0.1040
   44MOL   C69833464   6.900   7.216   3.291  0.1595 -0.2145 -0.2963
   44MOL   C69933465   6.811   7.266   3.409 -0.5420  0.3476  0.0749
   44MOL   C70033466   6.660   7.214   3.423 -0.0341  0.6994 -0.1959
   44MOL   N70133467   6.590   7.217   3.296 -0.4101  0.3465 -0.2279
   44MOL   H70233468   7.616   6.943   3.364  0.9578  1.9647  1.2206
   44MOL   H70333469   0.033   6.836   3.420 -1.2848 -2.7137  0.5502
   44MOL   H70433470   7.551   6.716   3.337 -0.1505  0.9432 -0.1516
   44MOL   H70533471   7.529   6.694   3.513  0.4081  1.5544  0.9531
   44MOL   H70633472   7.384   6.908   3.349  1.9766  3.3884  3.7035
   44MOL   H70733473   7.377   6.871   3.514  1.8275 -1.6306  1.0277
   44MOL   H70833474   7.207   6.742   3.511 -0.6013 -0.1431  0.1127
   44MOL   H70933475   7.309   6.619   3.423  0.9280  0.8838 -1.8456
   44MOL   H71033476   7.117   6.906   3.366 -0.3789  1.2022 -0.8636
   44MOL   H71133477   7.085   6.834   3.098  0.6290 -2.9571  1.5447
   44MOL   H71233478   6.930   6.810   3.168  0.4190  0.5252 -0.1137
   44MOL   H71333479   7.097   7.065   3.158  0.2209  1.2951  3.2771
   44MOL   H71433480   6.942   7.049   3.096  0.6121 -1.0932 -0.0609
   44MOL   H71533481   7.009   7.079   3.388  1.5237  0.2236 -1.4878
   44MOL   H71633482   6.851   7.016   3.344  0.5476 -0.6416  0.1769
   44MOL   H71733483   6.984   7.284   3.277  0.4767 -1.1032 -3.1932
   44MOL   H71833484   6.846   7.227   3.197  1.4416  0.3889 -0.9841
   44MOL   H71933485   6.862   7.248   3.503 -0.7537 -0.3271  0.0604
   44MOL   H72033486   6.807   7.375   3.404  0.5189  0.3702 -0.3347
   44MOL   H72133487   6.600   7.273   3.493 -0.9333 -1.6573  1.0657
   44MOL   H72233488   6.658   7.112   3.462  2.9149 -0.2123 -2.1852
   44MOL   H72333489   6.578   7.130   3.246 -0.9811  0.4122 -0.2084
   44MOL   C72433490   6.514   7.312   3.241  0.4785  0.6220  0.1921
   44MOL   O72533491   6.521   7.429   3.285 -0.1406  0.3300 -0.0132
   44MOL   C72633492   6.435   7.282   3.113 -0.0121 -0.5885 -0.4740
   44MOL   C72733493   6.310   7.370   3.086  0.8523 -0.0848  0.0465
   44MOL   C72833494   6.178   7.304   3.102 -0.0945 -0.8841  0.3968
   44MOL   C72933495   6.064   7.411   3.084  0.4437 -0.4444  0.0589
   44MOL   C73033496   6.029   7.435   2.937  0.5059  0.2054 -0.7695
   44MOL   O73133497   6.024   7.337   2.860  0.5183 -0.3693  0.0834
   44MOL   N73233498   6.018   7.560   2.894 -0.0520  0.1131  0.1165
   44MOL   C73333499   6.002   7.609   2.752  0.3366 -0.2990 -0.5728
   44MOL   C73433500   6.107   0.007   2.722 -0.3100 -0.0523 -0.2883
   44MOL   C73533501   6.250   7.677   2.762 -0.4531 -0.1343  0.1028
   44MOL   C73633502   6.354   0.060   2.693  0.0302  0.5391  0.6457
   44MOL   C73733503   6.337   0.193   2.754 -0.3217 -0.3944 -0.0426
   44MOL   C73833504   6.463   0.288   2.706  0.5152 -1.0947 -0.3441
   44MOL   N73933505   6.425   0.428   2.716 -0.7471 -0.0313 -0.4678
   44MOL   H74033506   6.499   7.301   3.026 -1.2483  4.6366 -0.3961
   44MOL   H74133507   6.424   7.173   3.106  0.4008 -0.7156  0.8546
   44MOL   H74233508   6.312   7.454   3.155  2.8993 -1.0737  1.2542
   44MOL   H74333509   6.327   7.411   2.987  0.7335 -1.0852 -0.3989
   44MOL   H74433510   6.180   7.267   3.205 -0.3734 -0.8154  0.4279
   44MOL   H74533511   6.164   7.211   3.046  2.6385 -1.6900  1.0111
   44MOL   H74633512   6.094   7.511   3.116 -1.0357  0.1108 -0.2703
   44MOL   H74733513   5.974   7.379   3.137 -0.4282  1.5922 -0.1506
   44MOL   H74833514   6.013   7.627   2.970  1.5060  0.6987 -0.2679
   44MOL   H74933515   6.005   7.525   2.683 -1.0439  0.1029 -1.1413
   44MOL   H75033516   5.902   7.650   2.737  0.6382  0.4838 -0.4488
   44MOL   H75133517   6.106   0.031   2.615 -1.0198 -0.5870 -0.4060
   44MOL   H75233518   6.076   0.098   2.772 -0.0631 -1.1544  1.9148
   44MOL   H75333519   6.278   7.576   2.732 -3.2554 -1.4729  1.7760
   44MOL   H75433520   6.265   7.672   2.870  0.3678  1.3436  0.0581
   44MOL   H75533521   6.455   0.028   2.718  0.0124 -1.0562 -1.2190
   44MOL   H75633522   6.352   0.050   2.584 -0.2368 -0.0203  0.6982
   44MOL   H75733523   6.243   0.238   2.723  0.9243  1.8080 -0.7201
   44MOL   H75833524   6.341   0.193   2.863 -0.4412 -2.5969 -0.0212
   44MOL   H75933525   6.483   0.285   2.599  3.4538  1.0169  0.0850
   44MOL   H76033526   6.554   0.263   2.761 -0.0550  0.0474  1.1360
   44MOL   H76133527   6.398   0.456   2.809 -3.1096 -2.4291 -0.3732
   44MOL   H76233528   6.339   0.439   2.665 -1.2608  0.0275  0.4046
   45MOL     C133529   1.860   1.192   4.247 -1.1645 -0.0345 -0.9494
   45MOL     O233530   1.824   1.085   4.199  0.2931 -0.1312 -0.0529
   45MOL     C333531   1.834   1.238   4.389  0.7247  0.7438  0.1681
   45MOL     C433532   1.790   1.115   4.473 -0.4551  0.5919 -0.3970
   45MOL     C533533   1.635   1.088   4.454 -0.0756 -0.2492 -0.4124
   45MOL     C633534   1.594   0.951   4.507 -0.7179  0.6994  0.4698
   45MOL     C733535   1.438   0.940   4.526  0.1785  0.1762 -0.0230
   45MOL     O833536   1.381   1.046   4.552  0.7832 -0.5703 -0.1618
   45MOL     N933537   1.380   0.821   4.533  0.4285 -0.6591 -0.4261
   45MOL    C1033538   1.239   0.794   4.509  0.2103  0.5731  0.1125
   45MOL    C1133539   1.172   0.683   4.600  0.4221  0.1986  0.5474
   45MOL    C1233540   1.020   0.691   4.593 -0.0767  0.2070  0.0976
   45MOL    C1333541   0.970   0.672   4.453  0.5592 -0.1891  0.2341
   45MOL    C1433542   1.017   0.540   4.401  0.5605 -0.5184 -0.4149
   45MOL    C1533543   0.941   0.504   4.274 -0.6869  0.2667 -0.0348
   45MOL    N1633544   0.953   0.361   4.252  0.5050  0.0215 -0.2648
   45MOL    H1733545   1.922   1.281   4.437  0.8375 -0.4717  1.0635
   45MOL    H1833546   1.751   1.309   4.390  1.3354  1.4592  1.4329
   45MOL    H1933547   1.848   1.027   4.443  0.5933  0.9276  0.6076
   45MOL    H2033548   1.822   1.145   4.572 -0.5479  1.5190 -0.6386
   45MOL    H2133549   1.619   1.090   4.347  0.1350  2.2078 -0.4397
   45MOL    H2233550   1.568   1.163   4.497  0.9327 -0.4193  1.5489
   45MOL    H2333551   1.633   0.930   4.607  0.7796 -1.0293 -0.4516
   45MOL    H2433552   1.635   0.874   4.442 -2.0559  0.8055 -0.5037
   45MOL    H2533553   1.448   0.747   4.541  2.5786  1.2275 -0.4639
   45MOL    H2633554   1.184   0.888   4.518 -0.5006  0.3449 -1.7526
   45MOL    H2733555   1.215   0.765   4.407  0.9044  0.8344 -0.1244
   45MOL    H2833556   1.199   0.579   4.581  0.5431  0.4171 -0.5637
   45MOL    H2933557   1.205   0.693   4.703 -1.6909 -0.3440  1.3012
   45MOL    H3033558   0.985   0.783   4.640 -2.7881 -1.3386  1.2574
   45MOL    H3133559   0.972   0.612   4.651 -1.4572 -1.1754 -2.8345
   45MOL    H3233560   0.863   0.673   4.472  0.3356  1.9337 -0.9344
   45MOL    H3333561   0.985   0.760   4.390  1.3660  0.1252  0.8574
   45MOL    H3433562   1.121   0.542   4.367  0.2249 -4.9221 -1.9757
   45MOL    H3533563   1.012   0.455   4.470  1.7532 -0.8102 -0.6658
   45MOL    H3633564   0.971   0.560   4.186  0.0834 -3.5511 -2.3292
   45MOL    H3733565   0.833   0.518   4.278 -0.5024  1.8110 -0.3195
   45MOL    H3833566   0.866   0.311   4.240 -0.1700  1.1449 -0.0919
   45MOL    H3933567   1.921   1.261   4.189 -1.7704  1.2772 -0.0337
   45MOL    C4033568   1.060   0.322   4.184  0.8972 -0.3027 -0.1732
   45MOL    O4133569   1.156   0.392   4.157  0.6024 -0.2466 -0.1778
   45MOL    C4233570   1.053   0.173   4.124 -0.1372  0.4731  0.0199
   45MOL    C4333571   1.016   0.165   3.977  0.3352 -0.3598  0.3226
   45MOL    C4433572   1.130   0.200   3.873 -0.5268  0.3273 -0.2121
   45MOL    C4533573   1.230   0.088   3.851 -0.2897 -0.0105  0.4106
   45MOL    C4633574   1.177   7.684   3.768  0.3475  0.7385 -0.1607
   45MOL    O4733575   1.151   7.705   3.653  0.4282  0.8012  0.1931
   45MOL    N4833576   1.179   7.554   3.812 -0.5733 -0.6960 -0.4142
   45MOL    C4933577   1.127   7.442   3.739 -0.5658  0.2639 -0.3828
   45MOL    C5033578   1.177   7.303   3.787 -0.7506  0.2717  0.0149
   45MOL    C5133579   1.188   7.289   3.937  0.2306  0.5592 -0.5544
   45MOL    C5233580   1.196   7.142   3.980 -0.0649 -0.9032  0.1112
   45MOL    C5333581   1.218   7.133   4.132 -0.0257 -1.6500 -0.2932
   45MOL    C5433582   1.344   7.199   4.183 -0.4518 -0.2882 -0.1713
   45MOL    N5533583   1.468   7.151   4.125 -0.1413  0.1409  0.2490
   45MOL    H5633584   1.152   0.128   4.135 -0.9855 -1.4738 -0.0116
   45MOL    H5733585   0.978   0.120   4.184 -0.6874  1.2274  0.0033
   45MOL    H5833586   0.977   0.067   3.948  0.3062 -0.2248 -0.0992
   45MOL    H5933587   0.934   0.236   3.966 -4.1543 -4.7919  3.0754
   45MOL    H6033588   1.176   0.291   3.913 -3.1964  1.3626  0.6124
   45MOL    H6133589   1.087   0.232   3.778  0.5652  0.0295 -0.8189
   45MOL    H6233590   1.257   0.049   3.949  0.5426 -2.4713 -0.7573
   45MOL    H6333591   1.319   0.131   3.806 -2.3180  2.1154 -1.7299
   45MOL    H6433592   1.223   7.521   3.897  1.8405 -0.3183 -1.4504
   45MOL    H6533593   1.019   7.449   3.737 -0.5072  1.5888  0.7436
   45MOL    H6633594   1.159   7.468   3.637 -2.6444  0.8436 -0.9047
   45MOL    H6733595   1.112   7.234   3.735  1.3138 -2.2186  0.6680
   45MOL    H6833596   1.272   7.285   3.736 -1.6093 -0.3039 -1.4008
   45MOL    H6933597   1.107   7.337   3.992  1.1506 -1.2890  2.5508
   45MOL    H7033598   1.284   7.337   3.957  1.2033 -0.7329 -1.9646
   45MOL    H7133599   1.102   7.094   3.955 -1.7797  1.9051  0.9257
   45MOL    H7233600   1.276   7.096   3.923 -0.4589  1.7607 -2.7117
   45MOL    H7333601   1.132   7.176   4.183  0.6508 -0.3674 -0.2116
   45MOL    H7433602   1.222   7.031   4.171 -0.9602 -1.2609  0.8410
   45MOL    H7533603   1.348   7.184   4.291  0.0017 -0.7507 -0.2463
   45MOL    H7633604   1.344   7.305   4.156  0.7154 -0.4998 -1.0263
   45MOL    H7733605   1.507   7.206   4.050  1.1499 -1.4014 -0.2499
   45MOL    C7833606   1.522   7.033   4.162 -0.5673 -0.5463 -0.6507
   45MOL    O7933607   1.476   6.975   4.257 -0.2371  0.3446 -0.2018
   45MOL    C8033608   1.630   6.976   4.072 -0.5573  0.3965 -0.4966
   45MOL    C8133609   1.612   6.827   4.033 -0.1238 -0.2895 -0.4176
   45MOL    C8233610   1.473   6.794   3.970  0.0735  0.0993  0.4225
   45MOL    C8333611   1.448   6.644   3.939  0.0088  0.3640  0.3817
   45MOL    C8433612   1.499   6.603   3.801 -0.0034  0.2096 -0.7425
   45MOL    O8533613   1.592   6.662   3.740 -0.9748  0.7912  0.3208
   45MOL    N8633614   1.430   6.500   3.751  0.3417 -0.7861  0.8594
   45MOL    C8733615   1.448   6.426   3.620 -0.2038 -0.1216 -0.2998
   45MOL    C8833616   1.348   6.459   3.510  0.1781  0.0414  0.3378
   45MOL    C8933617   1.367   6.366   3.383  0.1179  0.6073  0.4146
   45MOL    C9033618   1.291   6.413   3.257  0.5616 -0.3100 -0.6050
   45MOL    C9133619   1.309   6.302   3.152 -0.1039 -0.9547 -0.5808
   45MOL    C9233620   1.425   6.323   3.058 -0.3868 -0.0081 -0.7321
   45MOL    N9333621   1.396   6.439   2.973  0.2312 -0.4836 -0.9642
   45MOL    H9433622   1.649   7.044   3.989  1.4499  1.6409  0.9302
   45MOL    H9533623   1.725   6.981   4.125  0.4418  1.2552 -2.3137
   45MOL    H9633624   1.688   6.799   3.960 -0.0497  2.5637 -1.4866
   45MOL    H9733625   1.634   6.764   4.119  0.9523  2.6839  1.5686
   45MOL    H9833626   1.446   6.851   3.882 -0.9604 -0.6978  0.2203
   45MOL    H9933627   1.405   6.822   4.051  0.1021  0.5540  0.2901
   45MOL   H10033628   1.340   6.632   3.935 -0.1161  1.2976  0.7329
   45MOL   H10133629   1.503   6.577   4.005  0.1637 -0.2644 -0.3711
   45MOL   H10233630   1.360   6.470   3.817  1.7255 -0.9075  2.3017
   45MOL   H10333631   1.545   6.426   3.571  0.5472 -0.8114  1.1751
   45MOL   H10433632   1.425   6.320   3.633 -1.6151  0.3365  1.0678
   45MOL   H10533633   1.244   6.452   3.542 -0.5845  0.0972 -1.9746
   45MOL   H10633634   1.360   6.562   3.475 -0.3108  0.6052  1.8005
   45MOL   H10733635   1.328   6.266   3.400  0.6169  0.4554  0.6793
   45MOL   H10833636   1.472   6.348   3.360  0.4788  2.0344  0.8864
   45MOL   H10933637   1.184   6.424   3.274  1.3220  3.8677  2.1397
   45MOL   H11033638   1.335   6.506   3.220  0.0194  0.4038  0.5381
   45MOL   H11133639   1.316   6.198   3.185  0.4010 -0.1667  1.8213
   45MOL   H11233640   1.228   6.297   3.079  0.0615 -2.6399 -0.6785
   45MOL   H11333641   1.440   6.236   2.994  2.4607 -0.5159  0.5629
   45MOL   H11433642   1.515   6.344   3.116 -1.5017  2.0650  0.3030
   45MOL   H11533643   1.446   6.523   2.999 -0.9281  0.5366 -1.9436
   45MOL   C11633644   1.317   6.452   2.869  0.3370 -0.6625  0.3055
   45MOL   O11733645   1.254   6.353   2.823 -0.2473 -0.1344  1.0068
   45MOL   C11833646   1.302   6.591   2.804 -0.3676  0.5590  0.0041
   45MOL   C11933647   1.159   6.636   2.783  0.5669  0.0175 -0.2740
   45MOL   C12033648   1.072   6.680   2.899  0.3908 -0.3797 -0.6268
   45MOL   C12133649   1.029   6.570   2.987 -0.0852 -0.0682  0.4426
   45MOL   C12233650   0.942   6.624   3.100  0.2880  0.1389  0.1615
   45MOL   O12333651   0.975   6.609   3.219 -0.0146  0.2499  0.3489
   45MOL   N12433652   0.823   6.685   3.074  0.2315  0.6561  0.1754
   45MOL   C12533653   0.736   6.739   3.178  0.3222  0.1116 -0.3301
   45MOL   C12633654   0.626   6.839   3.136 -0.1756  0.4566  0.3278
   45MOL   C12733655   0.683   6.955   3.048  0.4768  0.3777  0.4017
   45MOL   C12833656   0.681   6.956   2.891  0.0479 -0.2063  0.3969
   45MOL   C12933657   0.814   7.020   2.844 -0.3648 -0.2123  0.9935
   45MOL   C13033658   0.813   7.062   2.693 -0.1692  0.0739 -0.1386
   45MOL   N13133659   0.928   7.141   2.666 -0.3786 -0.1433  0.2177
   45MOL   H13233660   1.360   6.673   2.846  0.7355 -0.0730 -0.2631
   45MOL   H13333661   1.348   6.574   2.707  1.1377  0.3623  0.7387
   45MOL   H13433662   1.168   6.716   2.709 -0.9416  0.0131 -0.4747
   45MOL   H13533663   1.100   6.556   2.739  1.1854 -1.4879  1.5343
   45MOL   H13633664   0.976   6.716   2.861 -1.4508 -2.9282  1.4279
   45MOL   H13733665   1.136   6.749   2.954 -1.0287 -0.2114  0.8341
   45MOL   H13833666   1.117   6.526   3.033 -1.4575 -1.9307  1.3470
   45MOL   H13933667   0.968   6.493   2.938  0.1766 -1.0924  1.6953
   45MOL   H14033668   0.809   6.702   2.976 -2.0914  0.3904  0.4257
   45MOL   H14133669   0.682   6.664   3.236 -1.3649  1.8013  0.3366
   45MOL   H14233670   0.803   6.789   3.248  1.4326 -0.3264 -1.0719
   45MOL   H14333671   0.547   6.791   3.078 -1.6270 -0.1228  2.7171
   45MOL   H14433672   0.588   6.882   3.229  1.9886 -1.2967  2.0854
   45MOL   H14533673   0.786   6.968   3.081  1.3652  0.4463 -2.2530
   45MOL   H14633674   0.631   7.045   3.083  1.0773  0.3538  1.3678
   45MOL   H14733675   0.685   6.858   2.843  1.5522  0.5019 -0.9782
   45MOL   H14833676   0.603   7.021   2.852 -1.0215 -1.8604 -0.2663
   45MOL   H14933677   0.839   7.105   2.907  0.3026  0.0370  0.3991
   45MOL   H15033678   0.898   6.955   2.868 -0.7495 -0.9238  0.4342
   45MOL   H15133679   0.727   7.128   2.680 -0.6023 -0.2936  0.7743
   45MOL   H15233680   0.797   6.982   2.620 -0.2000  0.6459 -0.7616
   45MOL   H15333681   1.003   7.085   2.628  1.5160  1.3500  1.6573
   45MOL   C15433682   0.965   7.269   2.684  0.7261  0.5385  0.1212
   45MOL   O15533683   0.897   7.363   2.721  0.6363 -0.4695  0.0801
   45MOL   C15633684   1.109   7.305   2.644 -0.2511  0.1360  0.0421
   45MOL   C15733685   1.212   7.286   2.763 -0.1432 -0.0861  0.1758
   45MOL   C15833686   1.226   7.138   2.809 -0.1373 -0.3036  0.3658
   45MOL   C15933687   1.331   7.060   2.728  0.2272 -0.1262  0.3521
   45MOL   C16033688   1.266   6.996   2.606 -0.2052  0.0192 -0.5035
   45MOL   O16133689   1.150   6.959   2.607  0.4737 -0.2163  0.1454
   45MOL   N16233690   1.345   6.984   2.498 -0.0510 -0.3662  0.1019
   45MOL   C16333691   1.290   6.966   2.361 -0.7028  0.0073  0.2952
   45MOL   C16433692   1.282   6.819   2.320 -0.3664  0.7823  0.7923
   45MOL   C16533693   1.417   6.753   2.321 -0.0429  0.0733 -0.0071
   45MOL   C16633694   1.433   6.605   2.274  0.7107  0.1926  0.1319
   45MOL   C16733695   1.568   6.548   2.319  0.2263  0.3322  0.0375
   45MOL   C16833696   1.614   6.410   2.268 -0.0274 -0.0829  0.9039
   45MOL   N16933697   1.594   6.381   2.126 -0.6923 -0.1819 -0.6961
   45MOL   H17033698   1.144   7.240   2.564 -0.2869  1.8715 -1.3912
   45MOL   H17133699   1.111   7.408   2.609  1.4733  0.6912  1.7163
   45MOL   H17233700   1.314   7.316   2.741 -0.1632  1.0422  1.5336
   45MOL   H17333701   1.178   7.348   2.846  2.8023  0.2332  1.2159
   45MOL   H17433702   1.127   7.093   2.819 -0.8362  1.2854  0.7477
   45MOL   H17533703   1.261   7.145   2.912 -0.1750 -1.2527  0.4546
   45MOL   H17633704   1.386   6.992   2.792  0.5311  0.7938  1.0728
   45MOL   H17733705   1.416   7.118   2.690  0.6697 -1.4379 -0.7227
   45MOL   H17833706   1.444   7.001   2.513 -0.2094  0.8018 -0.0823
   45MOL   H17933707   1.191   7.011   2.362 -2.2132 -2.9439 -3.7232
   45MOL   H18033708   1.344   7.028   2.289 -1.2914  1.4384  1.0763
   45MOL   H18133709   1.218   6.764   2.389  0.8785 -0.1449  1.2170
   45MOL   H18233710   1.236   6.809   2.222 -1.8472  2.5712  1.2720
   45MOL   H18333711   1.463   6.772   2.418  0.8014  1.4782 -0.6701
   45MOL   H18433712   1.476   6.810   2.249 -0.9102  0.3874 -0.4828
   45MOL   H18533713   1.353   6.547   2.321  1.3360  1.7328  3.2600
   45MOL   H18633714   1.409   6.591   2.169 -0.0233 -1.2817  0.4797
   45MOL   H18733715   1.636   6.626   2.285  1.1393 -0.2077  0.6119
   45MOL   H18833716   1.572   6.559   2.427 -2.9644  0.9456  0.1427
   45MOL   H18933717   1.559   6.333   2.323 -1.2055 -1.8658 -2.6536
   45MOL   H19033718   1.713   6.376   2.299  1.0033  2.3190  0.3471
   45MOL   H19133719   1.513   6.419   2.079 -1.2397  1.0679  1.2327
   45MOL   C19233720   1.681   6.321   2.045  0.8383  0.9296  0.2643
   45MOL   O19333721   1.795   6.284   2.081 -0.3647 -0.3144 -0.0583
   45MOL   C19433722   1.629   6.297   1.902  0.3807  0.1123 -0.0730
   45MOL   C19533723   1.558   6.170   1.874  0.5070  0.2601 -0.3857
   45MOL   C19633724   1.635   6.044   1.902 -0.6123  0.7932 -0.4290
   45MOL   C19733725   1.589   5.918   1.820  0.1603 -0.5499  0.2077
   45MOL   C19833726   1.665   5.791   1.870 -1.0495 -0.4409 -0.4587
   45MOL   O19933727   1.672   5.758   1.988  0.3240  0.4877  0.1074
   45MOL   N20033728   1.735   5.721   1.777  0.0865 -0.1853 -0.4757
   45MOL   C20133729   1.801   5.591   1.785 -0.1881  0.5816  0.3866
   45MOL   C20233730   1.947   5.613   1.757  0.1349 -0.8921  0.0978
   45MOL   C20333731   2.046   5.491   1.743  0.3224  0.0545 -0.0823
   45MOL   C20433732   2.198   5.527   1.729 -0.1556 -0.3716  0.5023
   45MOL   C20533733   2.296   5.422   1.776 -0.2155 -0.0551  0.4067
   45MOL   C20633734   2.310   5.403   1.930 -0.2826  0.3214  0.6050
   45MOL   N20733735   2.379   5.276   1.970 -0.3019  0.1207 -0.5936
   45MOL   H20833736   1.558   6.378   1.887  1.3514  1.1210  0.6430
   45MOL   H20933737   1.706   6.313   1.828  0.7182 -1.4041 -0.0686
   45MOL   H21033738   1.457   6.165   1.915 -0.0399  1.3567 -1.5473
   45MOL   H21133739   1.541   6.174   1.766 -0.6458  1.9215 -0.1821
   45MOL   H21233740   1.632   6.029   2.010 -0.3020 -1.1610 -0.6767
   45MOL   H21333741   1.740   6.064   1.878 -0.2669 -0.8138 -0.3193
   45MOL   H21433742   1.621   5.942   1.718  2.4821  0.2875  1.0945
   45MOL   H21533743   1.484   5.892   1.813 -0.7103  2.8317 -0.4494
   45MOL   H21633744   1.718   5.748   1.681  0.2078 -1.0776 -0.7539
   45MOL   H21733745   1.782   5.549   1.884  0.5919  1.2713  0.8420
   45MOL   H21833746   1.746   5.531   1.713 -0.0284 -2.0439  2.3750
   45MOL   H21933747   1.952   5.671   1.665  1.0994 -2.0677 -0.6055
   45MOL   H22033748   1.982   5.675   1.840  0.9139  0.5038 -1.2496
   45MOL   H22133749   2.022   5.430   1.657  0.1623 -1.3923  0.9745
   45MOL   H22233750   2.028   5.432   1.833 -2.5563  1.2603  0.2077
   45MOL   H22333751   2.217   5.558   1.626  0.4524 -0.9309  0.4440
   45MOL   H22433752   2.220   5.623   1.777 -2.2989  1.6489 -2.3674
   45MOL   H22533753   2.280   5.325   1.728  1.9688  0.2062 -0.9222
   45MOL   H22633754   2.393   5.449   1.735 -0.3008 -0.7831 -0.2884
   45MOL   H22733755   2.211   5.405   1.975 -1.0737  1.3359 -1.1032
   45MOL   H22833756   2.367   5.487   1.971 -1.0163  0.8221  0.5944
   45MOL   H22933757   2.480   5.276   1.974 -0.3584  0.0379  1.5663
   45MOL   C23033758   2.323   5.172   2.020  0.0464 -0.2650 -0.0086
   45MOL   O23133759   2.205   5.166   2.023  0.0642 -0.2401 -0.5525
   45MOL   C23233760   2.420   5.059   2.077  0.1642  0.4795 -0.1770
   45MOL   C23333761   2.362   5.002   2.205  0.1950 -0.5294 -0.6229
   45MOL   C23433762   2.448   4.889   2.286  0.4533 -0.0927  0.0508
   45MOL   C23533763   2.583   4.929   2.332 -0.5193  0.0824  0.1276
   45MOL   C23633764   2.603   4.959   2.480  0.3036 -0.0401 -0.0602
   45MOL   O23733765   2.500   4.974   2.549  0.4655  0.8928 -0.1510
   45MOL   N23833766   2.726   4.971   2.529  0.4334 -0.7385  0.3840
   45MOL   C23933767   2.768   5.010   2.661 -0.0084 -0.1671  0.0840
   45MOL   C24033768   2.863   5.135   2.657  0.3382  0.5777 -0.2358
   45MOL   C24133769   2.943   5.169   2.785 -0.0286 -0.3028  0.8152
   45MOL   C24233770   3.054   5.060   2.820  0.3613  0.0500  0.1147
   45MOL   C24333771   3.145   5.097   2.945  0.1828 -0.1807 -0.2818
   45MOL   C24433772   3.249   4.992   2.976  0.1065 -0.3722  0.6411
   45MOL   N24533773   3.328   5.032   3.097  0.1620 -0.0995  0.5084
   45MOL   H24633774   2.422   4.977   2.006 -3.9370  2.8561 -3.2396
   45MOL   H24733775   2.521   5.099   2.086 -0.4637  1.9569  0.4629
   45MOL   H24833776   2.345   5.085   2.273 -1.6609 -1.1914 -0.2371
   45MOL   H24933777   2.262   4.960   2.193 -0.1942  0.4859 -0.9218
   45MOL   H25033778   2.452   4.801   2.222  1.7552  0.7682 -1.0979
   45MOL   H25133779   2.385   4.852   2.366  0.4145 -1.0970 -0.4348
   45MOL   H25233780   2.610   5.022   2.281 -2.1522  1.4861  1.7205
   45MOL   H25333781   2.658   4.854   2.309 -1.3168 -0.9941  0.9683
   45MOL   H25433782   2.804   4.954   2.467  0.6725 -3.5207  1.3868
   45MOL   H25533783   2.680   5.022   2.723  0.2919  1.4176  0.2163
   45MOL   H25633784   2.833   4.932   2.701 -1.6457 -0.1668  2.8533
   45MOL   H25733785   2.928   5.123   2.571  1.2150  0.1391  0.4704
   45MOL   H25833786   2.794   5.216   2.636 -0.1350  0.9329  2.4624
   45MOL   H25933787   2.871   5.173   2.867 -2.4468 -0.3212 -1.2487
   45MOL   H26033788   2.989   5.267   2.773  1.4759 -0.8445  1.9534
   45MOL   H26133789   3.000   4.966   2.827  1.3390 -0.4809  0.6958
   45MOL   H26233790   3.124   5.048   2.738  0.8821 -1.1720  0.7181
   45MOL   H26333791   3.193   5.195   2.942  2.1637 -1.1337 -0.2940
   45MOL   H26433792   3.075   5.113   3.028  1.3557  0.6473  0.5749
   45MOL   H26533793   3.310   4.977   2.888 -1.1623  0.8841 -0.4741
   45MOL   H26633794   3.196   4.898   2.991 -1.5980  0.3522 -0.6553
   45MOL   H26733795   3.409   5.090   3.084  0.6399 -0.3763  2.1785
   45MOL   C26833796   3.290   4.991   3.220 -1.0833 -0.1875  0.4677
   45MOL   O26933797   3.197   4.915   3.238  0.0437 -0.1626 -0.0010
   45MOL   C27033798   3.369   5.055   3.339 -0.3834 -0.1291  0.8724
   45MOL   C27133799   3.493   4.972   3.383 -0.1983  0.4682  0.1146
   45MOL   C27233800   3.448   4.843   3.457  0.0529 -0.4173  0.4375
   45MOL   C27333801   3.555   4.744   3.507 -0.0855  0.4914 -0.1391
   45MOL   C27433802   3.633   4.793   3.640 -0.3836 -0.2151 -0.0240
   45MOL   O27533803   3.586   4.882   3.708  0.2627  0.5302 -0.6196
   45MOL   N27633804   3.751   4.737   3.663  0.6734 -0.1891 -0.3717
   45MOL   C27733805   3.832   4.772   3.775  0.9346  0.5455  0.4238
   45MOL   C27833806   3.963   4.695   3.776  0.4031 -0.1390 -0.6943
   45MOL   C27933807   4.061   4.712   3.896 -0.5556 -0.3180  0.2377
   45MOL   C28033808   4.010   4.646   4.024 -0.0411  0.2519 -0.3206
   45MOL   C28133809   4.100   4.663   4.140  0.0686  0.1670 -0.0674
   45MOL   C28233810   4.237   4.598   4.129 -0.1050  0.2112  0.0652
   45MOL   N28333811   4.320   4.627   4.249 -0.6101  0.0611  0.0258
   45MOL   H28433812   3.417   5.147   3.304 -1.6011 -1.1467 -3.8115
   45MOL   H28533813   3.300   5.076   3.420  1.2572  0.7682  2.0908
   45MOL   H28633814   3.539   4.929   3.293  1.8226  0.3082  1.1926
   45MOL   H28733815   3.564   5.026   3.445  0.9514  0.5859 -1.2842
   45MOL   H28833816   3.389   4.784   3.387 -1.7633 -0.5640  2.0438
   45MOL   H28933817   3.381   4.867   3.540 -0.9418  1.4324 -0.8856
   45MOL   H29033818   3.624   4.708   3.432 -0.4258  0.1697 -0.3014
   45MOL   H29133819   3.501   4.654   3.536 -0.2807  0.5828 -0.2143
   45MOL   H29233820   3.783   4.664   3.601 -2.2795 -2.7884  0.9856
   45MOL   H29333821   3.848   4.880   3.772 -0.6055  0.7429 -1.4036
   45MOL   H29433822   3.783   4.743   3.868  1.7017 -0.2820  0.5782
   45MOL   H29533823   3.940   4.588   3.772  0.9392 -0.2384 -1.2338
   45MOL   H29633824   4.024   4.722   3.689  0.1136 -0.6563 -1.0651
   45MOL   H29733825   4.096   4.814   3.906  1.9444 -1.1777  0.4547
   45MOL   H29833826   4.158   4.669   3.871 -1.7254 -2.9015 -0.0517
   45MOL   H29933827   3.917   4.694   4.055  0.6348  1.6845 -0.4958
   45MOL   H30033828   3.987   4.540   4.018 -3.3485  0.8983 -0.1711
   45MOL   H30133829   4.104   4.772   4.150 -0.4308  0.2234 -0.4480
   45MOL   H30233830   4.043   4.617   4.221  0.3297  1.0151  0.6093
   45MOL   H30333831   4.287   4.630   4.037 -1.6581  1.3751 -0.3913
   45MOL   H30433832   4.215   4.492   4.115  2.9195 -0.3427 -1.0026
   45MOL   H30533833   4.322   4.558   4.323  0.2366 -0.2213 -0.2457
   45MOL   C30633834   4.381   4.744   4.265 -0.1021  0.3108  0.2662
   45MOL   O30733835   4.377   4.835   4.181  0.1439 -0.2971 -0.6181
   45MOL   C30833836   4.456   4.760   4.392 -0.4127 -0.3424 -0.7161
   45MOL   C30933837   4.577   4.862   4.376 -0.5072  0.1337  0.0351
   45MOL   C31033838   4.683   4.805   4.273 -0.1660 -0.2900  0.0405
   45MOL   C31133839   4.757   4.677   4.309  0.2268 -0.3333 -0.5115
   45MOL   C31233840   4.705   4.548   4.247  0.2546 -0.1212 -0.2826
   45MOL   O31333841   4.641   4.463   4.315 -0.2062  0.1455 -0.1573
   45MOL   N31433842   4.726   4.542   4.117  0.2430  0.2419 -0.2133
   45MOL   C31533843   4.676   4.438   4.022 -0.4186 -0.3685 -0.0931
   45MOL   C31633844   4.523   4.456   3.988 -0.4396 -0.4004 -0.3532
   45MOL   C31733845   4.466   4.345   3.895 -0.0449 -0.5951  0.2414
   45MOL   C31833846   4.310   4.334   3.895 -0.1776  0.3155 -0.1137
   45MOL   C31933847   4.261   4.202   3.816  0.6573 -0.5787 -0.6150
   45MOL   C32033848   4.107   4.166   3.828 -0.6606 -0.0877  0.6126
   45MOL   N32133849   4.074   4.044   3.758  0.1777  0.6795  0.0797
   45MOL   H32233850   4.382   4.782   4.469 -0.6800 -0.5493 -0.9121
   45MOL   H32333851   4.503   4.664   4.410  1.6013  0.7597  0.0157
   45MOL   H32433852   4.535   4.960   4.355 -0.6198 -0.0914 -0.8229
   45MOL   H32533853   4.627   4.869   4.472  0.0849  0.2444 -0.2813
   45MOL   H32633854   4.756   4.886   4.270 -1.2182  0.6453 -1.7766
   45MOL   H32733855   4.648   4.805   4.169 -2.3216  1.1633  0.7081
   45MOL   H32833856   4.759   4.655   4.416 -2.2842  1.7960  0.0087
   45MOL   H32933857   4.857   4.693   4.270 -0.8503  1.9428 -2.4384
   45MOL   H33033858   4.779   4.616   4.073 -2.1005  0.9860 -1.8480
   45MOL   H33133859   4.734   4.440   3.930 -1.1367  1.3960 -0.5278
   45MOL   H33233860   4.695   4.342   4.069 -0.1285 -0.2437  0.0459
   45MOL   H33333861   4.478   4.435   4.085 -0.8370  1.1990 -0.1850
   45MOL   H33433862   4.503   4.560   3.961  2.0453 -0.3810 -2.2179
   45MOL   H33533863   4.505   4.249   3.930 -0.3759 -0.5568  0.7272
   45MOL   H33633864   4.513   4.355   3.798 -0.1665 -1.2925  0.1048
   45MOL   H33733865   4.279   4.325   3.999  0.5881 -1.8144 -0.0321
   45MOL   H33833866   4.270   4.424   3.848  1.8262  1.3890  0.1746
   45MOL   H33933867   4.300   4.199   3.715 -0.2705 -1.2333 -0.9622
   45MOL   H34033868   4.314   4.121   3.865  0.8048  0.7098  1.4314
   45MOL   H34133869   4.043   4.249   3.798 -0.3242 -0.4623 -1.2114
   45MOL   H34233870   4.077   4.155   3.933  0.6625 -0.3042  0.9763
   45MOL   H34333871   4.071   3.959   3.813  1.1485  0.4043 -0.2702
   45MOL   C34433872   4.038   4.033   3.632 -0.1213  0.5984  0.1337
   45MOL   O34533873   4.024   4.130   3.557  0.4311 -0.0362 -0.2235
   45MOL   C34633874   4.028   3.892   3.573  0.1260  0.8544 -0.4175
   45MOL   C34733875   4.044   3.860   3.421 -0.0481 -0.1157 -0.8476
   45MOL   C34833876   3.938   3.915   3.322 -0.3515  0.1105 -0.4229
   45MOL   C34933877   3.806   3.833   3.328  0.3180 -0.7310  0.1416
   45MOL   C35033878   3.683   3.890   3.258 -0.9861 -0.0149 -1.0298
   45MOL   O35133879   3.692   4.004   3.217 -0.0704 -0.1641 -0.4995
   45MOL   N35233880   3.572   3.809   3.247 -0.6590  0.2947  0.0480
   45MOL   C35333881   3.435   3.855   3.205 -0.4853 -0.7132 -0.3045
   45MOL   C35433882   3.427   3.930   3.074  0.3322 -0.4139 -0.4525
   45MOL   C35533883   3.287   3.935   3.012 -0.3383  0.1497  0.3297
   45MOL   C35633884   3.263   4.001   2.875  0.3849 -0.4726 -0.3022
   45MOL   C35733885   3.113   4.043   2.858 -0.0356 -0.5513 -0.3194
   45MOL   C35833886   3.070   4.090   2.719  0.0357  0.0334 -0.2792
   45MOL   N35933887   3.145   4.212   2.682 -0.0181 -0.4644  0.5988
   45MOL   H36033888   4.110   3.829   3.608 -0.9497  0.1355  0.8316
   45MOL   H36133889   3.937   3.850   3.617 -0.2264  1.4770 -0.5481
   45MOL   H36233890   4.140   3.903   3.393  2.3501 -2.3843  3.4293
   45MOL   H36333891   4.066   3.754   3.414  1.3240  0.2151 -1.7491
   45MOL   H36433892   3.989   3.900   3.227 -1.3071 -0.8072 -0.8038
   45MOL   H36533893   3.908   4.018   3.337 -1.3774 -0.1200 -0.8469
   45MOL   H36633894   3.788   3.828   3.436  4.0645 -1.7885  0.7851
   45MOL   H36733895   3.823   3.735   3.284  1.8124 -0.5987  0.3956
   45MOL   H36833896   3.583   3.718   3.288  3.3056  0.3037 -0.7590
   45MOL   H36933897   3.380   3.763   3.188 -0.4703 -1.0936  1.5609
   45MOL   H37033898   3.403   3.920   3.287 -0.1472 -2.4598  1.2422
   45MOL   H37133899   3.482   4.024   3.079  1.1417 -0.9115  0.0179
   45MOL   H37233900   3.492   3.872   3.009  0.2676  0.1422 -1.0163
   45MOL   H37333901   3.220   3.979   3.085 -2.5828 -1.1768 -0.8364
   45MOL   H37433902   3.252   3.833   2.997 -1.5282  0.7505 -1.1611
   45MOL   H37533903   3.329   4.088   2.875  2.3646 -1.9427  0.9945
   45MOL   H37633904   3.297   3.943   2.789 -0.0331  0.2190 -0.9410
   45MOL   H37733905   3.038   3.968   2.883  0.8499 -1.1864  0.4431
   45MOL   H37833906   3.084   4.112   2.936  0.3923 -3.5037  2.5345
   45MOL   H37933907   2.966   4.118   2.731  0.6601  2.1724  0.2398
   45MOL   H38033908   3.061   4.011   2.644  0.0584  1.5670 -1.9079
   45MOL   H38133909   3.115   4.299   2.723 -2.6788  0.2161 -2.5416
   45MOL   C38233910   3.250   4.225   2.596 -1.0298  0.4146 -0.6083
   45MOL   O38333911   3.305   4.126   2.545  0.2047 -0.1607  0.5910
   45MOL   C38433912   3.304   4.364   2.573 -0.7220  0.0179 -0.1279
   45MOL   C38533913   3.386   4.381   2.440 -0.3987 -0.0032  0.2954
   45MOL   C38633914   3.306   4.351   2.312 -0.1005  0.1880  0.0618
   45MOL   C38733915   3.384   4.397   2.177  0.2121  0.8183  0.7472
   45MOL   C38833916   3.390   4.550   2.162 -0.2072  0.2721 -0.2785
   45MOL   O38933917   3.286   4.610   2.194 -0.5202 -0.1889 -0.0332
   45MOL   N39033918   3.503   4.612   2.124  0.3580  0.2813 -0.0481
   45MOL   C39133919   3.498   4.759   2.119 -0.8088  0.8187 -0.4857
   45MOL   C39233920   3.646   4.811   2.138  0.0768 -0.4071  0.2017
   45MOL   C39333921   3.632   4.959   2.136 -0.2546 -0.2134  0.0583
   45MOL   C39433922   3.770   5.032   2.167  0.6712  0.1601  0.2715
   45MOL   C39533923   3.850   5.069   2.039 -0.1526  0.2159 -0.2520
   45MOL   C39633924   3.987   5.107   2.075 -0.3228 -0.2398  0.4061
   45MOL   N39733925   4.063   5.137   1.953  0.5819 -0.4905  0.4827
   45MOL   H39833926   3.219   4.433   2.564  0.6696  1.5691 -1.8266
   45MOL   H39933927   3.367   4.389   2.658 -0.1963  0.9636 -0.7927
   45MOL   H40033928   3.433   4.479   2.430  2.0044 -0.7259  3.7163
   45MOL   H40133929   3.475   4.321   2.455 -0.7322 -0.2371  1.3802
   45MOL   H40233930   3.215   4.411   2.315  0.2472  0.6500  1.8124
   45MOL   H40333931   3.286   4.245   2.298  0.0637 -0.0093  1.2781
   45MOL   H40433932   3.337   4.352   2.089 -1.9739  0.4679  2.0467
   45MOL   H40533933   3.486   4.358   2.185  0.1756  0.9865  2.2431
   45MOL   H40633934   3.591   4.563   2.122 -0.2184 -1.0977  4.0796
   45MOL   H40733935   3.475   4.782   2.015  1.7124 -2.9118 -2.0082
   45MOL   H40833936   3.428   4.805   2.188 -2.6660  1.1753 -2.5861
   45MOL   H40933937   3.698   4.775   2.226  2.2781  2.0253 -0.0532
   45MOL   H41033938   3.713   4.785   2.056 -0.1754 -0.6160  0.0592
   45MOL   H41133939   3.554   4.983   2.208  0.1168  1.4569 -0.0686
   45MOL   H41233940   3.586   5.000   2.046 -1.2612 -1.2186  0.1154
   45MOL   H41333941   3.739   5.118   2.226  0.9121 -0.6845  1.6432
   45MOL   H41433942   3.831   4.969   2.231 -0.7202 -0.7814  0.6975
   45MOL   H41533943   3.846   4.980   1.977 -1.1646 -0.6750  1.0671
   45MOL   H41633944   3.787   5.147   1.996  0.9720  0.9134 -0.6434
   45MOL   H41733945   4.038   5.015   2.105 -3.2754 -0.9053  3.7179
   45MOL   H41833946   3.989   5.179   2.157 -0.4523 -0.0991  0.2864
   45MOL   H41933947   4.085   5.067   1.885 -0.7464 -0.8236  0.3720
   45MOL   C42033948   4.101   5.263   1.919  0.5016 -0.6083 -0.1163
   45MOL   O42133949   4.070   5.364   1.979 -0.6314  0.1546 -0.2450
   45MOL   C42233950   4.196   5.268   1.799 -0.2427  0.2358 -0.1679
   45MOL   C42333951   4.159   5.387   1.703  0.7088  0.2412 -0.2305
   45MOL   C42433952   4.280   5.421   1.615  0.3699 -0.1479  0.7296
   45MOL   C42533953   4.259   5.535   1.511 -0.1671  0.0967 -0.6604
   45MOL   C42633954   4.166   5.487   1.397  0.2188  0.1217 -0.5790
   45MOL   O42733955   4.178   5.375   1.345  0.4568  0.5578 -0.0796
   45MOL   N42833956   4.084   5.581   1.340 -0.3662  0.3185 -0.1517
   45MOL   C42933957   3.989   5.551   1.231 -0.4400 -0.3852  0.0417
   45MOL   C43033958   3.869   5.460   1.278  0.7598  0.0988  0.3319
   45MOL   C43133959   3.749   5.458   1.177  0.9616 -0.0263 -0.2646
   45MOL   C43233960   3.608   5.409   1.230  0.3501  0.3939  0.5492
   45MOL   C43333961   3.541   5.527   1.304 -0.2507 -0.0944 -0.2948
   45MOL   C43433962   3.426   5.480   1.389  0.3026 -0.4662 -1.4985
   45MOL   N43533963   3.342   5.583   1.453 -0.0367  0.7621 -0.4961
   45MOL   H43633964   4.301   5.264   1.828 -0.3685 -0.6137  0.1800
   45MOL   H43733965   4.188   5.174   1.745 -2.8210  0.0975  0.3580
   45MOL   H43833966   4.074   5.353   1.644 -0.1622 -0.1696  1.2352
   45MOL   H43933967   4.138   5.477   1.762 -0.3280  0.1577 -0.4676
   45MOL   H44033968   4.307   5.329   1.563 -0.9151 -0.3593  0.4168
   45MOL   H44133969   4.369   5.450   1.670 -0.7560  1.9329  1.5147
   45MOL   H44233970   4.356   5.555   1.465  0.5085 -0.3539  0.5588
   45MOL   H44333971   4.221   5.625   1.559  2.5274  0.9598 -0.0627
   45MOL   H44433972   4.083   5.671   1.385  1.9158 -1.0772  2.9248
   45MOL   H44533973   3.952   5.648   1.198 -0.0719  0.3171  1.6641
   45MOL   H44633974   4.038   5.505   1.145 -0.9276 -2.5008  0.8621
   45MOL   H44733975   3.902   5.359   1.302  0.3663 -0.3500 -0.9621
   45MOL   H44833976   3.857   5.504   1.377 -0.0517  0.6652 -0.0098
   45MOL   H44933977   3.782   5.399   1.091  1.4142  0.4181 -0.4005
   45MOL   H45033978   3.746   5.562   1.145  2.6286 -0.1692 -0.9357
   45MOL   H45133979   3.536   5.381   1.152  1.5867  1.8000 -1.1331
   45MOL   H45233980   3.635   5.327   1.296  2.4322 -1.2679 -2.2749
   45MOL   H45333981   3.604   5.580   1.376 -2.0530  1.0176  0.4833
   45MOL   H45433982   3.509   5.608   1.239 -0.0148  0.9342  0.8453
   45MOL   H45533983   3.468   5.414   1.466  0.1957  0.8305 -0.3032
   45MOL   H45633984   3.360   5.419   1.329  0.0199  0.4150 -2.0895
   45MOL   H45733985   3.261   5.613   1.400 -0.2195 -1.4299 -1.5310
   45MOL   C45833986   3.383   5.642   1.569 -0.6207  0.3716 -0.1491
   45MOL   O45933987   3.488   5.615   1.623 -0.3524 -0.4705 -0.2368
   45MOL   C46033988   3.287   5.744   1.628 -0.1285 -0.4297 -0.3811
   45MOL   C46133989   3.154   5.681   1.666 -1.0391  0.0179 -0.6466
   45MOL   C46233990   3.152   5.630   1.816 -0.4031  0.0582  0.3104
   45MOL   C46333991   3.257   5.519   1.856 -0.1467 -0.4645 -0.1029
   45MOL   C46433992   3.220   5.437   1.980 -0.4437  0.1367  0.2586
   45MOL   O46533993   3.102   5.416   2.012 -0.8946 -0.3046 -0.0587
   45MOL   N46633994   3.316   5.405   2.064  0.1648 -0.7317  0.0580
   45MOL   C46733995   3.312   5.307   2.172  0.2847  0.6656 -0.9564
   45MOL   C46833996   3.317   5.364   2.321 -0.1377  0.5896 -0.5775
   45MOL   C46933997   3.279   5.269   2.429  0.5527  0.0364  0.1712
   45MOL   C47033998   3.263   5.336   2.563  0.6254 -0.5681  0.1904
   45MOL   C47133999   3.398   5.353   2.645  1.0298  0.5602 -0.1600
   45MOL   C47234000   3.376   5.420   2.783  0.4780 -0.1737  0.5608
   45MOL   N47334001   3.506   5.435   2.843 -0.4722  0.0743 -0.2059
   45MOL   H47434002   3.338   5.801   1.706 -1.4354  0.1485  0.0563
   45MOL   H47534003   3.273   5.815   1.547 -0.5323 -0.8431 -0.6748
   45MOL   H47634004   3.080   5.761   1.664  0.6829  1.6571 -0.4719
   45MOL   H47734005   3.133   5.603   1.593  0.8696  0.7446 -1.9827
   45MOL   H47834006   3.052   5.596   1.844 -0.5753  1.2495  1.2158
   45MOL   H47934007   3.164   5.717   1.880 -2.4623 -0.5296  1.5309
   45MOL   H48034008   3.344   5.580   1.882 -2.3611  2.6069  0.4329
   45MOL   H48134009   3.280   5.468   1.763  0.9908 -0.2419  0.0402
   45MOL   H48234010   3.408   5.438   2.041 -0.1525  0.8274  0.9366
   45MOL   H48334011   3.226   5.243   2.151 -1.4198  2.6704 -0.3643
   45MOL   H48434012   3.394   5.236   2.181 -0.0773  0.5349  2.0538
   45MOL   H48534013   3.417   5.404   2.340 -1.1559  1.4173  3.5236
   45MOL   H48634014   3.243   5.443   2.330  0.0899  0.7093  0.3086
   45MOL   H48734015   3.348   5.186   2.437 -0.5810 -1.1509 -1.8443
   45MOL   H48834016   3.188   5.216   2.399  1.8003 -1.6722 -0.6391
   45MOL   H48934017   3.220   5.436   2.553  1.1322 -0.4223 -0.6161
   45MOL   H49034018   3.192   5.275   2.617 -2.8105  1.8511 -1.4135
   45MOL   H49134019   3.454   5.261   2.659 -0.0293 -0.2304 -1.0117
   45MOL   H49234020   3.458   5.418   2.582  0.8369 -0.4085 -1.3459
   45MOL   H49334021   3.303   5.364   2.842 -0.6645 -1.2214 -1.7870
   45MOL   H49434022   3.339   5.522   2.781  2.4573  0.5413 -0.7167
   45MOL   H49534023   3.578   5.483   2.791  0.5850 -0.6943  0.5228
   45MOL   C49634024   3.538   5.373   2.963  0.4932  0.9295  0.1059
   45MOL   O49734025   3.454   5.320   3.035 -0.2598  0.1911  0.5507
   45MOL   C49834026   3.682   5.369   3.021  0.4950 -0.0302 -0.4868
   45MOL   C49934027   3.728   5.224   3.056 -0.3878 -0.1506 -0.2566
   45MOL   C50034028   3.765   5.147   2.932  0.8383  0.2554 -0.3538
   45MOL   C50134029   3.647   5.085   2.857 -0.1270  0.0599 -0.0067
   45MOL   C50234030   3.684   5.026   2.723 -0.2418 -0.1431 -0.2452
   45MOL   O50334031   3.748   5.088   2.634  0.1241 -0.3113 -0.1308
   45MOL   N50434032   3.634   4.903   2.703 -0.0125  0.0181 -0.3455
   45MOL   C50534033   3.657   4.826   2.580 -0.3901  0.0991  0.6432
   45MOL   C50634034   3.538   4.812   2.488 -0.3776 -0.7005  0.3659
   45MOL   C50734035   3.407   4.780   2.564  0.1817 -0.0963  0.7571
   45MOL   C50834036   3.289   4.749   2.477 -0.7295 -0.9676  0.6351
   45MOL   C50934037   3.158   4.792   2.541 -0.6072  0.3204  0.3364
   45MOL   C51034038   3.033   4.758   2.465  0.1271 -0.3988  0.1085
   45MOL   N51134039   3.056   4.797   2.328  0.9227  0.5761 -0.1381
   45MOL   H51234040   3.741   5.406   2.937  1.1142 -0.5494 -0.2874
   45MOL   H51334041   3.694   5.441   3.102 -1.9132 -0.1219 -0.0055
   45MOL   H51434042   3.825   5.250   3.099 -1.4037 -0.0799  2.0713
   45MOL   H51534043   3.678   5.175   3.139 -1.6006 -1.1641 -1.5727
   45MOL   H51634044   3.822   5.057   2.955 -0.7157 -0.5837  0.3038
   45MOL   H51734045   3.830   5.204   2.865  2.4088 -0.2348  0.7312
   45MOL   H51834046   3.572   5.164   2.845 -0.1488  0.1874  0.9412
   45MOL   H51934047   3.614   5.001   2.917 -1.7362  0.3524 -0.4479
   45MOL   H52034048   3.593   4.856   2.782 -0.2983 -0.1472 -0.5923
   45MOL   H52134049   3.749   4.854   2.529 -0.6626  1.2951  0.8035
   45MOL   H52234050   3.666   4.723   2.616 -1.3548  0.1015  0.8939
   45MOL   H52334051   3.518   4.904   2.434  1.1717  0.9442  2.4665
   45MOL   H52434052   3.562   4.726   2.426 -0.3513 -0.0642 -0.5148
   45MOL   H52534053   3.376   4.860   2.632  0.2154  0.5560  0.0139
   45MOL   H52634054   3.435   4.692   2.621  1.1139 -0.8189 -0.7897
   45MOL   H52734055   3.301   4.813   2.389  1.1239 -1.9531  0.1545
   45MOL   H52834056   3.274   4.646   2.446 -1.2886 -1.0520  1.1671
   45MOL   H52934057   3.149   4.745   2.639  0.3470 -1.0371 -0.2176
   45MOL   H53034058   3.172   4.900   2.555  1.4246  0.6833 -3.7618
   45MOL   H53134059   2.952   4.808   2.518 -1.0429 -0.6385 -1.4333
   45MOL   H53234060   3.012   4.651   2.470  1.3491 -0.6305  0.5656
   45MOL   H53334061   3.090   4.723   2.269 -1.7838  0.1242 -1.1909
   45MOL   C53434062   2.996   4.904   2.275 -0.6850  0.1775  0.5812
   45MOL   O53534063   2.936   4.985   2.345  1.1174 -0.1865  0.7425
   45MOL   C53634064   2.982   4.914   2.119  0.2917 -0.0689 -0.5058
   45MOL   C53734065   2.941   5.054   2.061 -0.1179  0.7533 -0.2731
   45MOL   C53834066   2.917   5.041   1.912  0.1082 -0.2153 -0.1557
   45MOL   C53934067   2.883   5.182   1.859  0.0245  0.0721  0.9656
   45MOL   C54034068   2.770   5.268   1.933  0.3023  0.1147 -0.2153
   45MOL   O54134069   2.647   5.252   1.908  0.0813 -0.5221 -0.1244
   45MOL   N54234070   2.813   5.351   2.027  0.5750 -0.4357  0.0383
   45MOL   C54334071   2.727   5.440   2.118 -0.1753  0.1662  0.0927
   45MOL   C54434072   2.676   5.366   2.239 -0.9884 -0.2719  0.1245
   45MOL   C54534073   2.786   5.304   2.324 -0.5913  0.1987  0.7353
   45MOL   C54634074   2.890   5.404   2.367  0.1922  0.5954 -0.4350
   45MOL   C54734075   2.837   5.524   2.450 -0.0438  0.2776  0.0802
   45MOL   C54834076   2.942   5.626   2.486  0.1891  0.3717  0.0133
   45MOL   N54934077   2.898   5.751   2.555 -0.8621 -0.4327 -0.6887
   45MOL   H55034078   3.060   4.864   2.061  0.9677  1.1725 -0.6685
   45MOL   H55134079   2.901   4.847   2.088  1.3325 -0.6518 -2.0344
   45MOL   H55234080   2.846   5.081   2.107 -0.3167 -1.2387  0.5656
   45MOL   H55334081   3.012   5.135   2.073  0.5106  0.3848 -1.3886
   45MOL   H55434082   2.824   4.992   1.885  1.1846 -1.5016 -1.6053
   45MOL   H55534083   3.000   4.999   1.857 -0.3568 -0.1886 -0.8778
   45MOL   H55634084   2.861   5.185   1.752  0.7453  0.7583  0.8311
   45MOL   H55734085   2.968   5.250   1.848  0.1509 -0.3007 -0.4771
   45MOL   H55834086   2.913   5.363   2.031  0.5036 -0.0373  0.7913
   45MOL   H55934087   2.785   5.524   2.154  0.0290  0.0526  0.0298
   45MOL   H56034088   2.647   5.475   2.053  1.3344  0.8333 -1.4448
   45MOL   H56134089   2.610   5.438   2.287 -1.2470  0.1113 -0.7938
   45MOL   H56234090   2.609   5.287   2.203 -1.8914  0.0743  1.0318
   45MOL   H56334091   2.833   5.220   2.272  0.4270  1.2449 -0.0561
   45MOL   H56434092   2.746   5.265   2.418  0.5339  0.2556  1.2510
   45MOL   H56534093   2.958   5.358   2.440  0.5623 -1.8566 -2.2399
   45MOL   H56634094   2.948   5.444   2.284  1.1897 -0.8695 -0.4723
   45MOL   H56734095   2.766   5.583   2.392 -0.6627 -2.1198 -1.6512
   45MOL   H56834096   2.778   5.498   2.537 -0.1185  1.0615  0.2705
   45MOL   H56934097   2.993   5.664   2.397 -0.7422 -2.4396 -1.8171
   45MOL   H57034098   3.016   5.570   2.543 -0.2847  0.4603  0.7096
   45MOL   H57134099   2.894   5.836   2.500  1.0829  0.2472  0.1922
   45MOL   C57234100   2.897   5.755   2.686  0.6335 -0.1315  0.0960
   45MOL   O57334101   2.915   5.658   2.758  0.3801 -0.1401  0.7957
   45MOL   C57434102   2.864   5.887   2.756  0.8242  0.0453 -0.4002
   45MOL   C57534103   2.973   5.936   2.859 -1.0964 -0.2784  0.2850
   45MOL   C57634104   3.021   5.833   2.974 -0.2890 -0.2675 -0.2266
   45MOL   C57734105   3.108   5.907   3.081 -0.3605 -0.2977 -0.1817
   45MOL   C57834106   3.253   5.944   3.041 -0.5311  0.0539  0.0307
   45MOL   O57934107   3.269   6.021   2.943 -0.1485  0.2374 -0.0912
   45MOL   N58034108   3.348   5.894   3.114 -0.4056  0.5601 -0.2808
   45MOL   C58134109   3.489   5.919   3.104  0.3834 -0.0457 -0.0575
   45MOL   C58234110   3.558   5.983   3.221  0.4800  0.7912 -0.4961
   45MOL   C58334111   3.482   5.976   3.357 -0.0088  1.1591  0.6077
   45MOL   C58434112   3.550   6.042   3.480 -0.1622 -0.2358  0.2825
   45MOL   C58534113   3.500   5.991   3.611 -0.3581  0.3046  0.4044
   45MOL   C58634114   3.532   6.084   3.741 -0.4279 -0.2742 -0.1371
   45MOL   N58734115   3.457   6.052   3.863 -0.0458  0.1850 -0.0307
   45MOL   H58834116   2.846   5.965   2.683 -1.0357 -1.7577 -1.9082
   45MOL   H58934117   2.766   5.883   2.805 -0.1013  0.6557 -2.1875
   45MOL   H59034118   3.061   5.962   2.800 -2.6132 -0.6448 -2.1975
   45MOL   H59134119   2.932   6.025   2.907  1.2598  0.3457  1.1959
   45MOL   H59234120   3.078   5.757   2.921 -0.8137 -0.7004 -0.1713
   45MOL   H59334121   2.929   5.795   3.017  0.1583 -0.3190  0.6997
   45MOL   H59434122   3.129   5.848   3.171 -2.0316 -1.7350 -0.6969
   45MOL   H59534123   3.065   6.004   3.108  0.9546 -0.2224  1.7261
   45MOL   H59634124   3.323   5.825   3.183 -1.6928  1.5390  0.2609
   45MOL   H59734125   3.530   5.819   3.091 -0.1301 -0.2375 -0.1862
   45MOL   H59834126   3.513   5.970   3.011 -1.2008 -0.3043 -0.6127
   45MOL   H59934127   3.661   5.947   3.227 -0.5733 -2.4665 -0.7459
   45MOL   H60034128   3.556   6.088   3.193 -3.9495  0.4609 -1.8173
   45MOL   H60134129   3.459   5.872   3.379 -0.3171  0.7312 -1.5975
   45MOL   H60234130   3.384   6.025   3.350 -0.0470  1.5063  3.2394
   45MOL   H60334131   3.656   6.016   3.475  0.0851  0.3015  2.4684
   45MOL   H60434132   3.542   6.150   3.473 -0.3430 -0.2111  0.8523
   45MOL   H60534133   3.392   5.999   3.602 -0.4377  2.5275  2.8202
   45MOL   H60634134   3.524   5.887   3.635  1.5255  1.1251  2.2486
   45MOL   H60734135   3.513   6.188   3.717 -0.1579 -0.5655 -1.6577
   45MOL   H60834136   3.634   6.057   3.767 -0.9802  0.8061  3.3619
   45MOL   H60934137   3.408   5.963   3.861 -0.6477  0.4275  1.9721
   45MOL   C61034138   3.454   6.134   3.973  0.1953 -0.8050 -0.4175
   45MOL   O61134139   3.498   6.248   3.971 -0.3609  0.9570  0.1954
   45MOL   C61234140   3.385   6.086   4.108  0.7445  0.0452 -0.5729
   45MOL   C61334141   3.309   5.958   4.107 -0.5024 -0.5934  0.5594
   45MOL   C61434142   3.227   5.918   4.232  0.4367 -0.1071 -0.2662
   45MOL   C61534143   3.168   5.781   4.231 -0.2517 -0.0062 -0.5602
   45MOL   C61634144   3.273   5.673   4.252 -0.0330  0.0774 -0.4028
   45MOL   O61734145   3.381   5.707   4.303  0.4379 -0.5559 -0.0917
   45MOL   N61834146   3.247   5.552   4.211 -0.1126  0.1002  0.4165
   45MOL   C61934147   3.318   5.433   4.257  0.0990  0.8447 -0.1656
   45MOL   C62034148   3.220   5.336   4.319  0.8303 -0.5434  0.1607
   45MOL   C62134149   3.285   5.226   4.402  0.7633  0.3843 -0.6780
   45MOL   C62234150   3.186   5.130   4.471  0.8697 -0.2016  0.9038
   45MOL   C62334151   3.120   5.024   4.375  0.7072 -0.3520 -0.1037
   45MOL   C62434152   2.999   4.950   4.435  0.9297 -0.4736 -0.7532
   45MOL   N62534153   2.940   4.848   4.345  0.2331  0.4172  0.0408
   45MOL   H62634154   3.474   6.080   4.170  2.9642  1.1298 -3.4912
   45MOL   H62734155   3.329   6.168   4.153  1.3212  0.0833  0.0777
   45MOL   H62834156   3.251   5.945   4.016 -0.4925 -2.5125  0.8095
   45MOL   H62934157   3.390   5.887   4.089  0.0720  0.6009 -1.7438
   45MOL   H63034158   3.142   5.985   4.243 -0.3248 -0.9257 -1.0869
   45MOL   H63134159   3.293   5.940   4.316 -0.8456 -0.4363  0.8513
   45MOL   H63234160   3.112   5.768   4.139 -1.5035  1.6296 -0.0644
   45MOL   H63334161   3.097   5.782   4.313 -1.7370  0.9475 -1.8309
   45MOL   H63434162   3.156   5.540   4.169 -0.1332  2.0248 -0.1609
   45MOL   H63534163   3.366   5.386   4.171  2.7308 -0.1528  1.7777
   45MOL   H63634164   3.397   5.444   4.331 -0.0517 -2.8362  0.6742
   45MOL   H63734165   3.144   5.390   4.376 -0.0621  1.4782 -2.8378
   45MOL   H63834166   3.155   5.298   4.240 -0.7159 -0.2593  1.2588
   45MOL   H63934167   3.334   5.283   4.481  1.1550 -0.0341 -0.6213
   45MOL   H64034168   3.370   5.175   4.358  0.8088  0.9804 -1.2826
   45MOL   H64134169   3.246   5.075   4.543  3.2872 -0.2189 -1.0824
   45MOL   H64234170   3.117   5.182   4.537 -0.6158 -0.5560 -0.3136
   45MOL   H64334171   3.085   5.072   4.284 -1.1218  1.5322  1.5361
   45MOL   H64434172   3.198   4.953   4.348 -0.8168 -1.9666 -0.4154
   45MOL   H64534173   2.931   5.035   4.444  1.7027  0.1366 -0.5742
   45MOL   H64634174   3.014   4.897   4.530 -2.7706  1.6935  1.1923
   45MOL   H64734175   2.961   4.752   4.365  3.7599  1.0698 -0.2369
   45MOL   C64834176   2.857   4.881   4.244 -0.3827  0.1359  0.1297
   45MOL   O64934177   2.833   4.998   4.216  0.4492  0.3248 -0.2432
   45MOL   C65034178   2.783   4.766   4.171  0.1973 -0.0939  0.8129
   45MOL   C65134179   2.677   4.809   4.068 -0.3811 -0.0202  0.3315
   45MOL   C65234180   2.716   4.888   3.940  0.6907  0.8807  0.2021
   45MOL   C65334181   2.594   4.960   3.886  0.3667 -0.4337  0.7880
   45MOL   C65434182   2.555   5.087   3.953  0.5233  0.3343 -0.4132
   45MOL   O65534183   2.539   5.092   4.072  0.2932  0.2940  0.3140
   45MOL   N65634184   2.511   5.188   3.877 -0.3244 -0.2037  0.0676
   45MOL   C65734185   2.471   5.320   3.918  0.1263 -0.2783  0.8016
   45MOL   C65834186   2.318   5.336   3.926  0.2073 -0.5995  0.1906
   45MOL   C65934187   2.260   5.249   4.038 -0.2719  0.2719  0.5008
   45MOL   C66034188   2.109   5.268   4.059 -0.2296  0.7548  0.4960
   45MOL   C66134189   2.043   5.166   4.150  0.1948 -0.7711  0.0582
   45MOL   C66234190   1.885   5.164   4.159 -0.2835 -0.2639 -0.6190
   45MOL   N66334191   1.827   5.282   4.237  0.0062 -0.2396 -0.2310
   45MOL   H66434192   2.849   4.699   4.117 -3.2639 -2.9822 -0.0464
   45MOL   H66534193   2.732   4.709   4.249  0.7002  2.7328  3.2977
   45MOL   H66634194   2.646   4.707   4.044 -2.1725  0.2983  1.1872
   45MOL   H66734195   2.596   4.860   4.121 -1.1289 -2.3857  1.5461
   45MOL   H66834196   2.760   4.824   3.864 -1.0843  0.6171 -0.6103
   45MOL   H66934197   2.796   4.962   3.940 -0.0629  1.6945  1.0098
   45MOL   H67034198   2.504   4.902   3.872 -1.1337  1.7568  1.0806
   45MOL   H67134199   2.613   4.990   3.783 -0.0929  0.5741  0.9856
   45MOL   H67234200   2.497   5.167   3.780 -0.4759 -2.1228  0.4802
   45MOL   H67334201   2.506   5.343   4.019  1.5989  0.4724  0.1369
   45MOL   H67434202   2.508   5.395   3.847  2.8882 -1.1306  1.2889
   45MOL   H67534203   2.290   5.440   3.945  1.6904 -0.1092 -0.2216
   45MOL   H67634204   2.279   5.319   3.825  3.5071 -0.4557 -1.1570
   45MOL   H67734205   2.313   5.284   4.127  1.5695 -0.3446 -0.3185
   45MOL   H67834206   2.274   5.141   4.025 -0.5443  0.4582 -1.4743
   45MOL   H67934207   2.081   5.368   4.091 -0.4361  0.4846  1.1699
   45MOL   H68034208   2.047   5.254   3.970  0.2722 -0.5855  0.3430
   45MOL   H68134209   2.081   5.066   4.129 -0.6571 -1.0645 -0.1061
   45MOL   H68234210   2.073   5.192   4.251  0.8638  0.3232 -0.4239
   45MOL   H68334211   1.856   5.063   4.188  1.0361 -0.7917 -1.0882
   45MOL   H68434212   1.852   5.168   4.055 -2.2682  4.6644  0.0808
   45MOL   H68534213   1.888   5.334   4.298  2.6088 -0.4504 -2.5229
   45MOL   C68634214   1.697   5.323   4.229 -0.5257 -0.3094 -0.1551
   45MOL   O68734215   1.653   5.426   4.277 -0.1060 -0.1987 -0.5501
   45MOL   C68834216   1.593   5.240   4.153  0.1931 -0.4866 -0.8951
   45MOL   C68934217   1.475   5.200   4.235  0.7903 -0.1566 -0.4381
   45MOL   C69034218   1.350   5.143   4.151 -0.2744  1.2128 -0.1268
   45MOL   C69134219   1.362   5.013   4.072 -0.2630 -0.1917  0.1293
   45MOL   C69234220   1.368   4.883   4.162  0.3567 -0.1743  0.2812
   45MOL   O69334221   1.469   4.862   4.227 -0.4953 -0.0207 -0.0673
   45MOL   N69434222   1.265   4.796   4.167  0.6412 -0.3214 -0.1824
   45MOL   C69534223   1.249   4.695   4.269  0.2717 -0.3784  0.5498
   45MOL   C69634224   1.327   4.567   4.235  0.3023 -0.4051  0.0066
   45MOL   C69734225   1.301   4.449   4.333  0.0387  0.0589 -0.0823
   45MOL   C69834226   1.410   4.338   4.329 -0.6907 -0.1166 -0.3643
   45MOL   C69934227   1.457   4.272   4.199  0.1468 -0.4319 -0.3563
   45MOL   C70034228   1.348   4.199   4.114 -0.1455 -0.0098 -0.2013
   45MOL   N70134229   1.396   4.138   3.992  0.4541 -0.1295 -0.4527
   45MOL   H70234230   1.546   5.300   4.074  1.7784  0.5927 -1.0475
   45MOL   H70334231   1.623   5.147   4.105  1.0896 -0.8874  0.4259
   45MOL   H70434232   1.509   5.123   4.304  1.1131 -1.6722 -2.2336
   45MOL   H70534233   1.427   5.278   4.294 -0.6919 -1.9932  0.8438
   45MOL   H70634234   1.309   5.220   4.086  1.6664  2.8991  0.5970
   45MOL   H70734235   1.268   5.131   4.222 -0.2672  0.2265 -0.2761
   45MOL   H70834236   1.447   5.012   4.004  0.7465 -0.7413  1.3835
   45MOL   H70934237   1.276   4.997   4.007  0.2617  1.3703 -0.9723
   45MOL   H71034238   1.188   4.807   4.102  0.4804  1.3790  0.2722
   45MOL   H71134239   1.276   4.729   4.369  0.2414  0.9187  0.1316
   45MOL   H71234240   1.143   4.671   4.275 -0.5143  2.1430 -2.0396
   45MOL   H71334241   1.312   4.531   4.133  2.0026 -1.3978  0.0879
   45MOL   H71434242   1.434   4.584   4.245  0.3291 -1.3838  1.5259
   45MOL   H71534243   1.207   4.396   4.316  0.4902 -0.4153 -1.1393
   45MOL   H71634244   1.291   4.483   4.436 -0.7512 -0.1001 -0.1027
   45MOL   H71734245   1.500   4.371   4.380 -1.1266 -0.3657  0.5754
   45MOL   H71834246   1.381   4.255   4.393  1.7168 -0.4786  0.2866
   45MOL   H71934247   1.518   4.328   4.128  1.0061 -0.8375  0.0597
   45MOL   H72034248   1.526   4.193   4.228  1.1514  0.1551 -1.1238
   45MOL   H72134249   1.273   4.276   4.096 -0.1095  0.1877  0.4787
   45MOL   H72234250   1.310   4.116   4.174 -0.3863 -0.2522 -0.6849
   45MOL   H72334251   1.476   4.079   4.007  1.4274  1.2178 -0.1817
   45MOL   C72434252   1.334   4.149   3.875  0.2121  0.1514 -0.0642
   45MOL   O72534253   1.234   4.219   3.855  0.0318 -0.1808 -0.5656
   45MOL   C72634254   1.392   4.078   3.758 -0.8860  0.5510  0.0261
   45MOL   C72734255   1.291   4.014   3.659  0.5104  0.6055  0.0673
   45MOL   C72834256   1.367   3.909   3.569  0.6138 -0.0400  0.2374
   45MOL   C72934257   1.455   3.977   3.465 -0.5608 -0.3552 -0.7226
   45MOL   C73034258   1.391   4.054   3.350 -0.2879 -0.2926 -0.9574
   45MOL   O73134259   1.286   4.017   3.303  0.0760 -0.0539  0.2892
   45MOL   N73234260   1.450   4.172   3.318 -0.2638  0.5124 -0.3061
   45MOL   C73334261   1.399   4.266   3.222 -0.5531  0.0874 -0.1579
   45MOL   C73434262   1.427   4.228   3.074 -0.9204  0.1058  0.4703
   45MOL   C73534263   1.410   4.345   2.975 -0.3276  0.6652  0.0516
   45MOL   C73634264   1.272   4.420   2.967  0.6146  0.2675  0.7624
   45MOL   C73734265   1.264   4.516   2.850 -0.3180  0.0323  1.0517
   45MOL   C73834266   1.128   4.556   2.797 -0.1533  0.4212  0.6138
   45MOL   N73934267   1.124   4.658   2.691 -0.2298 -0.2946 -0.3671
   45MOL   H74034268   1.456   4.146   3.702  1.4190 -1.1193  0.5435
   45MOL   H74134269   1.455   3.998   3.797 -1.0066  0.6743  0.4749
   45MOL   H74234270   1.222   3.953   3.717 -0.5997  0.7931 -1.0598
   45MOL   H74334271   1.232   4.080   3.596  1.3149  0.6832 -0.6092
   45MOL   H74434272   1.285   3.858   3.519 -0.0463  1.1360  0.0909
   45MOL   H74534273   1.432   3.836   3.617  0.2280 -1.3069 -1.1373
   45MOL   H74634274   1.514   3.896   3.421 -0.2238  0.2827 -1.4700
   45MOL   H74734275   1.529   4.035   3.520  0.1375 -0.9572 -1.0164
   45MOL   H74834276   1.540   4.178   3.365 -0.0330  0.4017 -0.7269
   45MOL   H74934277   1.293   4.283   3.237 -0.0404  1.4947  2.1591
   45MOL   H75034278   1.453   4.360   3.238 -0.2728 -0.4946  2.6431
   45MOL   H75134279   1.528   4.195   3.049 -1.3429 -0.5519 -0.3973
   45MOL   H75234280   1.377   4.136   3.045 -0.6279  0.2223 -0.4136
   45MOL   H75334281   1.433   4.304   2.876 -1.1607 -0.7865  0.4472
   45MOL   H75434282   1.487   4.417   3.002  0.0124  0.0854  0.6369
   45MOL   H75534283   1.188   4.352   2.957 -0.4127  1.1797  2.8571
   45MOL   H75634284   1.248   4.484   3.053 -0.5588  2.0365 -0.8349
   45MOL   H75734285   1.329   4.602   2.864 -0.0426  0.2045 -1.1086
   45MOL   H75834286   1.303   4.476   2.756 -0.6718  1.3842  0.3056
   45MOL   H75934287   1.056   4.569   2.877 -0.2989  0.4184  0.4844
   45MOL   H76034288   1.092   4.467   2.746  0.3919  0.9287 -0.6976
   45MOL   H76134289   1.058   4.623   2.624 -0.7811  0.8409 -0.4258
   45MOL   H76234290   1.070   4.737   2.724  0.0466  0.0924 -0.8383
   46MOL     C134291   2.139   2.521   2.635  0.1883  0.0619 -0.2490
   46MOL     O234292   2.027   2.486   2.652  0.6896 -0.1784 -0.0737
   46MOL     C334293   2.215   2.579   2.751 -0.3795 -0.4459 -0.3846
   46MOL     C434294   2.250   2.728   2.732  0.8260  0.2106  0.7209
   46MOL     C534295   2.128   2.824   2.710 -0.8784  0.2751  0.2940
   46MOL     C634296   2.176   2.967   2.723  0.3434 -0.3975 -0.2187
   46MOL     C734297   2.066   3.078   2.706 -0.1920  0.2821  0.6708
   46MOL     O834298   2.002   3.079   2.599 -0.4424 -0.7733  0.2211
   46MOL     N934299   2.030   3.162   2.805 -0.1641 -0.0878 -0.5946
   46MOL    C1034300   1.920   3.264   2.797 -0.2219 -0.0700  0.8845
   46MOL    C1134301   1.974   3.407   2.823 -0.4723  0.3269 -0.2411
   46MOL    C1234302   1.863   3.517   2.818 -0.7450  0.1414  0.1204
   46MOL    C1334303   1.916   3.646   2.880  0.0871 -0.4817 -0.1545
   46MOL    C1434304   2.032   3.702   2.798 -0.8796 -0.2521 -0.0125
   46MOL    C1534305   2.088   3.833   2.858 -0.0875  0.2430 -0.3399
   46MOL    N1634306   2.189   3.897   2.780 -0.5864 -0.5886 -0.2739
   46MOL    H1734307   2.162   2.563   2.845  1.1750 -1.0373  0.4046
   46MOL    H1834308   2.304   2.517   2.746 -0.6179 -0.7521 -1.0089
   46MOL    H1934309   2.303   2.749   2.825  0.6418 -1.6173  1.2552
   46MOL    H2034310   2.318   2.754   2.650 -0.5827 -0.7801 -0.7923
   46MOL    H2134311   2.061   2.818   2.796 -1.1131 -1.8291 -0.0142
   46MOL    H2234312   2.075   2.808   2.616  2.7197 -1.0008 -1.6080
   46MOL    H2334313   2.245   2.991   2.642 -2.2804  0.2721 -2.3523
   46MOL    H2434314   2.224   2.982   2.819  0.0617 -1.2284  0.0506
   46MOL    H2534315   2.081   3.153   2.892  0.0517 -1.8710 -0.9006
   46MOL    H2634316   1.862   3.265   2.705  1.7785 -1.3382 -0.4331
   46MOL    H2734317   1.846   3.244   2.874 -2.0146  0.6096 -0.6376
   46MOL    H2834318   2.026   3.410   2.919 -0.8255 -3.4170  0.1437
   46MOL    H2934319   2.048   3.437   2.749 -0.3850  0.4420 -0.1082
   46MOL    H3034320   1.774   3.487   2.874 -0.7010 -1.4507 -0.6483
   46MOL    H3134321   1.831   3.530   2.714  1.7019 -1.0970 -0.8128
   46MOL    H3234322   1.839   3.723   2.878 -0.7805 -1.3151  0.4281
   46MOL    H3334323   1.936   3.635   2.987  0.8874  3.7929  0.2165
   46MOL    H3434324   2.116   3.633   2.803 -0.4601  0.3784  2.1843
   46MOL    H3534325   1.997   3.718   2.696  2.8316  2.0490 -1.0116
   46MOL    H3634326   2.120   3.798   2.956 -0.4799  1.9012  0.3941
   46MOL    H3734327   2.012   3.910   2.871 -1.8992 -1.5292 -0.1794
   46MOL    H3834328   2.153   3.939   2.696  3.0086  3.2447 -0.0553
   46MOL    H3934329   2.194   2.477   2.551  0.2238 -1.8764  0.7445
   46MOL    C4034330   2.320   3.896   2.813  0.0543  0.9689 -0.3799
   46MOL    O4134331   2.364   3.829   2.912  0.0252  0.2161 -0.1044
   46MOL    C4234332   2.407   3.981   2.725 -0.0280  0.4602 -0.3216
   46MOL    C4334333   2.536   3.919   2.672 -0.0630  0.5451 -0.2970
   46MOL    C4434334   2.628   4.026   2.606 -0.3391 -0.3155 -0.5580
   46MOL    C4534335   2.740   3.966   2.523 -1.0219  0.2586 -0.2898
   46MOL    C4634336   2.810   4.067   2.429 -0.5021 -0.2464 -0.0720
   46MOL    O4734337   2.783   4.188   2.435 -0.2515 -0.0350 -0.4278
   46MOL    N4834338   2.897   4.015   2.343  0.7599 -0.4162  0.3055
   46MOL    C4934339   2.975   4.082   2.242 -0.3592  0.2743 -0.5513
   46MOL    C5034340   3.088   3.990   2.195 -0.2266  0.7854 -0.3014
   46MOL    C5134341   3.155   4.046   2.068 -0.4438  0.9543  0.2838
   46MOL    C5234342   3.253   3.957   1.985 -0.2990  0.3124 -0.5061
   46MOL    C5334343   3.301   4.023   1.855 -0.7729 -0.0201 -0.1561
   46MOL    C5434344   3.217   3.982   1.728  0.1673 -0.2410  0.4030
   46MOL    N5534345   3.296   4.010   1.610 -0.1434 -0.4555  0.1944
   46MOL    H5634346   2.339   4.030   2.656 -0.0497  2.2889  0.9431
   46MOL    H5734347   2.434   4.070   2.782  1.1072  0.3352 -0.6362
   46MOL    H5834348   2.575   3.860   2.754  2.9115  2.3953 -0.2812
   46MOL    H5934349   2.494   3.853   2.597  0.4475 -0.4923  0.3232
   46MOL    H6034350   2.675   4.093   2.677 -2.3305  0.6774 -0.1661
   46MOL    H6134351   2.564   4.087   2.542  1.4321  0.3503 -1.7330
   46MOL    H6234352   2.706   3.891   2.452  1.3844 -1.7116  0.5329
   46MOL    H6334353   2.822   3.918   2.577  0.3357  0.2724 -2.2911
   46MOL    H6434354   2.907   3.914   2.337 -1.7059 -0.6072 -1.2250
   46MOL    H6534355   2.907   4.107   2.160  1.5253 -0.9099 -2.5188
   46MOL    H6634356   3.015   4.177   2.277 -1.5202  0.4663  0.3004
   46MOL    H6734357   3.167   3.972   2.268  0.5701  2.5372 -0.7043
   46MOL    H6834358   3.043   3.893   2.176  0.8198  0.1289  0.4994
   46MOL    H6934359   3.203   4.143   2.080  1.9939  0.2380 -2.9331
   46MOL    H7034360   3.079   4.078   1.997  1.6820 -0.9016 -2.9816
   46MOL    H7134361   3.341   3.936   2.047  0.3162  4.2319  0.0763
   46MOL    H7234362   3.214   3.858   1.961 -0.9557 -0.3501  2.9900
   46MOL    H7334363   3.295   4.131   1.865 -0.0454 -0.1831  2.3965
   46MOL    H7434364   3.407   4.001   1.841 -0.5883  0.8299 -0.0975
   46MOL    H7534365   3.117   4.024   1.714  1.1097  1.9959  0.1860
   46MOL    H7634366   3.199   3.874   1.720  3.4859 -0.7760 -0.4865
   46MOL    H7734367   3.357   3.936   1.578 -0.0977 -2.1064  3.8670
   46MOL    C7834368   3.310   4.135   1.546  0.1554  0.1297 -0.0470
   46MOL    O7934369   3.247   4.233   1.586  0.0622  0.4381  0.1442
   46MOL    C8034370   3.409   4.143   1.435  0.3345  0.5247 -0.3198
   46MOL    C8134371   3.370   4.203   1.301  0.3414  0.4580  0.6081
   46MOL    C8234372   3.280   4.115   1.219  0.3809  0.2747 -0.8372
   46MOL    C8334373   3.336   4.061   1.087 -0.2097  0.5773  0.3251
   46MOL    C8434374   3.250   3.962   1.014  0.1234  0.3467 -0.8478
   46MOL    O8534375   3.137   3.933   1.055 -0.2035  0.5047  0.4050
   46MOL    N8634376   3.310   3.916   0.904 -0.0810  0.0136 -0.1020
   46MOL    C8734377   3.242   3.853   0.799  0.8028  0.6797 -0.3406
   46MOL    C8834378   3.314   3.730   0.746  0.5993  0.2244 -0.1130
   46MOL    C8934379   3.323   3.611   0.846 -0.8676  0.4162  0.1229
   46MOL    C9034380   3.403   3.491   0.787  0.5074 -0.4870  0.1129
   46MOL    C9134381   3.406   3.375   0.889  0.2738  0.9273 -0.0454
   46MOL    C9234382   3.423   3.246   0.808  0.8028 -0.4230  0.0956
   46MOL    N9334383   3.432   3.128   0.898  0.0358 -0.4407 -0.3129
   46MOL    H9434384   3.500   4.189   1.476  0.0702  0.5441  0.2593
   46MOL    H9534385   3.436   4.040   1.411 -1.1361  0.8079 -3.2975
   46MOL    H9634386   3.312   4.290   1.332  0.6781  0.2810  1.7858
   46MOL    H9734387   3.454   4.229   1.236  1.2739 -1.7954  0.8446
   46MOL    H9834388   3.192   4.172   1.190  0.5379 -0.2308 -2.3561
   46MOL    H9934389   3.242   4.036   1.284  1.4243  0.3901 -0.0696
   46MOL   H10034390   3.421   4.009   1.131  0.4220  1.6025  0.3467
   46MOL   H10134391   3.359   4.143   1.018 -1.6344 -0.1458 -1.0460
   46MOL   H10234392   3.400   3.955   0.879 -0.2840  0.9084  0.5134
   46MOL   H10334393   3.141   3.824   0.830  1.2321 -0.5298 -0.0289
   46MOL   H10434394   3.228   3.926   0.720 -2.4124  1.6738  1.0235
   46MOL   H10534395   3.246   3.695   0.668 -0.8217 -0.2787  1.3213
   46MOL   H10634396   3.411   3.741   0.699 -0.3238 -0.9961 -2.4152
   46MOL   H10734397   3.222   3.577   0.869 -0.9208 -0.0805 -0.8140
   46MOL   H10834398   3.371   3.654   0.934  0.2797  0.3546 -0.4591
   46MOL   H10934399   3.347   3.464   0.697  0.0205 -1.3531  0.6695
   46MOL   H11034400   3.502   3.520   0.755 -0.0467 -1.8925 -3.0595
   46MOL   H11134401   3.484   3.389   0.965  0.7482 -3.9003  0.5372
   46MOL   H11234402   3.312   3.369   0.943  1.3919  0.0560  1.8741
   46MOL   H11334403   3.518   3.247   0.755 -0.6929  3.1648 -2.7080
   46MOL   H11434404   3.349   3.231   0.730  2.0658 -1.0545 -1.0039
   46MOL   H11534405   3.356   3.062   0.907  1.5532 -2.2574 -0.5081
   46MOL   C11634406   3.528   3.101   0.989 -0.3422 -0.3916 -0.4332
   46MOL   O11734407   3.624   3.177   1.002 -0.2341  0.4397  0.3499
   46MOL   C11834408   3.517   2.975   1.082 -0.1195  0.5681  0.3209
   46MOL   C11934409   3.650   2.927   1.143  0.1876  0.3793  0.1997
   46MOL   C12034410   3.621   2.839   1.266 -0.2672 -0.0719  0.1137
   46MOL   C12134411   3.575   2.934   1.382  0.0154 -0.4707 -0.1789
   46MOL   C12234412   3.685   2.967   1.480 -0.8863  0.5858 -0.0288
   46MOL   O12334413   3.800   2.927   1.464  0.0675  0.1525  0.5349
   46MOL   N12434414   3.648   3.040   1.586  0.1750 -0.3686 -0.0710
   46MOL   C12534415   3.733   3.049   1.700 -0.4586 -0.6002 -0.7315
   46MOL   C12634416   3.656   3.083   1.825  0.3184 -0.6590 -0.1187
   46MOL   C12734417   3.746   3.088   1.953 -0.0046 -0.0248  0.1814
   46MOL   C12834418   3.686   3.143   2.086 -0.3899 -0.7123 -0.4814
   46MOL   C12934419   3.783   3.168   2.194 -0.4992 -0.2494  0.4600
   46MOL   C13034420   3.727   3.198   2.334 -0.1158 -0.8060 -0.6348
   46MOL   N13134421   3.831   3.229   2.441  0.3715 -0.2237  0.0562
   46MOL   H13234422   3.452   3.012   1.162  0.0799 -0.9274  1.2065
   46MOL   H13334423   3.452   2.893   1.052  0.0900  0.3715  0.4008
   46MOL   H13434424   3.713   2.874   1.071  1.1416 -0.9312  1.9813
   46MOL   H13534425   3.707   3.011   1.182  0.3426  1.6868 -2.7264
   46MOL   H13634426   3.716   2.786   1.278  1.3091  2.8999  1.2969
   46MOL   H13734427   3.552   2.760   1.238  2.3075 -1.3641 -2.9073
   46MOL   H13834428   3.505   2.880   1.446 -0.4535  2.4970  1.9498
   46MOL   H13934429   3.522   3.022   1.345 -2.1420 -2.7327 -2.6112
   46MOL   H14034430   3.557   3.085   1.589 -0.7263 -2.0713 -0.7802
   46MOL   H14134431   3.778   2.951   1.716  0.3552 -0.2453 -0.8304
   46MOL   H14234432   3.811   3.119   1.669 -0.8747  1.0819  1.8933
   46MOL   H14334433   3.622   3.185   1.814 -0.6420 -1.1585 -2.0134
   46MOL   H14434434   3.577   3.009   1.824  0.2969 -0.6376 -1.0865
   46MOL   H14534435   3.834   3.144   1.924  0.8427 -1.6544 -0.4523
   46MOL   H14634436   3.775   2.985   1.973  2.4373  0.7118  0.5476
   46MOL   H14734437   3.649   3.243   2.065 -1.2581 -0.3077  2.6240
   46MOL   H14834438   3.603   3.081   2.119 -1.7206  1.4406  0.3550
   46MOL   H14934439   3.836   3.073   2.207 -1.4847 -0.3644  4.4716
   46MOL   H15034440   3.858   3.238   2.157 -1.5181  0.3014 -0.5492
   46MOL   H15134441   3.682   3.107   2.372  2.6919 -1.6527  0.8691
   46MOL   H15234442   3.648   3.273   2.327  0.8894  0.2522 -0.8705
   46MOL   H15334443   3.911   3.167   2.441 -1.2360 -2.3666 -0.5658
   46MOL   C15434444   3.805   3.297   2.553  0.1507  0.5557 -0.3829
   46MOL   O15534445   3.699   3.352   2.574 -0.1312  0.2252 -0.1695
   46MOL   C15634446   3.926   3.304   2.646 -0.0389 -0.2382 -0.5983
   46MOL   C15734447   3.889   3.308   2.794 -0.4968  0.1708 -0.0267
   46MOL   C15834448   3.859   3.454   2.847  0.1060 -0.3455 -0.0689
   46MOL   C15934449   3.784   3.458   2.983  0.0143  0.0116  0.3293
   46MOL   C16034450   3.636   3.431   2.964  0.1400 -0.2103  0.3561
   46MOL   O16134451   3.586   3.325   3.000 -0.1040 -0.5298  0.2251
   46MOL   N16234452   3.562   3.530   2.912  0.2976 -0.2256  0.1558
   46MOL   C16334453   3.415   3.519   2.890 -0.2402  0.2144 -0.3614
   46MOL   C16434454   3.376   3.589   2.764 -0.2346  0.7266  0.0509
   46MOL   C16534455   3.227   3.590   2.744  0.1500 -0.1489  0.8553
   46MOL   C16634456   3.180   3.679   2.630  0.3328 -0.1503 -0.0968
   46MOL   C16734457   3.026   3.698   2.625  0.3149 -0.3229  0.3956
   46MOL   C16834458   2.959   3.571   2.551  0.2600 -0.2992 -0.5089
   46MOL   N16934459   3.009   3.535   2.416  0.3097  0.1835  0.3178
   46MOL   H17034460   3.983   3.213   2.627 -0.6321 -1.0176  1.1702
   46MOL   H17134461   3.993   3.388   2.628  1.8233 -1.4212  0.4972
   46MOL   H17234462   3.805   3.246   2.825  1.0618 -0.4154  3.1675
   46MOL   H17334463   3.967   3.264   2.856 -1.1270  0.3573  0.9154
   46MOL   H17434464   3.807   3.511   2.771  1.9342 -0.2275 -1.2684
   46MOL   H17534465   3.957   3.497   2.869 -1.4058  2.5761  1.1853
   46MOL   H17634466   3.801   3.546   3.045  1.4124 -0.8290  1.1646
   46MOL   H17734467   3.829   3.376   3.039  1.5859 -0.2060 -1.1756
   46MOL   H17834468   3.616   3.610   2.884 -0.5597  0.9273  1.6939
   46MOL   H17934469   3.385   3.414   2.890  3.3225 -0.9230  2.1836
   46MOL   H18034470   3.372   3.562   2.981  1.4129 -0.9576  1.0236
   46MOL   H18134471   3.416   3.690   2.757  0.4066  0.5088  0.5464
   46MOL   H18234472   3.425   3.535   2.683  1.6150 -0.3962  1.8508
   46MOL   H18334473   3.161   3.615   2.826  0.1966  1.0445  0.5441
   46MOL   H18434474   3.191   3.489   2.728 -1.3035  0.3117  1.1985
   46MOL   H18534475   3.214   3.782   2.643  1.4261 -0.2107 -2.1370
   46MOL   H18634476   3.224   3.630   2.543 -1.1585 -0.8191 -0.4906
   46MOL   H18734477   2.986   3.725   2.723 -1.9349  1.5123 -0.9779
   46MOL   H18834478   3.008   3.786   2.564 -1.0465 -1.7762 -1.3944
   46MOL   H18934479   2.852   3.584   2.539 -0.1063 -2.6503 -0.1099
   46MOL   H19034480   2.964   3.478   2.609  0.1790 -0.6225 -1.0171
   46MOL   H19134481   3.089   3.476   2.402 -0.3613 -0.5681 -0.4454
   46MOL   C19234482   2.981   3.608   2.304 -0.3388  0.1739  0.0735
   46MOL   O19334483   2.903   3.694   2.309  0.6740 -0.4731  0.2435
   46MOL   C19434484   3.043   3.558   2.169  0.2144  0.1721  0.3492
   46MOL   C19534485   2.982   3.623   2.033 -0.0243  0.1637  0.1537
   46MOL   C19634486   3.040   3.553   1.914 -0.2756  0.3489  0.1652
   46MOL   C19734487   2.967   3.597   1.782 -0.3702  0.0531  0.6174
   46MOL   C19834488   2.972   3.487   1.676  0.0004  0.1913  0.6104
   46MOL   O19934489   3.076   3.460   1.617  0.2810 -0.9221  0.2863
   46MOL   N20034490   2.851   3.423   1.660 -0.2767  0.5327  0.0431
   46MOL   C20134491   2.820   3.315   1.574  0.1601 -0.4508 -0.1631
   46MOL   C20234492   2.703   3.237   1.644  0.3906 -0.2056  0.0430
   46MOL   C20334493   2.713   3.079   1.654  0.0858 -0.7193 -0.0594
   46MOL   C20434494   2.828   3.022   1.719  0.0929  0.3509  0.2826
   46MOL   C20534495   2.852   2.868   1.709 -0.0704  1.0719  0.0645
   46MOL   C20634496   2.748   2.787   1.786  0.0759 -0.4031 -0.3451
   46MOL   N20734497   2.736   2.833   1.926 -0.1220 -0.1038  0.7411
   46MOL   H20834498   3.149   3.576   2.183  0.0395  1.5526  0.0184
   46MOL   H20934499   3.028   3.451   2.160  0.4995  0.1849 -0.2610
   46MOL   H21034500   2.877   3.600   2.048  0.5839 -3.3331 -0.3073
   46MOL   H21134501   2.999   3.730   2.033  1.1316  0.0263  2.7108
   46MOL   H21234502   3.044   3.445   1.932  1.2485  0.3959  0.2206
   46MOL   H21334503   3.145   3.578   1.897  0.0789 -0.4304  1.1105
   46MOL   H21434504   3.017   3.675   1.725  1.6821 -2.3812 -1.0578
   46MOL   H21534505   2.864   3.629   1.796 -0.9941 -0.5728 -2.2887
   46MOL   H21634506   2.778   3.461   1.719  0.6164  2.4536 -0.0400
   46MOL   H21734507   2.792   3.363   1.481 -0.2435  1.9435  1.1618
   46MOL   H21834508   2.912   3.257   1.564  1.1111  0.5256  2.4519
   46MOL   H21934509   2.687   3.276   1.745  1.2066  0.7828 -0.2041
   46MOL   H22034510   2.608   3.260   1.597  0.2395  0.1553  0.5191
   46MOL   H22134511   2.703   3.035   1.555 -0.9697 -1.6221  0.4393
   46MOL   H22234512   2.622   3.046   1.704  0.9498 -1.5378  0.9756
   46MOL   H22334513   2.918   3.069   1.679 -0.7095 -0.3216 -2.4167
   46MOL   H22434514   2.833   3.054   1.823  0.7732 -2.1552  1.0601
   46MOL   H22534515   2.858   2.837   1.604 -0.8299 -2.6119  1.0530
   46MOL   H22634516   2.952   2.842   1.746 -0.0197 -2.6875 -2.4695
   46MOL   H22734517   2.775   2.683   1.769 -2.9261 -1.0969 -1.1921
   46MOL   H22834518   2.646   2.801   1.749 -0.0801 -1.1613 -0.2010
   46MOL   H22934519   2.737   2.932   1.944  0.4779 -0.1032  0.7141
   46MOL   C23034520   2.735   2.757   2.037 -0.1420 -0.1028 -0.2592
   46MOL   O23134521   2.741   2.636   2.030 -0.1012 -0.3049  0.2526
   46MOL   C23234522   2.732   2.823   2.180 -0.5364  0.4282  0.6692
   46MOL   C23334523   2.865   2.851   2.239 -0.3657 -0.2161  0.2876
   46MOL   C23434524   2.940   2.976   2.178 -0.0846  0.3079 -0.3502
   46MOL   C23534525   2.900   3.120   2.216 -0.6094 -0.2161 -0.2080
   46MOL   C23634526   2.794   3.185   2.128  0.1929  0.0045  0.2147
   46MOL   O23734527   2.743   3.118   2.035  0.0238 -0.0286 -0.2340
   46MOL   N23834528   2.770   3.315   2.146 -0.0846  0.5086 -0.0968
   46MOL   C23934529   2.679   3.404   2.074 -0.0196 -1.3491  0.0462
   46MOL   C24034530   2.616   3.515   2.171  0.1602  0.2124 -0.3025
   46MOL   C24134531   2.556   3.453   2.299 -0.5769  0.4562  0.5131
   46MOL   C24234532   2.479   3.555   2.384 -0.3319 -0.0019 -0.2626
   46MOL   C24334533   2.437   3.497   2.515 -0.1814 -0.0331 -0.1939
   46MOL   C24434534   2.317   3.569   2.587 -0.3052  0.3526  0.0675
   46MOL   N24534535   2.197   3.559   2.508  0.3420  0.2366  0.1345
   46MOL   H24634536   2.667   2.909   2.191 -0.3377  0.3162  3.0202
   46MOL   H24734537   2.678   2.751   2.242  0.2310 -1.4099 -0.7417
   46MOL   H24834538   2.867   2.865   2.347  1.3497  1.5882  0.0478
   46MOL   H24934539   2.934   2.768   2.226 -1.3193 -0.7102 -1.7275
   46MOL   H25034540   2.942   2.964   2.070 -1.2429 -1.4433 -0.2058
   46MOL   H25134541   3.044   2.962   2.209  0.7823 -0.1443 -3.3285
   46MOL   H25234542   2.995   3.169   2.195 -0.7391 -0.0294 -0.3655
   46MOL   H25334543   2.878   3.132   2.322 -0.5202 -0.7247 -0.1305
   46MOL   H25434544   2.826   3.359   2.218 -1.6744  1.2479  0.6924
   46MOL   H25534545   2.740   3.455   1.999  0.6651 -2.4242 -0.1286
   46MOL   H25634546   2.600   3.348   2.024 -0.8471 -0.3846  0.2504
   46MOL   H25734547   2.689   3.589   2.202  0.5248  0.8400 -2.5892
   46MOL   H25834548   2.540   3.566   2.112  1.6602 -1.6845 -4.0919
   46MOL   H25934549   2.630   3.401   2.360 -0.5392 -0.6165 -0.4279
   46MOL   H26034550   2.488   3.377   2.260  2.0162 -1.8461  0.3209
   46MOL   H26134551   2.542   3.643   2.395  0.0711 -0.0855 -1.6910
   46MOL   H26234552   2.391   3.590   2.329 -0.4128  2.1120  1.1676
   46MOL   H26334553   2.419   3.390   2.508 -1.7657  0.3121 -1.4991
   46MOL   H26434554   2.526   3.500   2.578  0.1654  1.6480 -0.7381
   46MOL   H26534555   2.341   3.671   2.617  1.2489  0.1204 -0.3276
   46MOL   H26634556   2.308   3.511   2.679 -2.2227 -1.8056 -1.4250
   46MOL   H26734557   2.163   3.645   2.469  1.6009  1.4118  1.5413
   46MOL   C26834558   2.132   3.442   2.482 -0.1426 -0.0752 -0.0767
   46MOL   O26934559   2.170   3.337   2.539 -0.4008 -0.3689 -0.0494
   46MOL   C27034560   2.002   3.454   2.397  0.2824 -0.9685 -0.7484
   46MOL   C27134561   1.953   3.328   2.332  0.5990 -0.6189  0.2078
   46MOL   C27234562   1.821   3.345   2.260  0.8495  0.2668  0.2303
   46MOL   C27334563   1.690   3.340   2.338 -0.2853 -0.3872 -0.5186
   46MOL   C27434564   1.668   3.196   2.377 -0.0093 -0.0787  0.3027
   46MOL   O27534565   1.586   3.133   2.304 -0.0086 -0.5686  0.0269
   46MOL   N27634566   1.723   3.140   2.487 -0.1386 -0.1043  0.2310
   46MOL   C27734567   1.688   3.018   2.555 -0.0262 -0.2027 -0.1882
   46MOL   C27834568   1.540   3.018   2.612 -0.5470 -0.0229 -0.3585
   46MOL   C27934569   1.498   2.875   2.648 -0.3286 -0.0888  1.2106
   46MOL   C28034570   1.368   2.869   2.727  0.2639 -1.2962 -0.4107
   46MOL   C28134571   1.372   2.908   2.877 -0.3832 -0.8747 -0.4016
   46MOL   C28234572   1.240   2.894   2.963  0.5449 -0.4651 -0.4337
   46MOL   N28334573   1.273   2.921   3.104 -0.6246  0.2225  0.0454
   46MOL   H28434574   1.928   3.501   2.462 -0.2667 -1.0250 -1.3244
   46MOL   H28534575   2.021   3.531   2.323 -0.3496  0.2531  0.3313
   46MOL   H28634576   2.029   3.287   2.266  0.8616 -1.9426  1.3068
   46MOL   H28734577   1.947   3.249   2.407  3.9753  0.2389  1.4632
   46MOL   H28834578   1.816   3.269   2.181  0.9047  0.6841 -0.1754
   46MOL   H28934579   1.812   3.447   2.224 -0.2245  0.6546  1.5984
   46MOL   H29034580   1.615   3.379   2.269 -0.9463  1.5352  1.2361
   46MOL   H29134581   1.683   3.414   2.418 -0.5252 -1.2940  0.3111
   46MOL   H29234582   1.792   3.190   2.543 -1.2039 -0.2081  1.6678
   46MOL   H29334583   1.705   2.934   2.488 -1.7508 -1.5114  0.9656
   46MOL   H29434584   1.755   3.013   2.641  2.9365 -1.2284 -2.4687
   46MOL   H29534585   1.542   3.072   2.707  0.7201 -1.3248  0.3584
   46MOL   H29634586   1.478   3.066   2.536 -0.0952 -0.9408 -1.3161
   46MOL   H29734587   1.576   2.821   2.701  1.0974  0.4885 -0.2285
   46MOL   H29834588   1.481   2.826   2.552  1.0752  1.0173  0.3810
   46MOL   H29934589   1.297   2.927   2.669  1.0133  0.7258  0.6459
   46MOL   H30034590   1.330   2.767   2.719 -0.0426 -1.4583  2.5110
   46MOL   H30134591   1.441   2.842   2.929 -2.7813 -2.4472  0.8661
   46MOL   H30234592   1.408   3.011   2.879 -3.2294  0.1188  2.2336
   46MOL   H30334593   1.182   2.802   2.961  2.9166 -1.9920 -0.5316
   46MOL   H30434594   1.165   2.967   2.931 -2.6985 -2.8467  1.5130
   46MOL   H30534595   1.246   3.014   3.135  0.6477  0.5075  0.3203
   46MOL   C30634596   1.308   2.834   3.198 -0.2136  0.4902  0.2451
   46MOL   O30734597   1.349   2.717   3.172  0.1314 -0.1026 -0.1199
   46MOL   C30834598   1.289   2.881   3.341  0.1024  0.4943 -0.4840
   46MOL   C30934599   1.420   2.930   3.400 -0.0358 -0.4767 -0.6480
   46MOL   C31034600   1.392   2.996   3.545  1.1697  0.0112  0.2964
   46MOL   C31134601   1.514   3.017   3.631 -0.3944 -0.1262  0.1140
   46MOL   C31234602   1.477   3.116   3.744  1.0351  0.1741 -0.3820
   46MOL   O31334603   1.363   3.155   3.752  0.1956 -0.0016 -0.5239
   46MOL   N31434604   1.577   3.152   3.829 -0.2734 -0.1121 -0.7671
   46MOL   C31534605   1.550   3.205   3.956  0.4335  0.7485 -0.2993
   46MOL   C31634606   1.555   3.098   4.071 -0.0559 -0.4311  0.1639
   46MOL   C31734607   1.544   3.173   4.203  0.4562 -1.2153  0.7815
   46MOL   C31834608   1.555   3.083   4.327 -0.8181  0.1615 -0.4806
   46MOL   C31934609   1.702   3.040   4.352  0.0895 -0.6856  0.6593
   46MOL   C32034610   1.714   2.914   4.435  0.0381 -0.3107 -0.8305
   46MOL   N32134611   1.853   2.905   4.484 -0.2157 -0.0289  0.6633
   46MOL   H32234612   1.220   2.965   3.338 -1.4535 -0.7502 -0.0514
   46MOL   H32334613   1.244   2.809   3.408  1.5097  0.8558  0.8825
   46MOL   H32434614   1.478   2.841   3.425 -0.4994 -0.7578 -0.5829
   46MOL   H32534615   1.483   2.981   3.326 -0.5028  0.8412 -0.1466
   46MOL   H32634616   1.323   2.933   3.601  1.0702  1.1736  1.5087
   46MOL   H32734617   1.337   3.090   3.540 -0.9606 -1.2977 -1.8166
   46MOL   H32834618   1.592   3.062   3.570  0.3130 -2.0615 -0.4462
   46MOL   H32934619   1.556   2.922   3.666  1.2956  0.5199 -0.0977
   46MOL   H33034620   1.664   3.103   3.814  1.3496  1.8582  1.9758
   46MOL   H33134621   1.616   3.290   3.977  2.5226 -1.0857  0.7168
   46MOL   H33234622   1.446   3.235   3.960  0.9344  2.6820 -1.1005
   46MOL   H33334623   1.476   3.026   4.053 -0.8866  0.3450  0.6671
   46MOL   H33434624   1.651   3.047   4.059 -0.3658 -1.0371  0.2639
   46MOL   H33534625   1.453   3.233   4.206  0.4603 -1.0574 -1.1167
   46MOL   H33634626   1.615   3.255   4.212  0.7540 -1.3914  0.0492
   46MOL   H33734627   1.515   3.137   4.414 -0.4344  1.1328 -0.8976
   46MOL   H33834628   1.498   2.991   4.316 -0.9532  0.1753  0.0827
   46MOL   H33934629   1.766   3.032   4.265 -0.3856 -1.0995  0.3440
   46MOL   H34034630   1.745   3.127   4.403 -1.4981  0.3063  0.3615
   46MOL   H34134631   1.673   2.829   4.382 -0.6517 -0.1295 -0.5985
   46MOL   H34234632   1.658   2.929   4.528  1.8132 -0.7088  0.3317
   46MOL   H34334633   1.889   2.984   4.536 -0.5133  0.1907  0.5328
   46MOL   C34434634   1.934   2.811   4.446 -0.8178  0.4549  0.6101
   46MOL   O34534635   1.915   2.724   4.364 -0.1702 -0.0236  0.5459
   46MOL   C34634636   2.080   2.819   4.499  0.7733  0.1630  0.0383
   46MOL   C34734637   2.194   2.792   4.403  0.2131  0.3039  0.4846
   46MOL   C34834638   2.191   2.894   4.281 -0.0340  0.0808 -0.7070
   46MOL   C34934639   2.314   2.912   4.192 -0.2149  0.0317 -0.3528
   46MOL   C35034640   2.339   2.799   4.097  0.3905  0.5310 -0.7039
   46MOL   O35134641   2.248   2.769   4.019 -0.3588 -0.6336  0.6483
   46MOL   N35234642   2.451   2.731   4.083 -0.3403  0.1436  0.3004
   46MOL   C35334643   2.572   2.740   4.163  0.8742 -0.4849 -0.0043
   46MOL   C35434644   2.699   2.770   4.073 -0.1523 -0.0591  0.0359
   46MOL   C35534645   2.826   2.737   4.152 -0.3169 -0.2549  0.4858
   46MOL   C35634646   2.953   2.748   4.058  0.6268 -0.1708 -0.6955
   46MOL   C35734647   3.076   2.764   4.140  0.0852  0.1894 -0.1100
   46MOL   C35834648   3.209   2.756   4.064  0.2751  0.0984 -1.0976
   46MOL   N35934649   3.315   2.759   4.162  0.0705 -0.0721  0.6085
   46MOL   H36034650   2.095   2.907   4.562 -0.3182  2.1168 -2.3044
   46MOL   H36134651   2.095   2.737   4.568  2.6344  0.6479  0.2368
   46MOL   H36234652   2.288   2.804   4.459 -0.4610  1.5909  1.3748
   46MOL   H36334653   2.189   2.690   4.366 -0.1171 -0.2608  2.0289
   46MOL   H36434654   2.169   2.990   4.328  0.1510 -0.1705 -0.1143
   46MOL   H36534655   2.102   2.871   4.221  1.0923 -1.2498 -1.9070
   46MOL   H36634656   2.397   2.925   4.261 -1.5019 -0.4915  1.3182
   46MOL   H36734657   2.298   3.003   4.134 -1.2968 -0.0341 -0.1579
   46MOL   H36834658   2.444   2.656   4.016  2.6235  1.4357 -1.5529
   46MOL   H36934659   2.569   2.821   4.236 -2.3096  0.4293 -1.1024
   46MOL   H37034660   2.592   2.655   4.228  4.1012  0.3706  0.2437
   46MOL   H37134661   2.691   2.698   3.992 -1.1612  1.6384 -1.3957
   46MOL   H37234662   2.701   2.869   4.028 -0.1951 -0.8267 -1.6683
   46MOL   H37334663   2.831   2.639   4.198 -0.2928 -0.8595 -0.7888
   46MOL   H37434664   2.839   2.810   4.233  3.5963  1.5093 -1.5874
   46MOL   H37534665   2.963   2.664   3.989 -1.0304 -0.2936 -0.8083
   46MOL   H37634666   2.944   2.836   3.995  0.1086 -1.0899 -1.9299
   46MOL   H37734667   3.076   2.858   4.196  2.7981 -0.4054  1.0073
   46MOL   H37834668   3.074   2.687   4.217  0.1827  0.5331  0.2383
   46MOL   H37934669   3.215   2.841   3.996  0.3011 -0.9642 -2.4398
   46MOL   H38034670   3.208   2.667   4.002  0.2217 -1.5184  1.1484
   46MOL   H38134671   3.356   2.670   4.188  0.6064  0.0024  0.0298
   46MOL   C38234672   3.350   2.865   4.227 -0.3673  0.3605 -0.4222
   46MOL   O38334673   3.323   2.980   4.187 -0.0795 -0.0139  0.1905
   46MOL   C38434674   3.439   2.852   4.348 -0.0026 -0.4665  0.0817
   46MOL   C38534675   3.559   2.951   4.346  0.1096  0.5025 -0.6596
   46MOL   C38634676   3.645   2.950   4.476  0.5786  0.3974 -0.3949
   46MOL   C38734677   3.758   3.054   4.472 -0.0572 -0.2157 -0.2932
   46MOL   C38834678   3.808   3.102   4.608 -0.3791  0.3344 -0.0128
   46MOL   O38934679   3.744   3.173   4.678 -0.3116  0.3842  0.0627
   46MOL   N39034680   3.931   3.067   4.629 -0.0369 -0.8367  0.3625
   46MOL   C39134681   4.000   3.120   4.747 -0.3498 -0.2618 -0.1550
   46MOL   C39234682   4.093   3.012   4.822 -0.3185 -0.6253 -0.3390
   46MOL   C39334683   4.033   2.877   4.850 -0.0931  0.1664  0.1952
   46MOL   C39434684   4.043   2.781   4.725 -0.1766 -0.3988  0.3647
   46MOL   C39534685   3.993   2.631   4.750  0.1521  0.2468 -0.4516
   46MOL   C39634686   3.988   2.542   4.621  0.4342 -1.0091 -0.5268
   46MOL   N39734687   3.924   2.608   4.510  0.0058 -0.0111  0.0171
   46MOL   H39834688   3.388   2.859   4.444  1.4227  0.4291  0.7842
   46MOL   H39934689   3.487   2.754   4.356 -2.2492 -1.6910 -0.8734
   46MOL   H40034690   3.626   2.927   4.263  0.9402  0.0341  0.1291
   46MOL   H40134691   3.525   3.054   4.337 -0.4180  0.3185 -0.7384
   46MOL   H40234692   3.685   2.851   4.495 -2.3662 -0.5211  1.3707
   46MOL   H40334693   3.572   2.974   4.554 -2.2174 -3.3314 -1.7216
   46MOL   H40434694   3.721   3.143   4.422  0.5367 -1.0430 -2.2517
   46MOL   H40534695   3.842   3.019   4.412 -1.0295 -0.4814 -1.5218
   46MOL   H40634696   3.985   3.023   4.555  2.2517  0.0137  1.4853
   46MOL   H40734697   4.061   3.206   4.720  1.3601 -2.0314 -2.2404
   46MOL   H40834698   3.929   3.153   4.822  0.0370  0.9246 -0.3015
   46MOL   H40934699   4.183   2.994   4.763 -0.0226 -1.0831  0.2487
   46MOL   H41034700   4.129   3.073   4.904 -0.6310  1.1934 -1.5189
   46MOL   H41134701   3.927   2.896   4.869 -0.9215 -2.0252 -1.9519
   46MOL   H41234702   4.054   2.825   4.944  0.2757 -0.7097 -0.3691
   46MOL   H41334703   3.986   2.818   4.641 -0.1206 -1.4093 -0.1265
   46MOL   H41434704   4.147   2.769   4.694 -0.4547  0.6548 -1.0200
   46MOL   H41534705   4.043   2.572   4.826  0.8247  0.6515 -0.5799
   46MOL   H41634706   3.889   2.634   4.784  0.4524 -1.7708  0.6833
   46MOL   H41734707   3.943   2.447   4.653 -1.7098  0.0817 -0.2281
   46MOL   H41834708   4.088   2.513   4.589 -0.2486 -1.5469 -2.2150
   46MOL   H41934709   3.941   2.706   4.490  1.1899 -0.0072  0.9877
   46MOL   C42034710   3.832   2.549   4.437  0.0316 -0.1383  0.4466
   46MOL   O42134711   3.791   2.433   4.455  0.7937 -0.4428 -0.8218
   46MOL   C42234712   3.766   2.638   4.324  0.4824 -0.3201 -0.9587
   46MOL   C42334713   3.745   2.561   4.194  0.6283 -0.2445 -0.1094
   46MOL   C42434714   3.677   2.642   4.076 -0.1925 -0.6795 -0.1242
   46MOL   C42534715   3.630   2.544   3.964  0.5252 -0.2215 -0.5030
   46MOL   C42634716   3.491   2.475   3.998  0.0845 -0.2997 -0.2737
   46MOL   O42734717   3.410   2.510   4.081  0.2971 -0.3421 -0.5278
   46MOL   N42834718   3.468   2.372   3.914  0.2927  0.9465  0.4411
   46MOL   C42934719   3.363   2.282   3.929 -0.4271  0.7671 -0.4808
   46MOL   C43034720   3.415   2.157   4.009 -0.1228  0.4426 -0.5219
   46MOL   C43134721   3.343   2.028   3.975 -0.0571  0.4566  0.0597
   46MOL   C43234722   3.408   1.896   4.027  0.5824 -0.1284 -0.3376
   46MOL   C43334723   3.442   1.899   4.177 -0.1378 -0.0429 -0.5218
   46MOL   C43434724   3.500   1.760   4.222  0.2503 -0.0979  0.3695
   46MOL   N43534725   3.515   1.759   4.370  0.4824 -0.2039 -0.2395
   46MOL   H43634726   3.676   2.692   4.352  1.0403  0.1978 -0.1533
   46MOL   H43734727   3.840   2.716   4.307  2.0133 -1.0681  1.9787
   46MOL   H43834728   3.837   2.515   4.158  1.6859  1.1080  0.8183
   46MOL   H43934729   3.687   2.472   4.220 -0.4504  0.9552  1.7110
   46MOL   H44034730   3.765   2.697   4.043 -0.4353 -0.3900 -0.2878
   46MOL   H44134731   3.601   2.714   4.104  1.1156  2.0328 -3.1975
   46MOL   H44234732   3.706   2.469   3.943  1.7908  0.9951 -0.3398
   46MOL   H44334733   3.623   2.604   3.874  2.7882  0.3057 -0.3642
   46MOL   H44434734   3.535   2.352   3.840 -0.3506 -2.2485  0.6530
   46MOL   H44534735   3.274   2.322   3.977  0.6403  0.7342  1.5580
   46MOL   H44634736   3.352   2.247   3.826 -3.2453  0.0793  0.0267
   46MOL   H44734737   3.522   2.151   3.989 -0.2148 -1.1541 -0.5661
   46MOL   H44834738   3.390   2.178   4.113  2.2064 -1.4371  0.4725
   46MOL   H44934739   3.347   2.025   3.866 -1.1685 -0.2389  0.0314
   46MOL   H45034740   3.236   2.036   3.994 -0.9467 -1.4240 -3.6878
   46MOL   H45134741   3.337   1.818   4.001 -0.3630  1.4425 -2.7038
   46MOL   H45234742   3.508   1.889   3.983  0.8027  0.6217  0.0322
   46MOL   H45334743   3.514   1.976   4.205 -0.4271  0.6117 -1.5526
   46MOL   H45434744   3.346   1.924   4.223  0.7716  2.0811  0.2926
   46MOL   H45534745   3.594   1.726   4.177  0.0045 -0.5565  0.1959
   46MOL   H45634746   3.430   1.684   4.186 -1.2033 -0.1762  3.2334
   46MOL   H45734747   3.592   1.814   4.405  1.6698 -0.7717 -1.8600
   46MOL   C45834748   3.475   1.671   4.456 -0.1691 -0.0717 -0.1626
   46MOL   O45934749   3.414   1.563   4.423 -0.1498 -0.2553  0.1957
   46MOL   C46034750   3.509   1.695   4.605  0.0284 -0.1407 -0.5831
   46MOL   C46134751   3.511   1.577   4.704  0.5901 -0.1019  0.1901
   46MOL   C46234752   3.641   1.496   4.684  1.3177 -0.2776 -0.4236
   46MOL   C46334753   3.651   1.373   4.779  0.7674  0.2616 -0.6825
   46MOL   C46434754   3.680   1.402   4.922 -0.6916 -0.2349  0.9353
   46MOL   O46534755   3.718   1.508   4.962 -0.2188 -0.1545  0.0038
   46MOL   N46634756   3.649   1.309   5.012  0.1900 -0.3967 -0.3404
   46MOL   C46734757   3.673   1.303   5.155 -0.3243 -0.4266  0.1214
   46MOL   C46834758   3.543   1.270   5.228  0.2310  0.2004 -0.1158
   46MOL   C46934759   3.445   1.386   5.227 -0.0843  0.2651  1.0880
   46MOL   C47034760   3.311   1.355   5.301 -0.5158  0.4716 -0.5950
   46MOL   C47134761   3.341   1.292   5.442  0.1233  0.1930 -0.3943
   46MOL   C47234762   3.229   1.293   5.551 -0.6578  0.1932 -0.0601
   46MOL   N47334763   3.274   1.228   5.669  0.4298 -0.2563 -0.2430
   46MOL   H47434764   3.597   1.759   4.611 -0.0354 -0.0857 -0.2230
   46MOL   H47534765   3.429   1.754   4.648 -2.3179 -2.5310 -1.5293
   46MOL   H47634766   3.509   1.623   4.803 -0.4861  0.2737  0.0028
   46MOL   H47734767   3.418   1.522   4.690  0.0660  0.5064  1.2280
   46MOL   H47834768   3.734   1.550   4.703  0.5100  1.3393 -0.9453
   46MOL   H47934769   3.649   1.458   4.582 -3.4674 -1.1646 -0.6012
   46MOL   H48034770   3.718   1.296   4.740  0.1820 -0.8682  0.4974
   46MOL   H48134771   3.553   1.326   4.772  0.7674 -0.3338  2.5704
   46MOL   H48234772   3.587   1.237   4.976 -0.7663 -0.0847  0.6317
   46MOL   H48334773   3.743   1.221   5.174 -0.7745 -0.6895  0.6440
   46MOL   H48434774   3.720   1.391   5.198  0.6822 -0.2188 -1.3612
   46MOL   H48534775   3.499   1.179   5.187 -1.0925  0.0263  1.6554
   46MOL   H48634776   3.571   1.242   5.330 -1.4464  0.2508  0.3690
   46MOL   H48734777   3.421   1.428   5.129  0.4646 -2.3454 -0.2154
   46MOL   H48834778   3.489   1.469   5.281  0.7671 -1.6863  3.5137
   46MOL   H48934779   3.256   1.445   5.327  0.2974  0.7543  0.1609
   46MOL   H49034780   3.236   1.286   5.261 -3.0155  2.5069  0.4186
   46MOL   H49134781   3.375   1.190   5.427 -1.7881 -0.7321  1.4093
   46MOL   H49234782   3.425   1.340   5.492  0.1664 -0.5613  0.2657
   46MOL   H49334783   3.141   1.244   5.510 -0.7922  2.1884 -2.3238
   46MOL   H49434784   3.207   1.395   5.581  2.9528  0.4695  1.8673
   46MOL   H49534785   3.293   1.279   5.754 -2.6020  2.0317 -0.8423
   46MOL   C49634786   3.296   1.100   5.687 -0.0565  0.4633 -0.1359
   46MOL   O49734787   3.270   1.013   5.608 -0.0528 -0.1853  0.5205
   46MOL   C49834788   3.357   1.051   5.812  0.2904 -0.4056 -0.2700
   46MOL   C49934789   3.247   1.009   5.917  0.3531 -0.4092  0.1984
   46MOL   C50034790   3.303   0.977   6.052  0.3173 -0.4557  0.0769
   46MOL   C50134791   3.192   0.957   6.161  0.5167  0.1058  0.3008
   46MOL   C50234792   3.087   0.846   6.136 -0.0681 -0.1105  0.1771
   46MOL   O50334793   3.106   0.766   6.046 -0.8177  0.1720 -0.3285
   46MOL   N50434794   2.983   0.837   6.223 -0.4318  0.0121 -0.0787
   46MOL   C50534795   2.884   0.732   6.232  0.2643  0.5973  0.4987
   46MOL   C50634796   2.754   0.776   6.307 -1.2988  0.2073 -0.4519
   46MOL   C50734797   2.661   0.661   6.333  0.3103 -0.2778  0.3357
   46MOL   C50834798   2.534   0.712   6.404  0.5628 -0.4415  0.0122
   46MOL   C50934799   2.454   0.815   6.325  0.1152  0.3671 -0.1280
   46MOL   C51034800   2.327   0.867   6.383  0.1795 -0.1561 -0.0550
   46MOL   N51134801   2.272   0.970   6.290 -0.3343 -0.4047 -0.8014
   46MOL   H51234802   3.433   0.980   5.780  2.0035  1.1541  0.2571
   46MOL   H51334803   3.418   1.119   5.871 -1.7019  0.1847  1.1665
   46MOL   H51434804   3.188   1.100   5.932 -0.0909 -0.3616 -1.7412
   46MOL   H51534805   3.181   0.932   5.876  0.8658 -2.0895  2.4312
   46MOL   H51634806   3.369   1.057   6.085  2.0641 -1.9531  0.3009
   46MOL   H51734807   3.362   0.886   6.048  1.2219  0.1265  0.1644
   46MOL   H51834808   3.148   1.056   6.169 -1.2311 -0.3167 -2.9898
   46MOL   H51934809   3.241   0.930   6.254 -0.9443 -0.8231  0.8133
   46MOL   H52034810   2.996   0.891   6.308 -2.3462  0.4526 -0.0336
   46MOL   H52134811   2.854   0.699   6.133  1.7246  1.7767 -0.3418
   46MOL   H52234812   2.946   0.655   6.278 -0.3854  0.0621  0.4846
   46MOL   H52334813   2.784   0.822   6.401  1.5942 -0.4324 -1.0293
   46MOL   H52434814   2.719   0.857   6.243 -1.0223 -0.5651 -1.5998
   46MOL   H52534815   2.716   0.597   6.400 -0.4414  0.8778  2.0882
   46MOL   H52634816   2.634   0.613   6.238 -0.0409 -1.5623  1.0749
   46MOL   H52734817   2.466   0.633   6.435 -2.2881  2.3240  1.1645
   46MOL   H52834818   2.558   0.750   6.503 -0.1933 -2.7171  1.0879
   46MOL   H52934819   2.518   0.897   6.292  0.3799  0.9816  1.8453
   46MOL   H53034820   2.430   0.770   6.229  0.7020  0.9541 -0.5555
   46MOL   H53134821   2.350   0.909   6.480 -0.2123 -1.1653  0.4800
   46MOL   H53234822   2.258   0.784   6.396 -0.7920  0.8266  1.1124
   46MOL   H53334823   2.236   0.941   6.200  0.5491 -2.3782 -0.5381
   46MOL   C53434824   2.257   1.094   6.317  0.9490  0.2693  0.5101
   46MOL   O53534825   2.285   1.149   6.421  0.1167  0.5757 -0.5383
   46MOL   C53634826   2.205   1.170   6.193  0.2465  0.6377 -1.1625
   46MOL   C53734827   2.160   1.311   6.228  0.5355  0.4679  0.2473
   46MOL   C53834828   2.116   1.398   6.114  0.0512 -0.1103  0.3259
   46MOL   C53934829   2.017   1.505   6.146 -0.1487 -0.8948 -0.3820
   46MOL   C54034830   1.877   1.469   6.194  0.2498 -0.2459  0.8478
   46MOL   O54134831   1.835   1.355   6.198  0.8042  0.7177  0.3607
   46MOL   N54234832   1.797   1.574   6.224 -0.0178  0.1916  0.0562
   46MOL   C54334833   1.678   1.546   6.296  0.0076 -0.3523 -0.5585
   46MOL   C54434834   1.593   1.670   6.307  1.0434  0.6397  1.1135
   46MOL   C54534835   1.477   1.651   6.403 -0.0433 -0.2826 -0.1291
   46MOL   C54634836   1.412   1.785   6.450 -0.0390  0.1780 -1.1769
   46MOL   C54734837   1.342   1.854   6.328 -0.0337 -0.1640 -0.1189
   46MOL   C54834838   1.297   2.000   6.357 -0.3315  0.4398  0.1196
   46MOL   N54934839   1.303   2.074   6.235  0.1210 -0.3223  0.3149
   46MOL   H55034840   2.277   1.168   6.111  1.2115 -1.8180 -0.2979
   46MOL   H55134841   2.116   1.115   6.161  2.3547 -1.3344 -3.8918
   46MOL   H55234842   2.085   1.310   6.307  0.8094 -0.4755  0.5074
   46MOL   H55334843   2.244   1.357   6.281  0.3733  0.0088  0.9117
   46MOL   H55434844   2.061   1.332   6.047 -1.1110  0.3466  0.8232
   46MOL   H55534845   2.203   1.435   6.059  1.9165  1.2122  4.0137
   46MOL   H55634846   2.002   1.568   6.059  0.6744 -0.4789 -0.2333
   46MOL   H55734847   2.059   1.568   6.225 -1.9993 -0.6822  0.4482
   46MOL   H55834848   1.835   1.667   6.230  1.7816 -0.5533  0.6812
   46MOL   H55934849   1.625   1.470   6.237 -0.3848 -0.8977  0.4861
   46MOL   H56034850   1.695   1.499   6.393 -2.1197  0.5551  0.2867
   46MOL   H56134851   1.661   1.743   6.351  1.7730  0.7731 -0.2067
   46MOL   H56234852   1.567   1.706   6.208 -3.0292 -0.4666  1.7031
   46MOL   H56334853   1.519   1.597   6.488 -0.0903  0.4769  0.3859
   46MOL   H56434854   1.405   1.589   6.350 -0.7029 -1.5105  2.1301
   46MOL   H56534855   1.334   1.751   6.518 -1.1910  1.0109 -2.0386
   46MOL   H56634856   1.480   1.848   6.506 -2.1726  1.1936  0.3434
   46MOL   H56734857   1.412   1.846   6.245 -0.0244 -2.8623  0.0988
   46MOL   H56834858   1.252   1.800   6.300 -0.1135 -1.2122  2.0081
   46MOL   H56934859   1.358   2.055   6.429  0.5459  0.2078 -0.4466
   46MOL   H57034860   1.196   1.991   6.398  0.8950  0.7237  3.3674
   46MOL   H57134861   1.367   2.152   6.233 -2.2626  1.6716 -0.2881
   46MOL   C57234862   1.204   2.071   6.141 -0.3942  0.1444  0.5505
   46MOL   O57334863   1.109   1.994   6.154  0.7408  0.1374  0.3684
   46MOL   C57434864   1.222   2.158   6.019 -0.0968  0.0672  0.1105
   46MOL   C57534865   1.276   2.095   5.887 -0.4673 -0.4151 -0.0112
   46MOL   C57634866   1.214   2.149   5.764  0.0541  0.0331  0.6599
   46MOL   C57734867   1.257   2.290   5.714 -0.9887  0.2507 -0.5721
   46MOL   C57834868   1.189   2.324   5.586  0.0071  0.1491  0.7522
   46MOL   O57934869   1.207   2.254   5.480  0.1120 -0.1634 -0.2243
   46MOL   N58034870   1.093   2.418   5.591  0.2829  0.0797  0.1529
   46MOL   C58134871   0.997   2.445   5.485  0.4163  0.6337  0.1439
   46MOL   C58234872   0.855   2.493   5.537 -0.1202  0.0332  0.5607
   46MOL   C58334873   0.762   2.529   5.412  0.7382 -0.3300  0.0245
   46MOL   C58434874   0.616   2.563   5.433 -0.1785  0.5313 -0.6733
   46MOL   C58534875   0.531   2.594   5.306 -0.1419 -0.3448  0.0432
   46MOL   C58634876   0.525   2.478   5.209 -0.7426  0.2592  0.1593
   46MOL   N58734877   0.481   2.352   5.257  0.6506  0.0041 -0.2311
   46MOL   H58834878   1.120   2.184   5.991 -0.2470  1.1499  1.5795
   46MOL   H58934879   1.269   2.255   6.039  1.6020 -0.7059 -0.0405
   46MOL   H59034880   1.382   2.121   5.883 -0.8234  0.9170 -1.1000
   46MOL   H59134881   1.266   1.986   5.882  1.2091 -0.5668 -0.2242
   46MOL   H59234882   1.107   2.136   5.747 -0.0375  2.8881 -1.2919
   46MOL   H59334883   1.262   2.079   5.695  1.6040  0.7271  1.0142
   46MOL   H59434884   1.366   2.286   5.709 -1.0022 -1.0941 -0.0171
   46MOL   H59534885   1.228   2.348   5.802 -3.0780 -2.5345  0.6789
   46MOL   H59634886   1.079   2.467   5.678  1.3572  2.1377 -0.7884
   46MOL   H59734887   1.030   2.531   5.428 -1.7334  1.2192 -0.2582
   46MOL   H59834888   0.982   2.362   5.416 -1.0569 -1.4288  2.8057
   46MOL   H59934889   0.798   2.414   5.586  1.2697 -1.8627 -0.7613
   46MOL   H60034890   0.861   2.584   5.597 -1.2149  0.5622 -0.1149
   46MOL   H60134891   0.765   2.441   5.348  1.9825  0.5797 -1.2026
   46MOL   H60234892   0.814   2.608   5.359 -0.3596 -0.4842 -1.3017
   46MOL   H60334893   0.570   2.482   5.489  0.0272  1.7291  1.2668
   46MOL   H60434894   0.606   2.651   5.497  1.5011 -0.4949  1.0762
   46MOL   H60534895   0.428   2.610   5.337 -0.6166 -2.7640 -0.1769
   46MOL   H60634896   0.566   2.681   5.251  0.5509  1.3483  3.0026
   46MOL   H60734897   0.626   2.456   5.173 -1.1732 -0.6292 -0.5164
   46MOL   H60834898   0.473   2.500   5.116  2.2519  0.5128 -1.5441
   46MOL   H60934899   0.548   2.279   5.275 -0.3938 -1.1020 -0.7126
   46MOL   C61034900   0.349   2.326   5.271  0.7743  0.2343 -0.3057
   46MOL   O61134901   0.263   2.418   5.266 -0.1713 -0.3418  0.4268
   46MOL   C61234902   0.310   2.180   5.324 -0.8028 -0.1729  0.7706
   46MOL   C61334903   0.245   2.178   5.461 -0.5582  0.0105  0.2379
   46MOL   C61434904   0.098   2.233   5.475  0.3341  0.7568  0.3006
   46MOL   C61534905   0.042   2.244   5.621  0.9074 -0.0587 -0.7149
   46MOL   C61634906   7.603   2.268   5.633  0.3231  0.0430 -0.8992
   46MOL   O61734907   7.527   2.178   5.594  0.0159 -0.3226 -0.4854
   46MOL   N61834908   7.567   2.390   5.682 -0.5377 -0.3468 -0.5738
   46MOL   C61934909   7.429   2.431   5.711  0.3698 -0.0623  0.0126
   46MOL   C62034910   7.428   2.578   5.733  0.6274  0.2972  0.8767
   46MOL   C62134911   7.297   2.634   5.794  0.1999  0.2087 -0.9335
   46MOL   C62234912   7.180   2.633   5.704  0.9921 -0.7633  0.4630
   46MOL   C62334913   7.084   2.523   5.726  1.0921  0.0869 -0.3916
   46MOL   C62434914   6.947   2.554   5.662  1.1729 -0.0240  0.7856
   46MOL   N62534915   6.866   2.431   5.661  0.1610  0.5877  0.5180
   46MOL   H62634916   0.241   2.137   5.252  0.0219 -0.8927  0.4019
   46MOL   H62734917   0.396   2.113   5.322 -0.6821 -0.1182  2.7441
   46MOL   H62834918   0.241   2.079   5.506 -4.8548 -0.2258 -0.4621
   46MOL   H62934919   0.307   2.227   5.537  1.4959 -0.5273 -1.0451
   46MOL   H63034920   0.042   2.171   5.405  2.5658 -0.0860 -0.8005
   46MOL   H63134921   0.090   2.322   5.413  0.5346 -0.3307 -1.3336
   46MOL   H63234922   0.094   2.322   5.676  1.8568 -0.6926 -0.6994
   46MOL   H63334923   0.059   2.148   5.669  0.0748  0.0029 -0.2906
   46MOL   H63434924   7.634   2.465   5.683 -1.0957  0.1868 -2.1342
   46MOL   H63534925   7.366   2.400   5.629  0.0295 -0.3911  0.3944
   46MOL   H63634926   7.406   2.375   5.802  1.6452 -1.4656 -0.5293
   46MOL   H63734927   7.509   2.609   5.799  1.0596  1.0671 -0.0216
   46MOL   H63834928   7.443   2.636   5.642 -0.4287 -0.1067  0.4328
   46MOL   H63934929   7.308   2.731   5.842  1.0628  0.0523 -0.7998
   46MOL   H64034930   7.275   2.575   5.883  3.3233 -0.2400 -0.3948
   46MOL   H64134931   7.125   2.726   5.719 -1.0965 -1.5718 -1.6555
   46MOL   H64234932   7.210   2.632   5.599 -2.2931  3.3977 -0.6778
   46MOL   H64334933   7.125   2.430   5.689  0.2848 -0.1319 -0.7429
   46MOL   H64434934   7.071   2.513   5.834  2.6126  2.2787  0.0295
   46MOL   H64534935   6.959   2.602   5.565 -0.8318 -1.5968 -0.2878
   46MOL   H64634936   6.885   2.617   5.727 -1.7946 -0.8384 -1.1582
   46MOL   H64734937   6.871   2.372   5.742 -1.7972  0.0330  0.2552
   46MOL   C64834938   6.778   2.398   5.567 -0.1113  0.3156 -0.4963
   46MOL   O64934939   6.739   2.476   5.482  0.3822  0.4640  0.7329
   46MOL   C65034940   6.732   2.258   5.573  0.3438 -0.6679  0.4869
   46MOL   C65134941   6.608   2.237   5.661 -0.3643  0.4850 -1.1843
   46MOL   C65234942   6.620   2.244   5.821  0.1329  0.8187 -0.1898
   46MOL   C65334943   6.682   2.111   5.886 -0.0558  0.7378 -0.1503
   46MOL   C65434944   6.831   2.101   5.872 -0.1925  0.3082  0.4064
   46MOL   O65534945   6.892   2.206   5.886 -0.4307 -0.3464 -0.0418
   46MOL   N65634946   6.885   1.982   5.853 -0.7794  0.2966  0.4201
   46MOL   C65734947   7.026   1.951   5.835  0.0503  0.2695  0.0947
   46MOL   C65834948   7.054   1.885   5.698  0.4908  0.7104 -0.8729
   46MOL   C65934949   7.041   1.973   5.574 -0.1504 -0.4537  0.1678
   46MOL   C66034950   7.174   2.055   5.548  0.3273  0.5354  0.3925
   46MOL   C66134951   7.169   2.115   5.401 -0.3028  0.2743  0.1757
   46MOL   C66234952   7.062   2.229   5.375  0.2313 -0.5684  0.6920
   46MOL   N66334953   7.112   2.302   5.258  0.3403  0.6463  0.4472
   46MOL   H66434954   6.704   2.220   5.475  2.7674  2.0117 -1.3594
   46MOL   H66534955   6.805   2.187   5.611  0.2403 -1.0690 -0.0571
   46MOL   H66634956   6.524   2.300   5.635 -1.4892  0.2307  1.6794
   46MOL   H66734957   6.561   2.140   5.644  0.0148 -0.2290  1.5362
   46MOL   H66834958   6.516   2.236   5.852 -0.2382 -1.6913 -1.8630
   46MOL   H66934959   6.662   2.332   5.868  0.1627  1.3069 -1.1123
   46MOL   H67034960   6.641   2.015   5.853  0.4364 -0.1944  1.8991
   46MOL   H67134961   6.672   2.103   5.994  1.5587 -2.8714 -0.2037
   46MOL   H67234962   6.814   1.910   5.846  0.4451 -1.2214  3.0071
   46MOL   H67334963   7.082   2.042   5.858  1.0401  0.2661 -2.2083
   46MOL   H67434964   7.052   1.875   5.909  2.6642  0.3257 -0.7276
   46MOL   H67534965   7.150   1.833   5.703  1.3309  2.2428 -0.6477
   46MOL   H67634966   6.985   1.803   5.681  0.8132  0.4251 -0.8314
   46MOL   H67734967   6.951   2.034   5.574 -0.1374 -0.4349  0.1003
   46MOL   H67834968   7.025   1.907   5.488  0.5632 -0.4597  0.0388
   46MOL   H67934969   7.178   2.137   5.621  0.3896  1.7510 -0.9490
   46MOL   H68034970   7.259   1.988   5.560 -0.5981 -0.7426 -0.0944
   46MOL   H68134971   7.266   2.160   5.382 -1.3070  2.7357  0.7339
   46MOL   H68234972   7.163   2.036   5.326 -0.0904  0.5549 -0.1403
   46MOL   H68334973   7.060   2.287   5.467  3.5470  0.3008  0.2501
   46MOL   H68434974   6.966   2.178   5.366  0.1932 -0.4979  0.6950
   46MOL   H68534975   7.174   2.377   5.284  0.1134  0.9662  0.0784
   46MOL   C68634976   7.084   2.287   5.128 -0.2614  0.4522 -0.2530
   46MOL   O68734977   6.995   2.209   5.093 -0.4257  0.2762  0.0561
   46MOL   C68834978   7.174   2.360   5.026 -0.0961 -0.1741 -0.2282
   46MOL   C68934979   7.258   2.254   4.941  0.2688  0.1620 -0.5380
   46MOL   C69034980   7.385   2.297   4.861 -0.7569  0.1756  0.2594
   46MOL   C69134981   7.439   2.192   4.762  0.2753 -0.5882  0.0594
   46MOL   C69234982   7.389   2.205   4.612 -0.0846  0.7968 -0.6173
   46MOL   O69334983   7.425   2.293   4.535  0.0989 -0.7521 -0.1453
   46MOL   N69434984   7.293   2.117   4.575 -0.0634  0.2166  0.2705
   46MOL   C69534985   7.250   2.100   4.434  0.1551 -0.4943 -0.0252
   46MOL   C69634986   7.154   1.989   4.422  0.2342 -0.2373  0.1983
   46MOL   C69734987   7.086   1.973   4.285 -0.0876  1.0858 -0.9539
   46MOL   C69834988   7.188   1.937   4.172 -0.2741  0.0498 -0.1560
   46MOL   C69934989   7.261   1.804   4.172  0.4552 -0.5151  0.3550
   46MOL   C70034990   7.346   1.777   4.044  1.1579  0.2117 -0.5557
   46MOL   N70134991   7.413   1.650   4.055  0.2395 -0.3716 -0.1148
   46MOL   H70234992   7.124   2.420   4.950 -0.3168 -0.1179 -0.0391
   46MOL   H70334993   7.235   2.425   5.088 -0.2543  0.6697 -0.9527
   46MOL   H70434994   7.289   2.168   5.001 -0.7017 -0.7917 -1.3708
   46MOL   H70534995   7.182   2.218   4.872  0.7336 -0.6113 -0.6513
   46MOL   H70634996   7.464   2.325   4.931 -0.4028 -4.9450  2.1887
   46MOL   H70734997   7.367   2.387   4.802  1.5502  0.9014  0.5959
   46MOL   H70834998   7.435   2.088   4.793  0.9417 -0.8052 -0.5708
   46MOL   H70934999   7.548   2.202   4.763  0.2947 -0.8060  0.0581
   46MOL   H71035000   7.264   2.049   4.645  2.3768 -0.2889  0.8405
   46MOL   H71135001   7.204   2.194   4.407 -1.0541 -1.0604  0.0476
   46MOL   H71235002   7.336   2.079   4.370  0.3859  0.4414 -0.0230
   46MOL   H71335003   7.188   1.890   4.455  1.3056 -0.1957 -0.7501
   46MOL   H71435004   7.070   1.997   4.491 -1.8227 -0.6349 -2.1526
   46MOL   H71535005   7.038   2.067   4.259 -0.5903  0.7387 -1.2943
   46MOL   H71635006   7.004   1.901   4.293 -0.0005  0.9765 -1.0416
   46MOL   H71735007   7.142   1.943   4.073 -0.8639 -0.3170  0.0964
   46MOL   H71835008   7.257   2.021   4.173  2.6885 -2.2916 -1.4630
   46MOL   H71935009   7.320   1.794   4.263 -0.4483  2.7928  1.3602
   46MOL   H72035010   7.187   1.725   4.188 -0.9303  0.8097  0.5614
   46MOL   H72135011   7.416   1.860   4.040  0.7206  0.7261  1.7852
   46MOL   H72235012   7.288   1.780   3.951  0.6345 -2.2579 -0.3340
   46MOL   H72335013   7.378   1.588   4.128  0.1014 -1.0483 -0.7497
   46MOL   C72435014   7.496   1.601   3.958 -0.3439 -0.4016 -0.1381
   46MOL   O72535015   7.541   1.672   3.871  0.1359 -0.0734  0.1444
   46MOL   C72635016   7.540   1.453   3.973  0.1640  0.6294 -0.0126
   46MOL   C72735017   7.670   1.445   4.044 -0.4005 -0.3342 -0.3701
   46MOL   C72835018   0.005   1.297   4.077 -0.3634 -0.1289  0.2235
   46MOL   C72935019   0.028   1.202   3.953  0.0108 -0.3042 -0.3197
   46MOL   C73035020   0.163   1.221   3.886 -0.4578  0.6768 -0.4437
   46MOL   O73135021   0.221   1.328   3.873  0.6198 -0.1454  0.5148
   46MOL   N73235022   0.204   1.118   3.812 -0.3737 -0.7416  0.1769
   46MOL   C73335023   0.321   1.123   3.731 -0.5032  0.6165 -0.0835
   46MOL   C73435024   0.457   1.109   3.807 -0.2424 -0.1216  0.7650
   46MOL   C73535025   0.571   1.108   3.711  0.0769 -0.3812 -0.0142
   46MOL   C73635026   0.700   1.103   3.785 -0.3025 -0.1120  0.3063
   46MOL   C73735027   0.816   1.121   3.693  0.0630 -0.1128 -0.6003
   46MOL   C73835028   0.846   1.007   3.600  0.5122  0.7016  0.1797
   46MOL   N73935029   0.955   1.021   3.515 -0.0385 -0.3404  0.2542
   46MOL   H74035030   7.467   1.395   4.029  1.2873 -0.8642 -0.0607
   46MOL   H74135031   7.552   1.404   3.876  0.2444  0.6999 -0.0377
   46MOL   H74235032   0.040   1.480   3.977  0.3685 -0.9691  0.1878
   46MOL   H74335033   7.670   1.506   4.135  1.2674 -0.8111 -0.0377
   46MOL   H74435034   7.650   1.244   4.149 -2.2608  1.5143 -0.1637
   46MOL   H74535035   0.102   1.301   4.125 -0.1943  1.4246 -0.2442
   46MOL   H74635036   7.659   1.227   3.881  0.2855 -1.9593 -1.2132
   46MOL   H74735037   0.012   1.097   3.978 -2.5743  0.4709  1.5113
   46MOL   H74835038   0.138   1.042   3.799  2.0234 -3.0421  1.0120
   46MOL   H74935039   0.298   1.039   3.664 -4.0341  1.1193  0.4184
   46MOL   H75035040   0.318   1.216   3.674  1.5957  0.0057 -1.2480
   46MOL   H75135041   0.456   1.193   3.876  1.0360  1.0864 -0.6586
   46MOL   H75235042   0.458   1.017   3.866 -0.7107 -0.4973  0.1962
   46MOL   H75335043   0.558   1.203   3.659 -0.8903 -1.0084 -0.9267
   46MOL   H75435044   0.571   1.037   3.629  0.1164 -1.4730  0.9184
   46MOL   H75535045   0.714   1.167   3.872  1.8202 -1.6812  1.1747
   46MOL   H75635046   0.698   1.006   3.835  1.8575 -0.1844  0.3148
   46MOL   H75735047   0.783   1.215   3.649  1.5068  0.9527  0.5321
   46MOL   H75835048   0.910   1.146   3.742 -0.5939 -0.0727  0.6425
   46MOL   H75935049   0.758   0.997   3.536  0.5043  2.5747 -0.1415
   46MOL   H76035050   0.846   0.912   3.653 -0.9024 -1.2045 -3.0453
   46MOL   H76135051   0.988   0.939   3.466 -1.5278 -0.8082  0.0322
   46MOL   H76235052   0.920   1.081   3.442 -1.9149  0.0884  1.4568
   47MOL     C135053   4.270   3.140   1.403  0.4802 -0.5257  0.1527
   47MOL     O235054   4.250   3.235   1.484  0.3310 -0.2355 -0.6176
   47MOL     C335055   4.355   3.159   1.273 -1.2118 -0.9244 -0.5001
   47MOL     C435056   4.327   3.294   1.201  0.3398  0.1263 -0.0381
   47MOL     C535057   4.414   3.414   1.234  0.2766  0.2270 -0.0678
   47MOL     C635058   4.354   3.545   1.186 -0.6253 -0.3482  1.2660
   47MOL     C735059   4.239   3.602   1.269 -0.2902 -0.3797  0.2177
   47MOL     O835060   4.246   3.591   1.387 -0.2512 -0.3685  0.3113
   47MOL     N935061   4.144   3.671   1.204  0.0759  0.0414  0.3214
   47MOL    C1035062   4.030   3.744   1.265  0.3852  0.2823 -0.1173
   47MOL    C1135063   4.062   3.890   1.299 -0.0243 -0.4200 -0.4576
   47MOL    C1235064   4.086   3.986   1.183  0.2976  0.2575 -0.0963
   47MOL    C1335065   4.112   4.137   1.215  0.4902 -0.4378 -0.6546
   47MOL    C1435066   4.204   4.156   1.337 -0.8352 -0.0052 -0.6028
   47MOL    C1535067   4.267   4.295   1.355 -0.2935  0.1234 -0.2969
   47MOL    N1635068   4.336   4.312   1.481  0.3671 -0.0120 -0.3869
   47MOL    H1735069   4.462   3.150   1.294 -1.3990 -0.1288  0.8370
   47MOL    H1835070   4.334   3.081   1.200 -0.7497 -0.1938 -1.4122
   47MOL    H1935071   4.323   3.271   1.095 -2.1757  0.7492 -0.1245
   47MOL    H2035072   4.222   3.318   1.221 -0.6969 -1.1436 -3.6339
   47MOL    H2135073   4.510   3.403   1.184 -0.1172 -2.6883 -0.2700
   47MOL    H2235074   4.433   3.421   1.341 -0.7409 -4.0990  0.5064
   47MOL    H2335075   4.319   3.549   1.083  2.5720  0.2189  0.1645
   47MOL    H2435076   4.435   3.616   1.202  0.0095 -0.7109 -0.2782
   47MOL    H2535077   4.139   3.654   1.105  2.1325 -0.3558  0.2608
   47MOL    H2635078   3.949   3.730   1.194 -0.7974  0.5035  1.1731
   47MOL    H2735079   4.002   3.706   1.364 -1.3458 -2.0220 -1.4317
   47MOL    H2835080   3.989   3.945   1.358 -0.1336  0.2727 -1.2226
   47MOL    H2935081   4.148   3.881   1.365 -1.6342 -1.6513  1.4947
   47MOL    H3035082   4.026   3.971   1.093  0.3720  0.3917 -0.1689
   47MOL    H3135083   4.174   3.946   1.133 -0.6551 -0.9130 -0.8594
   47MOL    H3235084   4.164   4.181   1.129  0.0153  0.3138 -0.5573
   47MOL    H3335085   4.016   4.183   1.238  1.0270  1.0144 -1.2580
   47MOL    H3435086   4.149   4.136   1.430  0.3560 -1.2964 -0.1600
   47MOL    H3535087   4.284   4.082   1.329 -0.4973  0.4610 -1.5363
   47MOL    H3635088   4.192   4.373   1.344 -0.9851 -0.9005 -3.1620
   47MOL    H3735089   4.340   4.302   1.274 -0.2650  1.5197 -0.1641
   47MOL    H3835090   4.381   4.227   1.511  0.5729 -0.4845 -1.9575
   47MOL    H3935091   4.248   3.035   1.418 -0.6744 -0.4003 -0.6270
   47MOL    C4035092   4.340   4.426   1.554 -0.6491 -0.7894  0.0014
   47MOL    O4135093   4.302   4.531   1.507 -0.2238 -0.1392 -0.2939
   47MOL    C4235094   4.375   4.402   1.700 -0.1518  0.0328  0.5968
   47MOL    C4335095   4.352   4.519   1.798  0.0301  0.6985  0.4482
   47MOL    C4435096   4.388   4.499   1.945 -0.4065  0.2946  0.0325
   47MOL    C4535097   4.324   4.370   2.000 -0.2132 -0.7308 -0.6893
   47MOL    C4635098   4.386   4.356   2.141 -0.4420 -0.1047 -0.1740
   47MOL    O4735099   4.361   4.439   2.227 -0.1635 -0.2874  0.1521
   47MOL    N4835100   4.478   4.254   2.156  0.1496  0.4143 -0.5049
   47MOL    C4935101   4.567   4.255   2.273 -0.8496  0.5876 -0.2546
   47MOL    C5035102   4.506   4.165   2.379 -0.6278 -0.8235 -0.0480
   47MOL    C5135103   4.589   4.154   2.507  0.0558  0.8535 -0.0783
   47MOL    C5235104   4.611   4.282   2.593  0.3637 -0.0557  0.2727
   47MOL    C5335105   4.682   4.247   2.723  0.2843  0.2496 -0.0167
   47MOL    C5435106   4.680   4.356   2.825  0.3353  0.0943  0.2702
   47MOL    N5535107   4.776   4.331   2.928 -0.2659 -0.2507 -0.6396
   47MOL    H5635108   4.309   4.319   1.728 -0.2144 -0.1120  0.0425
   47MOL    H5735109   4.475   4.364   1.716 -0.8702 -1.1255  2.5197
   47MOL    H5835110   4.415   4.596   1.754  0.1474 -1.0401 -2.5636
   47MOL    H5935111   4.248   4.548   1.813 -0.4825 -1.6893  1.7879
   47MOL    H6035112   4.366   4.591   2.000  1.0225  1.3894 -1.1693
   47MOL    H6135113   4.495   4.481   1.955 -0.8689 -2.4379  0.2801
   47MOL    H6235114   4.340   4.275   1.949  0.0030 -1.7681  1.2494
   47MOL    H6335115   4.220   4.394   2.017  0.2956  0.2193  1.1996
   47MOL    H6435116   4.496   4.195   2.076  3.2743 -2.3481  2.1061
   47MOL    H6535117   4.666   4.219   2.247 -0.6157  2.0658 -1.5157
   47MOL    H6635118   4.584   4.355   2.313  0.3310  0.2100  0.2068
   47MOL    H6735119   4.408   4.205   2.407 -0.1085  1.3973 -1.2811
   47MOL    H6835120   4.488   4.066   2.336 -0.6937 -0.9326  0.2327
   47MOL    H6935121   4.692   4.129   2.484 -0.4179 -0.5331 -0.7073
   47MOL    H7035122   4.555   4.066   2.563  2.1951 -1.0915 -1.7751
   47MOL    H7135123   4.672   4.354   2.538  0.8173 -1.8053 -1.5795
   47MOL    H7235124   4.515   4.328   2.616  0.0984 -1.3038  1.7440
   47MOL    H7335125   4.632   4.159   2.764  0.2435  0.9095  1.3768
   47MOL    H7435126   4.783   4.221   2.690 -0.6056  0.6194 -3.1290
   47MOL    H7535127   4.578   4.371   2.860  0.3754  2.2892 -0.4382
   47MOL    H7635128   4.714   4.447   2.776  1.3435  0.5628  1.7997
   47MOL    H7735129   4.819   4.240   2.938 -0.5776 -0.4848 -1.4062
   47MOL    C7835130   4.814   4.427   3.017 -0.9126  0.5378  0.1705
   47MOL    O7935131   4.760   4.536   3.025  0.0978  0.0160 -0.3711
   47MOL    C8035132   4.940   4.405   3.110 -0.3507 -0.3188 -0.4683
   47MOL    C8135133   4.901   4.409   3.260 -0.3245  0.1581  0.1176
   47MOL    C8235134   4.801   4.307   3.305 -0.6542 -0.1480 -0.4798
   47MOL    C8335135   4.778   4.323   3.452  0.1966  0.2554  0.4162
   47MOL    C8435136   4.894   4.274   3.538 -0.4430 -0.6069 -0.5006
   47MOL    O8535137   4.954   4.164   3.514  0.6394 -0.7456  0.5221
   47MOL    N8635138   4.935   4.356   3.635  0.1064 -0.1668  0.1061
   47MOL    C8735139   5.010   4.322   3.757 -0.3503  0.1629  0.5097
   47MOL    C8835140   5.144   4.401   3.772 -0.3202 -0.3308  0.1222
   47MOL    C8935141   5.229   4.349   3.893 -0.7525  0.8842  0.2151
   47MOL    C9035142   5.363   4.426   3.904 -0.6932 -0.4346  0.0004
   47MOL    C9135143   5.454   4.360   4.006  0.0221  0.3376 -0.4857
   47MOL    C9235144   5.597   4.420   4.007 -0.5028  0.3692 -0.0911
   47MOL    N9335145   5.596   4.567   3.987  0.0865 -0.2394  0.8166
   47MOL    H9435146   4.979   4.306   3.088 -0.0124  0.0731 -1.6296
   47MOL    H9535147   5.005   4.487   3.080 -0.6595  0.5420  1.1138
   47MOL    H9635148   4.994   4.387   3.313 -0.1693 -0.8256 -0.5547
   47MOL    H9735149   4.863   4.505   3.294 -0.5051 -0.5110  1.8650
   47MOL    H9835150   4.837   4.207   3.279  1.2231  0.7411 -1.4096
   47MOL    H9935151   4.705   4.321   3.255  0.7209  2.4459 -2.5471
   47MOL   H10035152   4.688   4.268   3.482 -0.1883  1.1185  0.8933
   47MOL   H10135153   4.753   4.429   3.467 -0.0930  0.2922 -0.3063
   47MOL   H10235154   4.910   4.454   3.630 -0.4978 -0.3206  0.1283
   47MOL   H10335155   4.942   4.335   3.841  0.2428 -0.7684  1.1437
   47MOL   H10435156   5.034   4.216   3.757 -0.4792  0.1342  0.5486
   47MOL   H10535157   5.204   4.395   3.681 -1.4288 -0.2695 -0.6266
   47MOL   H10635158   5.108   4.503   3.778  0.2596 -0.2172  1.9824
   47MOL   H10735159   5.242   4.242   3.883  0.4301  0.9230  1.2377
   47MOL   H10835160   5.162   4.373   3.975 -0.3620  2.0050  0.2184
   47MOL   H10935161   5.401   4.421   3.801  0.1676 -0.0269  0.2836
   47MOL   H11035162   5.334   4.529   3.927  2.1760  0.4840 -0.2444
   47MOL   H11135163   5.396   4.358   4.098 -0.7489 -0.9144 -0.9777
   47MOL   H11235164   5.453   4.257   3.969 -0.8839  0.3975 -0.6397
   47MOL   H11335165   5.665   4.384   3.930 -0.8673 -0.7448  0.0955
   47MOL   H11435166   5.647   4.380   4.096 -0.8865  3.2199  1.4488
   47MOL   H11535167   5.570   4.597   3.895 -1.5394 -1.0076  1.0106
   47MOL   C11635168   5.625   4.659   4.075 -0.1485  0.1810 -0.4623
   47MOL   O11735169   5.658   4.632   4.191 -0.3053  0.0111  0.1652
   47MOL   C11835170   5.592   4.799   4.025  0.3318  0.3168 -0.1040
   47MOL   C11935171   5.678   4.907   4.102 -0.1685  0.5161 -0.2179
   47MOL   C12035172   5.632   5.043   4.046  0.0087 -0.1119 -0.9057
   47MOL   C12135173   5.502   5.081   4.123 -0.0698  0.1668  0.2501
   47MOL   C12235174   5.466   5.228   4.094 -0.6046 -0.1224 -0.6489
   47MOL   O12335175   5.473   5.273   3.976  0.0504  0.2371  0.3423
   47MOL   N12435176   5.426   5.304   4.198 -0.5474  0.6333  0.5879
   47MOL   C12535177   5.380   5.443   4.198  0.2309  0.8147  0.8309
   47MOL   C12635178   5.273   5.470   4.308  0.6069 -0.1154  0.6409
   47MOL   C12735179   5.243   5.622   4.309 -0.0771 -0.0848  0.1813
   47MOL   C12835180   5.208   5.676   4.441 -0.6723  0.0951  0.3695
   47MOL   C12935181   5.321   5.683   4.549  0.6078  0.2005 -1.0570
   47MOL   C13035182   5.278   5.772   4.671  0.2588  0.1582  0.3980
   47MOL   N13135183   5.174   5.710   4.748  0.1776 -0.0662 -1.3107
   47MOL   H13235184   5.622   4.808   3.920  0.9585 -0.1884  0.0276
   47MOL   H13335185   5.485   4.813   4.036  0.3929  0.9651 -0.2894
   47MOL   H13435186   5.656   4.897   4.208  1.7844  0.2100  0.1805
   47MOL   H13535187   5.782   4.888   4.075  0.0911  0.3154  0.8928
   47MOL   H13635188   5.622   5.049   3.938 -0.7948 -2.7123 -0.9980
   47MOL   H13735189   5.705   5.118   4.077 -1.7230  1.0843  0.3500
   47MOL   H13835190   5.515   5.078   4.232 -1.7933  1.3163  0.5047
   47MOL   H13935191   5.414   5.020   4.103 -1.0105  0.2997  3.6348
   47MOL   H14035192   5.453   5.262   4.286 -0.0444  0.4093  0.3284
   47MOL   H14135193   5.467   5.508   4.212  1.7959 -0.6913 -1.6930
   47MOL   H14235194   5.345   5.468   4.098  0.6695 -1.9401 -0.0477
   47MOL   H14335195   5.184   5.413   4.283 -0.3578  2.0201 -0.9606
   47MOL   H14435196   5.288   5.435   4.410  0.7613 -1.8737  0.0207
   47MOL   H14535197   5.150   5.631   4.252 -0.3407 -1.1479  0.4150
   47MOL   H14635198   5.312   5.683   4.252  0.2347 -0.6658 -0.0745
   47MOL   H14735199   5.165   5.775   4.428  1.4155  0.9013 -0.5355
   47MOL   H14835200   5.132   5.608   4.481  0.7461 -0.8998  1.3972
   47MOL   H14935201   5.352   5.585   4.586 -1.0487  0.1079  0.1186
   47MOL   H15035202   5.410   5.731   4.508 -0.1615  1.5553 -1.1995
   47MOL   H15135203   5.238   5.865   4.630  0.2267 -0.0351 -0.0089
   47MOL   H15235204   5.356   5.805   4.739  2.0346 -1.6715 -0.7133
   47MOL   H15335205   5.080   5.748   4.745 -0.1173 -0.8336 -2.2042
   47MOL   C15435206   5.181   5.606   4.833 -0.0535 -0.3116 -0.1097
   47MOL   O15535207   5.284   5.534   4.843  0.1764 -0.1482  0.0984
   47MOL   C15635208   5.065   5.573   4.918  0.0557 -0.8312  0.2022
   47MOL   C15735209   4.966   5.484   4.856 -0.2390  0.3973  0.2214
   47MOL   C15835210   4.822   5.519   4.889  0.6810  0.2801  0.2794
   47MOL   C15935211   4.723   5.412   4.845  0.7955 -0.7107  0.1331
   47MOL   C16035212   4.726   5.271   4.916 -0.9442 -0.1667  0.9138
   47MOL   O16135213   4.743   5.264   5.030 -0.7803  0.3114 -0.3756
   47MOL   N16235214   4.714   5.161   4.838  0.5354 -0.2062  0.4127
   47MOL   C16335215   4.683   5.032   4.889 -0.4126 -0.1686 -0.2247
   47MOL   C16435216   4.567   4.962   4.810 -0.3984  0.0972 -0.1796
   47MOL   C16535217   4.515   4.830   4.866 -0.2855 -0.0735  0.1991
   47MOL   C16635218   4.411   4.765   4.781 -0.1464  0.0711 -0.4850
   47MOL   C16735219   4.329   4.655   4.852  0.5080  0.1578  0.6356
   47MOL   C16835220   4.237   4.716   4.957 -0.1990 -0.0824 -0.0353
   47MOL   N16935221   4.147   4.617   5.005 -0.5583 -0.4027  0.1992
   47MOL   H17035222   5.102   5.541   5.016  0.7700  2.1372  0.9742
   47MOL   H17135223   5.023   5.672   4.934  1.7973  0.1821 -1.2981
   47MOL   H17235224   4.971   5.473   4.747  2.1806  1.3910  0.2091
   47MOL   H17335225   4.991   5.382   4.883  0.9870  0.2561 -1.3584
   47MOL   H17435226   4.800   5.618   4.849 -0.6246 -0.8161 -1.7895
   47MOL   H17535227   4.824   5.528   4.998 -0.2260  0.4442  0.2893
   47MOL   H17635228   4.711   5.398   4.737 -1.1799 -0.8999  0.3627
   47MOL   H17735229   4.624   5.454   4.863  0.7383 -0.3941 -0.8852
   47MOL   H17835230   4.726   5.166   4.738 -0.5595 -2.7197  0.1299
   47MOL   H17935231   4.769   4.964   4.885 -1.0250 -0.9226 -0.9606
   47MOL   H18035232   4.669   5.029   4.997  3.1891  2.7250  0.4288
   47MOL   H18135233   4.481   5.029   4.807  0.2255  0.9408  0.4442
   47MOL   H18235234   4.589   4.940   4.706 -1.2815  1.3128 -0.6295
   47MOL   H18335235   4.471   4.847   4.965 -0.7476 -0.3366  0.0371
   47MOL   H18435236   4.594   4.756   4.875  1.9525  2.0354 -1.3943
   47MOL   H18535237   4.339   4.839   4.746 -0.9251 -0.1842  0.5806
   47MOL   H18635238   4.444   4.713   4.691  0.3378 -2.0752  0.8948
   47MOL   H18735239   4.268   4.608   4.775  0.6948 -1.7808  1.6437
   47MOL   H18835240   4.387   4.578   4.903 -0.3808 -0.5782  0.5527
   47MOL   H18935241   4.188   4.799   4.906  1.6034  2.4434  2.2256
   47MOL   H19035242   4.282   4.751   5.049 -2.1945  0.1414  0.8911
   47MOL   H19135243   4.173   4.556   5.081  0.2742  1.2266  1.2619
   47MOL   C19235244   4.023   4.617   4.958  0.2622  0.0137  0.6093
   47MOL   O19335245   3.983   4.689   4.869 -0.0360 -0.4216  0.0535
   47MOL   C19435246   3.930   4.499   5.002  0.6088 -0.6496  0.1010
   47MOL   C19535247   3.788   4.515   4.951  0.3659  0.6889  0.3684
   47MOL   C19635248   3.695   4.400   4.985  0.5654 -0.0353  0.0881
   47MOL   C19735249   3.618   4.414   5.113 -0.1989 -0.8715 -0.4244
   47MOL   C19835250   3.715   4.396   5.232 -0.3722  0.5882 -0.1193
   47MOL   O19935251   3.770   4.288   5.243 -0.2983 -0.0561 -0.5979
   47MOL   N20035252   3.739   4.503   5.306  0.1964  0.5233 -0.6164
   47MOL   C20135253   3.823   4.503   5.425 -1.2113  0.4536 -0.7445
   47MOL   C20235254   3.740   4.545   5.549 -0.1074  0.1745  0.0187
   47MOL   C20335255   3.693   4.691   5.544 -0.0104  0.1038  1.1268
   47MOL   C20435256   3.696   4.765   5.680  0.0058 -0.3938 -0.4460
   47MOL   C20535257   3.615   4.698   5.788 -0.5373  0.2256 -0.2476
   47MOL   C20635258   3.464   4.674   5.745 -0.3683  0.3233  0.0860
   47MOL   N20735259   3.371   4.666   5.858  0.3310  0.5956 -0.1128
   47MOL   H20835260   3.973   4.408   4.961  2.6679  0.4697 -0.2618
   47MOL   H20935261   3.945   4.480   5.108  0.6235 -1.8575 -0.1107
   47MOL   H21035262   3.752   4.611   4.988  1.9826  1.1771  0.7410
   47MOL   H21135263   3.797   4.516   4.842  0.4212  0.7729  0.3742
   47MOL   H21235264   3.749   4.307   4.973  0.5057 -0.1301  0.5590
   47MOL   H21335265   3.622   4.402   4.904  1.2571 -2.3291 -0.6114
   47MOL   H21435266   3.530   4.350   5.118  0.7306 -2.2642 -1.5884
   47MOL   H21535267   3.581   4.516   5.122 -0.9225 -1.1063 -0.7301
   47MOL   H21635268   3.695   4.592   5.293 -1.6867  0.1448  2.6303
   47MOL   H21735269   3.876   4.411   5.451 -2.3657  0.1316  0.5863
   47MOL   H21835270   3.908   4.564   5.396 -1.3035  0.7342 -0.4288
   47MOL   H21935271   3.649   4.487   5.562  0.9412 -1.6349 -0.5620
   47MOL   H22035272   3.806   4.526   5.634  0.0936 -0.8311 -0.3563
   47MOL   H22135273   3.593   4.688   5.500  0.2973 -2.3251  0.5389
   47MOL   H22235274   3.746   4.745   5.466 -1.5275 -0.2566 -0.1938
   47MOL   H22335275   3.797   4.775   5.722  0.1089  0.5702 -0.9001
   47MOL   H22435276   3.653   4.865   5.673 -0.0164 -0.1905  2.0775
   47MOL   H22535277   3.671   4.610   5.818  1.6871  1.0883 -1.7591
   47MOL   H22635278   3.611   4.761   5.877 -0.3075  1.8270 -1.3516
   47MOL   H22735279   3.462   4.591   5.675  0.6892  0.9931 -0.7382
   47MOL   H22835280   3.440   4.754   5.675  0.4274 -0.7000 -1.3583
   47MOL   H22935281   3.392   4.604   5.935 -0.9007 -0.4670 -0.6025
   47MOL   C23035282   3.275   4.759   5.866  0.0496  0.0699 -0.3738
   47MOL   O23135283   3.235   4.836   5.776 -0.0302  0.0087 -0.3610
   47MOL   C23235284   3.193   4.757   5.996  0.2130 -0.2946  0.7535
   47MOL   C23335285   3.217   4.869   6.099  0.2966  0.0069  0.0281
   47MOL   C23435286   3.339   4.850   6.191 -0.6607  0.6416  0.7369
   47MOL   C23535287   3.346   4.735   6.288 -0.2884  0.0348  0.1443
   47MOL   C23635288   3.243   4.763   6.403 -0.6886  0.2302  0.6069
   47MOL   O23735289   3.128   4.722   6.401 -0.0734 -0.3089  0.7068
   47MOL   N23835290   3.282   4.843   6.503  0.0673 -0.8071 -0.4255
   47MOL   C23935291   3.418   4.880   6.538  0.0447 -0.4365 -0.0469
   47MOL   C24035292   3.419   4.894   6.694 -0.1101  0.3491 -0.2807
   47MOL   C24135293   3.545   4.945   6.768  0.4620  0.1848  0.3030
   47MOL   C24235294   3.525   4.951   6.919 -0.5064  0.0875  0.3571
   47MOL   C24335295   3.655   4.963   7.000  0.1294  0.2624  0.4769
   47MOL   C24435296   3.630   4.949   7.152 -0.1086 -0.3449 -0.0381
   47MOL   N24535297   3.759   4.937   7.213 -0.1727 -0.5547 -0.2545
   47MOL   H24635298   3.087   4.773   5.975  0.8000  1.3243 -1.1654
   47MOL   H24735299   3.185   4.657   6.038 -0.2645 -0.9431 -0.8475
   47MOL   H24835300   3.235   4.963   6.046  1.8484 -0.6334 -0.6047
   47MOL   H24935301   3.132   4.886   6.166  0.8744 -0.0574  0.7949
   47MOL   H25035302   3.374   4.945   6.233  0.0068  0.3357  0.8852
   47MOL   H25135303   3.421   4.831   6.121  0.4132  0.0204  2.1460
   47MOL   H25235304   3.448   4.714   6.317 -0.0695  3.6997  2.2303
   47MOL   H25335305   3.304   4.646   6.239 -1.1004  0.9278 -0.8165
   47MOL   H25435306   3.213   4.882   6.566 -0.7673 -0.4363 -1.5373
   47MOL   H25535307   3.491   4.803   6.511 -0.0110 -0.4998 -0.0159
   47MOL   H25635308   3.432   4.977   6.489 -1.0232 -0.6563 -0.8037
   47MOL   H25735309   3.342   4.965   6.727 -0.2972 -2.0326  4.8433
   47MOL   H25835310   3.397   4.797   6.737  0.2756  0.5056  0.2730
   47MOL   H25935311   3.568   5.047   6.736 -1.1969  0.5920  0.3411
   47MOL   H26035312   3.628   4.879   6.745 -1.9526 -2.2826 -1.8045
   47MOL   H26135313   3.466   5.041   6.934 -2.1131 -1.1525  1.7106
   47MOL   H26235314   3.468   4.866   6.959  0.3055 -1.3191 -1.3838
   47MOL   H26335315   3.732   4.891   6.972 -1.1645 -0.0713 -2.4260
   47MOL   H26435316   3.698   5.059   6.972 -1.0070  0.3229 -1.1460
   47MOL   H26535317   3.567   4.864   7.177  0.4254  0.0441  2.7914
   47MOL   H26635318   3.579   5.035   7.196  1.1550  0.4690 -0.1455
   47MOL   H26735319   3.827   5.011   7.200 -1.4584  1.1148  2.0955
   47MOL   C26835320   3.811   4.833   7.281  0.2635  0.1406 -1.1138
   47MOL   O26935321   3.737   4.742   7.323  0.0200 -0.0312 -0.0864
   47MOL   C27035322   3.957   4.820   7.315  0.1316  0.0065 -1.0816
   47MOL   C27135323   4.031   4.700   7.244  0.4751 -0.8597  0.1532
   47MOL   C27235324   4.070   4.711   7.095 -0.3210 -0.2534 -0.7567
   47MOL   C27335325   4.203   4.794   7.069  0.5320  0.6617 -0.1920
   47MOL   C27435326   4.323   4.730   7.135  0.0165  0.0129 -0.0592
   47MOL   O27535327   4.316   4.609   7.170  0.3399  0.6513  0.5962
   47MOL   N27635328   4.422   4.809   7.164 -0.2474  0.2355 -0.0190
   47MOL   C27735329   4.549   4.749   7.205  0.4715 -0.2324  0.6577
   47MOL   C27835330   4.622   4.663   7.093  0.5761  0.4491  0.3975
   47MOL   C27935331   4.764   4.634   7.147 -0.5338 -0.6734 -0.5196
   47MOL   C28035332   4.768   4.533   7.263  0.0626  0.0506 -0.2249
   47MOL   C28135333   4.673   4.414   7.270  0.1258  0.4382  0.4338
   47MOL   C28235334   4.722   4.295   7.189  0.0257  0.1642 -0.0215
   47MOL   N28335335   4.645   4.172   7.208  0.3060  0.5734 -0.6193
   47MOL   H28435336   4.009   4.914   7.300  0.0688 -0.0984 -1.9831
   47MOL   H28535337   3.969   4.797   7.421 -2.3077  1.5672 -0.4347
   47MOL   H28635338   4.107   4.647   7.303  0.4782  0.2034  1.1095
   47MOL   H28735339   3.967   4.612   7.241 -0.9506  0.0949  1.5867
   47MOL   H28835340   3.995   4.755   7.029 -2.6788  0.0841  2.0441
   47MOL   H28935341   4.084   4.612   7.053  1.2642 -0.6343  0.6094
   47MOL   H29035342   4.187   4.891   7.116  0.7449  0.7204 -0.2424
   47MOL   H29135343   4.217   4.810   6.962  3.0060 -0.1259 -0.0207
   47MOL   H29235344   4.411   4.908   7.150  0.3436  0.2183 -0.6556
   47MOL   H29335345   4.608   4.837   7.228  0.4118  0.0357 -0.1933
   47MOL   H29435346   4.543   4.708   7.306 -1.4015 -0.9943  0.2622
   47MOL   H29535347   4.566   4.574   7.065  1.6483 -0.1154  0.0280
   47MOL   H29635348   4.629   4.729   7.006 -1.6462  1.1043  0.6738
   47MOL   H29735349   4.815   4.720   7.190  0.9991 -2.0113  0.4189
   47MOL   H29835350   4.831   4.599   7.069  1.2956  2.7366 -0.5808
   47MOL   H29935351   4.871   4.501   7.282 -0.0787  0.5098  1.3668
   47MOL   H30035352   4.743   4.593   7.351  0.2269 -0.4460  0.1620
   47MOL   H30135353   4.672   4.383   7.374 -2.4504 -0.1467  0.2706
   47MOL   H30235354   4.569   4.438   7.249 -0.6280 -1.4456  1.9575
   47MOL   H30335355   4.820   4.261   7.223  0.0052 -0.2548 -0.3835
   47MOL   H30435356   4.738   4.315   7.084  2.4122 -0.7187  0.1332
   47MOL   H30535357   4.656   4.124   7.297  1.5148  1.4291 -0.3072
   47MOL   C30635358   4.591   4.088   7.117  0.2612 -0.0378  0.5527
   47MOL   O30735359   4.579   4.115   6.998  0.2333  0.7017  0.3754
   47MOL   C30835360   4.516   3.969   7.172 -0.2043  0.0746  0.1705
   47MOL   C30935361   4.506   3.847   7.075  0.1647 -0.4857  0.4089
   47MOL   C31035362   4.650   3.785   7.054  0.2733  0.7117  0.0133
   47MOL   C31135363   4.647   3.641   6.992  0.8565  1.4211  0.2361
   47MOL   C31235364   4.596   3.637   6.848  0.1069  0.6073  0.3070
   47MOL   O31335365   4.475   3.655   6.824 -0.4534  0.5439  0.0806
   47MOL   N31435366   4.689   3.613   6.752 -0.6064 -0.0002 -0.2783
   47MOL   C31535367   4.654   3.593   6.611  0.2950  0.2851 -0.5187
   47MOL   C31635368   4.758   3.518   6.527  0.1787  0.4065 -0.0828
   47MOL   C31735369   4.698   3.505   6.386  0.0605  0.3635 -0.1369
   47MOL   C31835370   4.790   3.433   6.290  0.2092 -0.4147  0.4096
   47MOL   C31935371   4.761   3.456   6.146 -0.5836 -0.3888  0.4018
   47MOL   C32035372   4.873   3.403   6.057  0.2394  0.6140 -0.3015
   47MOL   N32135373   4.827   3.415   5.919 -0.5082 -0.2482  0.7461
   47MOL   H32235374   4.570   3.944   7.264 -0.6862 -1.0945  0.1399
   47MOL   H32335375   4.410   3.982   7.193 -0.1120  1.9483 -0.4311
   47MOL   H32435376   4.434   3.772   7.107 -2.1535  2.1909  1.6255
   47MOL   H32535377   4.479   3.872   6.972 -0.4388  0.4269  0.7845
   47MOL   H32635378   4.705   3.777   7.147 -0.6680  0.9175  0.5891
   47MOL   H32735379   4.715   3.840   6.985  0.2258 -0.5765 -1.0959
   47MOL   H32835380   4.575   3.578   7.046  0.8443  1.0158 -0.2508
   47MOL   H32935381   4.743   3.591   7.007  0.0493  0.1691  1.4855
   47MOL   H33035382   4.787   3.602   6.777  0.1306 -0.0833 -3.0862
   47MOL   H33135383   4.554   3.549   6.620 -0.2263  1.8560  1.7698
   47MOL   H33235384   4.634   3.695   6.578  2.1935  0.8148 -0.0745
   47MOL   H33335385   4.843   3.586   6.532  1.9192 -1.6899 -0.7870
   47MOL   H33435386   4.786   3.416   6.553  0.4463 -0.2151 -2.6618
   47MOL   H33535387   4.677   3.607   6.354 -0.3612  0.5356  0.6729
   47MOL   H33635388   4.603   3.452   6.385  0.3171 -0.0918 -0.3681
   47MOL   H33735389   4.893   3.457   6.316  0.8999 -0.9596 -1.6473
   47MOL   H33835390   4.785   3.326   6.312 -0.2948 -0.1481  1.6120
   47MOL   H33935391   4.661   3.420   6.122 -1.5776  0.7920  2.6868
   47MOL   H34035392   4.748   3.564   6.134  1.1081 -0.2358 -0.3529
   47MOL   H34135393   4.892   3.299   6.083  1.6969  1.2420  1.2329
   47MOL   H34235394   4.967   3.458   6.062  0.5495  0.1325 -0.8121
   47MOL   H34335395   4.865   3.500   5.880 -2.0461  0.1558  0.0782
   47MOL   C34435396   4.780   3.315   5.847 -0.1772  0.7202  0.0723
   47MOL   O34535397   4.761   3.205   5.893 -0.0431 -0.0829  0.4236
   47MOL   C34635398   4.750   3.348   5.702 -0.2185 -0.5619 -0.1039
   47MOL   C34735399   4.728   3.226   5.616  0.2205  0.2541  0.1808
   47MOL   C34835400   4.602   3.134   5.632  0.6396 -0.2461  0.3512
   47MOL   C34935401   4.606   3.026   5.518 -0.5635  0.5138  0.2435
   47MOL   C35035402   4.481   2.945   5.492 -0.5818  0.6080  0.1422
   47MOL   O35135403   4.463   2.832   5.545  0.1102  0.1582  0.1719
   47MOL   N35235404   4.398   2.990   5.395  0.2836  0.1220  0.3431
   47MOL   C35335405   4.287   2.907   5.339 -0.6140 -0.0864 -0.1961
   47MOL   C35435406   4.289   2.922   5.186  0.1448 -0.2034 -0.2989
   47MOL   C35535407   4.420   2.907   5.105 -0.7589 -0.2173  0.0363
   47MOL   C35635408   4.392   2.884   4.953  0.3148  0.7560  0.2829
   47MOL   C35735409   4.519   2.870   4.865  0.3359 -0.1073  0.2106
   47MOL   C35835410   4.471   2.892   4.716 -0.5060 -0.0169 -0.1012
   47MOL   N35935411   4.580   2.889   4.618 -0.4547 -0.4987 -0.3310
   47MOL   H36035412   4.663   3.414   5.702  0.1934 -0.0117  1.1085
   47MOL   H36135413   4.837   3.400   5.659 -0.1245  0.0553  0.8235
   47MOL   H36235414   4.758   3.251   5.514 -0.6849  0.9165  0.0646
   47MOL   H36335415   4.816   3.168   5.641 -0.9928 -1.6894  0.0475
   47MOL   H36435416   4.516   3.201   5.631  1.1685  0.4473  0.5644
   47MOL   H36535417   4.615   3.085   5.729 -0.3161 -1.8386 -0.3170
   47MOL   H36635418   4.678   2.952   5.552  0.1237  2.3168  2.9793
   47MOL   H36735419   4.650   3.066   5.426 -0.9323  2.4183  0.8598
   47MOL   H36835420   4.429   3.067   5.337 -2.1383  0.6175 -0.3540
   47MOL   H36935421   4.302   2.802   5.362  0.5573 -0.5267 -2.8266
   47MOL   H37035422   4.188   2.931   5.378 -0.4935 -2.5589  1.7770
   47MOL   H37135423   4.229   2.846   5.135 -0.6999  0.5040 -0.3623
   47MOL   H37235424   4.238   3.015   5.162  0.3699 -0.0505 -0.1832
   47MOL   H37335425   4.484   2.826   5.141 -0.0376  1.5038  2.7541
   47MOL   H37435426   4.481   2.997   5.106 -1.7524  0.4687 -0.3080
   47MOL   H37535427   4.333   2.793   4.943  2.9029 -1.0334  0.6561
   47MOL   H37635428   4.335   2.972   4.925 -0.7109  0.7109  2.1089
   47MOL   H37735429   4.596   2.938   4.903  0.3568 -0.4587  0.8054
   47MOL   H37835430   4.571   2.774   4.871  1.4788  0.4120 -1.1406
   47MOL   H37935431   4.430   2.993   4.708 -0.5975 -0.0862 -0.5545
   47MOL   H38035432   4.402   2.813   4.686 -1.5675  0.0399  2.0884
   47MOL   H38135433   4.669   2.851   4.648 -0.2784 -0.6661 -1.0711
   47MOL   C38235434   4.599   2.980   4.524 -0.5175 -0.7289 -0.0822
   47MOL   O38335435   4.513   3.058   4.482  0.0802 -0.7547 -0.0249
   47MOL   C38435436   4.736   2.997   4.474  0.2860  0.5396  0.1298
   47MOL   C38535437   4.791   2.872   4.401 -0.1734  0.4725  0.4056
   47MOL   C38635438   4.718   2.797   4.293 -0.1153 -0.3696  0.2559
   47MOL   C38735439   4.814   2.698   4.221  0.5299  0.4324 -0.5589
   47MOL   C38835440   4.750   2.637   4.100 -0.7363 -0.5729  0.3860
   47MOL   O38935441   4.633   2.601   4.101  0.2671  0.3975 -0.2343
   47MOL   N39035442   4.832   2.622   3.992  0.0270 -0.3468 -0.3063
   47MOL   C39135443   4.795   2.554   3.864 -0.5071  0.2871  0.1304
   47MOL   C39235444   4.763   2.403   3.880  0.5061  0.7530  0.0323
   47MOL   C39335445   4.878   2.321   3.921 -0.8421  0.0837  0.9435
   47MOL   C39435446   4.837   2.176   3.947  0.1502  0.0788 -0.0130
   47MOL   C39535447   4.933   2.100   4.044  0.1914 -0.0695  0.0854
   47MOL   C39635448   4.908   1.948   4.053 -0.4488  0.3358  0.5043
   47MOL   N39735449   4.801   1.909   4.136 -0.0397  0.3360 -0.1495
   47MOL   H39835450   4.746   3.086   4.412  0.7365  1.3027  1.2787
   47MOL   H39935451   4.792   2.999   4.567  1.0786  1.7352 -0.3672
   47MOL   H40035452   4.891   2.895   4.363 -1.0239  1.9387 -1.0032
   47MOL   H40135453   4.806   2.805   4.486 -0.2535 -0.0511  0.0101
   47MOL   H40235454   4.682   2.874   4.225  0.5421  0.8839  1.3067
   47MOL   H40335455   4.634   2.738   4.330  1.5645 -1.6662  2.1078
   47MOL   H40435456   4.833   2.609   4.282  2.5130  0.3855 -1.1978
   47MOL   H40535457   4.904   2.750   4.187  0.1640  2.3188  1.2610
   47MOL   H40635458   4.925   2.659   3.989  1.1159 -3.0352 -1.6686
   47MOL   H40735459   4.716   2.609   3.813 -0.6732 -1.9026 -2.1048
   47MOL   H40835460   4.882   2.568   3.798 -1.1527  0.7220 -0.6402
   47MOL   H40935461   4.670   2.408   3.937  0.3566  1.9680 -0.2994
   47MOL   H41035462   4.736   2.366   3.781 -1.4625  0.2452  0.7270
   47MOL   H41135463   4.923   2.366   4.009  2.0622  0.9799 -0.8945
   47MOL   H41235464   4.960   2.321   3.848 -0.0966  2.9015  1.7249
   47MOL   H41335465   4.740   2.161   3.994  1.0274 -1.0461  1.4705
   47MOL   H41435466   4.819   2.130   3.850 -0.3839 -0.6818  0.4468
   47MOL   H41535467   5.036   2.114   4.014  0.0530  1.7948  0.4364
   47MOL   H41635468   4.929   2.142   4.144  0.1134  0.5912 -0.1955
   47MOL   H41735469   4.990   1.913   4.116 -0.4841 -2.2894 -0.8503
   47MOL   H41835470   4.926   1.893   3.961 -0.5132  0.0324  0.6714
   47MOL   H41935471   4.740   1.985   4.165  0.5656  1.7547 -2.4876
   47MOL   C42035472   4.777   1.784   4.179 -0.6512  0.1348  0.0614
   47MOL   O42135473   4.847   1.685   4.139  0.0026 -0.2586 -0.1575
   47MOL   C42235474   4.689   1.771   4.301  0.2637 -0.2582 -0.4117
   47MOL   C42335475   4.752   1.693   4.410  1.1543  0.1534  0.2179
   47MOL   C42435476   4.675   1.694   4.535  0.7054 -0.2203  0.1668
   47MOL   C42535477   4.719   1.596   4.642  0.4156 -0.0447  0.5568
   47MOL   C42635478   4.605   1.576   4.746  0.4117  0.0005 -0.0473
   47MOL   O42735479   4.522   1.669   4.763  0.2378 -0.2876  0.6884
   47MOL   N42835480   4.614   1.465   4.815  0.1181 -0.5543 -0.2345
   47MOL   C42935481   4.531   1.427   4.933  0.5578 -0.0869 -0.3853
   47MOL   C43035482   4.609   1.346   5.030 -0.8383  0.5266 -0.3110
   47MOL   C43135483   4.523   1.255   5.122 -0.3116 -0.7656  0.4455
   47MOL   C43235484   4.616   1.174   5.215  0.9526  0.4737 -0.1636
   47MOL   C43335485   4.539   1.076   5.305  0.0032  0.2982 -0.2108
   47MOL   C43435486   4.639   0.991   5.387 -0.0173  0.4996  0.3726
   47MOL   N43535487   4.561   0.900   5.471  0.0081  0.1242 -0.0088
   47MOL   H43635488   4.650   1.864   4.343 -1.8056 -0.0193 -2.7376
   47MOL   H43735489   4.598   1.722   4.266  0.9524 -0.7879 -1.4503
   47MOL   H43835490   4.767   1.593   4.371 -0.0587 -0.4166  1.1805
   47MOL   H43935491   4.849   1.743   4.420  1.6014 -1.0723  2.2174
   47MOL   H44035492   4.571   1.675   4.508  0.2574 -0.2963  1.9120
   47MOL   H44135493   4.674   1.796   4.573 -4.9864 -0.2173  0.4039
   47MOL   H44235494   4.809   1.626   4.695  0.6800  1.3887 -0.6707
   47MOL   H44335495   4.730   1.497   4.596 -0.6571  0.1347 -0.1039
   47MOL   H44435496   4.688   1.401   4.788  0.9522 -0.1781  1.1042
   47MOL   H44535497   4.477   1.513   4.975  0.6218  1.3622 -3.1294
   47MOL   H44635498   4.438   1.378   4.904 -0.2586  1.6850 -0.8767
   47MOL   H44735499   4.672   1.276   4.974  0.0314  0.4351  0.7652
   47MOL   H44835500   4.679   1.406   5.088  0.8950 -0.1957 -1.5892
   47MOL   H44935501   4.462   1.190   5.059 -0.5769  0.9340 -1.1083
   47MOL   H45035502   4.456   1.313   5.186 -0.2590 -0.5118  0.2719
   47MOL   H45135503   4.677   1.118   5.144 -0.3069  0.5540 -1.3239
   47MOL   H45235504   4.671   1.245   5.276 -0.5334  0.9959  0.5950
   47MOL   H45335505   4.481   1.128   5.382  0.5248 -0.3674  0.6489
   47MOL   H45435506   4.475   1.002   5.257  1.2605  0.0874 -1.5742
   47MOL   H45535507   4.707   1.058   5.440 -0.0935  1.1412 -0.3307
   47MOL   H45635508   4.698   0.946   5.307 -1.9764  1.5607 -1.7316
   47MOL   H45735509   4.463   0.922   5.467 -0.0418 -0.2746 -0.9225
   47MOL   C45835510   4.613   0.830   5.563 -0.5305  0.3022  0.1419
   47MOL   O45935511   4.730   0.829   5.595  0.1721 -0.0087  0.2059
   47MOL   C46035512   4.519   0.738   5.645  0.2001 -0.8575 -0.7160
   47MOL   C46135513   4.563   0.736   5.792 -0.2783 -0.1903  0.6645
   47MOL   C46235514   4.536   0.876   5.861 -0.6115 -0.0890  0.4459
   47MOL   C46335515   4.391   0.898   5.904  0.6556  0.8972  0.0730
   47MOL   C46435516   4.348   0.822   6.034 -1.2578  0.3896  1.0145
   47MOL   O46535517   4.343   0.698   6.034  0.1392  0.2025  0.5295
   47MOL   N46635518   4.325   0.896   6.141 -0.5096  0.3556 -0.2845
   47MOL   C46735519   4.287   0.845   6.272  0.0971 -0.4621  0.8041
   47MOL   C46835520   4.374   0.933   6.364 -0.0115 -0.3349  0.2199
   47MOL   C46935521   4.338   0.906   6.516 -0.9982  0.3976  0.4472
   47MOL   C47035522   4.428   0.976   6.617 -0.4549  0.1271  0.2662
   47MOL   C47135523   4.381   0.979   6.760  0.0531  0.1811 -0.3701
   47MOL   C47235524   4.449   1.090   6.846  0.2512 -0.0723 -0.1638
   47MOL   N47335525   4.401   1.105   6.981  0.5000  0.9544 -0.0538
   47MOL   H47435526   4.414   0.761   5.629 -0.5905 -1.1113  3.6021
   47MOL   H47535527   4.527   0.636   5.609 -1.3159 -0.7372 -1.4091
   47MOL   H47635528   4.517   0.652   5.843 -0.7626  0.4871  1.3511
   47MOL   H47735529   4.670   0.721   5.798  0.1962  1.9787 -1.2626
   47MOL   H47835530   4.570   0.952   5.790  0.2267 -0.6651  0.2290
   47MOL   H47935531   4.598   0.885   5.950 -1.9506  2.3533  1.1736
   47MOL   H48035532   4.324   0.856   5.829 -0.8798  0.7009  1.5215
   47MOL   H48135533   4.377   1.005   5.918  2.6977  1.0649  1.1646
   47MOL   H48235534   4.348   0.994   6.129  2.7772 -0.0138  2.1751
   47MOL   H48335535   4.178   0.851   6.277  0.0274 -0.6833 -0.1710
   47MOL   H48435536   4.313   0.739   6.279 -1.4158 -0.9238 -0.2424
   47MOL   H48535537   4.479   0.907   6.351 -0.1491 -1.1497  0.6898
   47MOL   H48635538   4.360   1.039   6.343  1.2270 -0.9283 -3.9389
   47MOL   H48735539   4.341   0.799   6.538 -1.3290  0.1443 -0.6868
   47MOL   H48835540   4.233   0.937   6.519 -1.2929 -0.7687  2.4935
   47MOL   H48935541   4.531   0.938   6.612 -0.7352 -0.7289  0.8185
   47MOL   H49035542   4.426   1.078   6.580 -2.2222 -1.1539 -3.4174
   47MOL   H49135543   4.274   1.001   6.752 -0.2704 -1.4686 -0.8304
   47MOL   H49235544   4.406   0.879   6.796 -2.9022 -0.5828 -0.2343
   47MOL   H49335545   4.423   1.184   6.798  0.9220  0.8482  1.2464
   47MOL   H49435546   4.558   1.086   6.838  0.0553 -1.4136 -2.7825
   47MOL   H49535547   4.462   1.071   7.054 -2.8339 -1.3028  1.8381
   47MOL   C49635548   4.293   1.161   7.027  0.4112 -0.0239 -0.0407
   47MOL   O49735549   4.216   1.217   6.957 -0.0699  0.3265 -0.1365
   47MOL   C49835550   4.256   1.152   7.177  0.1957  0.3193  0.0198
   47MOL   C49935551   4.235   1.293   7.235  0.6318 -0.4814  0.2786
   47MOL   C50035552   4.356   1.390   7.247 -1.1266 -0.3291  0.0123
   47MOL   C50135553   4.329   1.528   7.298  0.0881 -0.2992 -0.1375
   47MOL   C50235554   4.453   1.598   7.362  0.4042  0.8585  0.2055
   47MOL   O50335555   4.454   1.612   7.484 -0.0648  0.1463  0.1415
   47MOL   N50435556   4.542   1.635   7.276 -0.3855  0.2249  0.6174
   47MOL   C50535557   4.678   1.675   7.317  0.2280 -0.2144  0.0836
   47MOL   C50635558   4.779   1.678   7.199 -0.3578  0.1020  0.0973
   47MOL   C50735559   4.917   1.739   7.215 -0.2292  0.0058 -0.6146
   47MOL   C50835560   4.997   1.714   7.091 -0.1544 -0.7787 -0.4875
   47MOL   C50935561   4.976   1.819   6.981  0.0999  0.2740  0.0787
   47MOL   C51035562   5.065   1.797   6.857 -0.4622 -0.5214  0.4009
   47MOL   N51135563   5.204   1.769   6.892  0.2212 -0.3666 -0.3401
   47MOL   H51235564   4.167   1.093   7.198  0.5766  0.1164  1.1026
   47MOL   H51335565   4.325   1.090   7.235  1.5984 -0.1811 -2.1400
   47MOL   H51435566   4.163   1.343   7.170  0.5849 -1.7146 -0.6382
   47MOL   H51535567   4.190   1.293   7.334 -0.3134  0.6878 -0.1371
   47MOL   H51635568   4.412   1.399   7.153  1.3504  0.7673  1.5390
   47MOL   H51735569   4.431   1.343   7.311 -2.1712 -0.7233  0.9405
   47MOL   H51835570   4.249   1.543   7.371  0.6037  0.6136  0.2550
   47MOL   H51935571   4.288   1.584   7.214  0.8857 -0.8000 -0.8743
   47MOL   H52035572   4.520   1.630   7.178  2.4759 -1.3533  0.0011
   47MOL   H52135573   4.668   1.766   7.376 -0.9838 -0.3486  0.0917
   47MOL   H52235574   4.711   1.601   7.391 -0.8139 -0.3637  0.4059
   47MOL   H52335575   4.796   1.577   7.159 -3.1670 -1.1252  1.8874
   47MOL   H52435576   4.723   1.735   7.125 -1.3802  0.9069  1.4837
   47MOL   H52535577   4.965   1.696   7.303 -0.4106  0.3531 -0.3427
   47MOL   H52635578   4.907   1.846   7.232  1.3835  0.0832 -0.1271
   47MOL   H52735579   5.102   1.707   7.118 -0.2879 -0.5344  0.1087
   47MOL   H52835580   4.982   1.615   7.048 -0.1815 -2.8759  4.0537
   47MOL   H52935581   4.871   1.818   6.951  0.4838 -1.5580 -1.2655
   47MOL   H53035582   5.004   1.916   7.023 -0.2767  0.3673  0.1139
   47MOL   H53135583   5.068   1.882   6.788 -1.4987 -0.1898  0.7604
   47MOL   H53235584   5.028   1.706   6.810  0.4415 -0.8225  0.2693
   47MOL   H53335585   5.220   1.669   6.884 -2.0273 -0.7489 -0.4784
   47MOL   C53435586   5.294   1.861   6.935  0.1090  0.5364 -0.1200
   47MOL   O53535587   5.267   1.973   6.956  0.1209  0.7087  0.5140
   47MOL   C53635588   5.433   1.795   6.966  0.2405 -0.2597 -0.2638
   47MOL   C53735589   5.485   1.827   7.108 -0.4874 -0.0349  0.1393
   47MOL   C53835590   5.564   1.956   7.113 -0.0520 -0.2826  0.4094
   47MOL   C53935591   5.611   1.986   7.256  0.5111 -0.4104  0.1316
   47MOL   C54035592   5.722   1.898   7.311 -0.2676  0.3372 -0.5720
   47MOL   O54135593   5.837   1.914   7.278 -0.1810 -0.4203 -0.1767
   47MOL   N54235594   5.681   1.800   7.392  0.4101  0.5867 -0.3285
   47MOL   C54335595   5.758   1.683   7.427 -0.3242  0.1131 -0.2699
   47MOL   C54435596   5.747   1.579   7.318 -0.1951  0.5331 -0.6151
   47MOL   C54535597   5.796   1.443   7.356  0.8411  0.2703 -0.3602
   47MOL   C54635598   5.700   1.375   7.460 -0.0056  0.5966  0.2196
   47MOL   C54735599   5.726   1.225   7.487 -0.1471  0.7677 -0.6576
   47MOL   C54835600   5.643   1.181   7.612  0.2864  0.1928 -0.7800
   47MOL   N54935601   5.645   1.035   7.631  0.1255  0.0536  0.0540
   47MOL   H55035602   5.404   1.690   6.956 -0.5916 -0.0200 -0.3418
   47MOL   H55135603   5.514   1.835   6.905  1.8106  1.4001  2.8032
   47MOL   H55235604   5.398   1.839   7.173  0.2221  0.3169  1.0332
   47MOL   H55335605   5.549   1.749   7.150  0.3962  0.7618  0.2881
   47MOL   H55435606   5.526   2.048   7.069  2.3165  2.3716  3.6103
   47MOL   H55535607   5.651   1.928   7.054 -0.2394 -0.1428  0.0650
   47MOL   H55635608   5.522   1.991   7.319 -0.2538 -0.7407 -0.9083
   47MOL   H55735609   5.649   2.088   7.263  0.3963 -0.3043 -0.7126
   47MOL   H55835610   5.582   1.801   7.412  0.8978  3.5479  2.5142
   47MOL   H55935611   5.861   1.718   7.434 -0.0458 -0.4217 -1.5854
   47MOL   H56035612   5.732   1.652   7.528 -0.9846  1.1780 -0.0981
   47MOL   H56135613   5.643   1.561   7.290  0.0359  0.3424 -1.3674
   47MOL   H56235614   5.809   1.608   7.233  1.9676  0.3122  0.8396
   47MOL   H56335615   5.897   1.445   7.395  1.1010  0.3745 -1.0344
   47MOL   H56435616   5.801   1.385   7.264  1.4056  0.6984 -0.5995
   47MOL   H56535617   5.697   1.441   7.546  1.1698  0.0823  0.6662
   47MOL   H56635618   5.602   1.378   7.411 -0.8202  0.6755  1.8341
   47MOL   H56735619   5.682   1.160   7.411  0.5779 -1.5810  0.8800
   47MOL   H56835620   5.828   1.198   7.512 -0.6781  0.1736  0.8985
   47MOL   H56935621   5.541   1.217   7.600 -0.2672 -1.3942 -0.8519
   47MOL   H57035622   5.684   1.228   7.702 -0.4384 -0.3317 -0.1665
   47MOL   H57135623   5.600   0.975   7.563  0.9737 -0.6499  0.1003
   47MOL   C57235624   5.728   0.962   0.005  0.1899 -1.4130  0.0054
   47MOL   O57335625   5.812   1.023   0.069 -0.7272  0.4533 -0.4804
   47MOL   C57435626   5.710   0.813   0.021 -0.5239  0.7862 -0.0328
   47MOL   C57535627   5.826   0.725   0.007 -0.1664 -0.1701 -0.3148
   47MOL   C57635628   5.907   0.730   7.580 -0.0144  0.0710  0.0612
   47MOL   C57735629   6.020   0.627   7.573 -0.0910 -0.6998 -0.8379
   47MOL   C57835630   6.143   0.651   7.664 -0.5837 -0.1884  0.0534
   47MOL   O57935631   6.163   0.767   7.700 -0.4043  0.3301 -0.3038
   47MOL   N58035632   6.216   0.550   0.001  0.5332  0.1074 -0.0257
   47MOL   C58135633   6.347   0.568   0.056  0.6157  0.0742  0.1098
   47MOL   C58235634   6.439   0.463   7.689 -0.2583  0.1766 -0.2884
   47MOL   C58335635   6.587   0.454   0.036 -0.2747  0.2138  0.4164
   47MOL   C58435636   6.673   0.352   7.674  0.5393 -0.3728 -0.2306
   47MOL   C58535637   6.822   0.360   0.005 -0.0609 -0.1444  0.3685
   47MOL   C58635638   6.907   0.242   7.672 -0.1537  0.6840  0.1260
   47MOL   N58735639   7.045   0.283   7.706  0.0466  0.4370  0.1742
   47MOL   H58835640   5.668   0.787   0.118 -2.1774  1.0707 -0.6437
   47MOL   H58935641   5.639   0.777   7.654  0.6420  1.1411 -1.3151
   47MOL   H59035642   5.887   0.750   0.094 -0.3088 -0.6406 -0.0751
   47MOL   H59135643   5.792   0.624   0.028 -0.4399  0.2805  1.5289
   47MOL   H59235644   5.936   0.828   7.543  0.9709 -0.6974 -1.2448
   47MOL   H59335645   5.841   0.702   7.498  1.3149  0.9438 -1.3035
   47MOL   H59435646   6.049   0.618   7.468 -0.6886  0.0394 -1.0745
   47MOL   H59535647   5.978   0.528   7.589  0.6079 -0.7792  0.5784
   47MOL   H59635648   6.183   0.456   7.692  1.5149 -0.3219  0.3931
   47MOL   H59735649   6.392   0.666   0.038 -0.0767  0.7804  2.1189
   47MOL   H59835650   6.350   0.549   0.163 -0.2183  0.6563  0.2410
   47MOL   H59935651   6.395   0.364   7.703  3.5785 -1.8379 -1.7428
   47MOL   H60035652   6.435   0.472   7.581  0.8030  0.3362 -0.3133
   47MOL   H60135653   6.588   0.445   0.145  0.4768 -1.3095  0.3054
   47MOL   H60235654   6.636   0.549   0.016  3.1307 -1.8308 -1.5295
   47MOL   H60335655   6.630   0.255   7.695  1.5112 -0.2830  2.3551
   47MOL   H60435656   6.660   0.365   7.566  2.2760  1.4165 -0.2609
   47MOL   H60535657   6.865   0.455   7.681  0.1948 -0.3467  0.1068
   47MOL   H60635658   6.832   0.373   0.112  1.5585 -0.1671  0.2339
   47MOL   H60735659   6.900   0.223   7.565 -1.3555  0.3075  0.2655
   47MOL   H60835660   6.872   0.146   0.002  0.0759 -0.3468 -2.1691
   47MOL   H60935661   7.065   0.382   0.004  0.3332  0.3406  0.8904
   47MOL   C61035662   7.148   0.205   7.688  0.3844 -0.0618  0.8445
   47MOL   O61135663   7.145   0.081   7.679 -0.0941  0.5960 -0.1477
   47MOL   C61235664   7.277   0.270   7.652 -0.9044  0.6085  0.7886
   47MOL   C61335665   7.404   0.194   7.695 -0.0355  0.3832 -0.0819
   47MOL   C61435666   7.532   0.258   7.646  0.1252  0.5796 -0.2155
   47MOL   C61535667   7.654   0.181   7.707 -0.0411 -0.3180  0.7258
   47MOL   C61635668   0.007   0.251   0.120 -0.1601  0.3918 -1.2081
   47MOL   O61735669   0.035   0.371   0.112  0.4562 -0.1152  0.4739
   47MOL   N61835670   0.028   0.170   0.227  0.3740 -0.5326 -0.0635
   47MOL   C61935671   0.062   0.213   0.362  0.0988 -0.5447  0.0670
   47MOL   C62035672   7.668   0.164   0.463  0.9101  0.4779  0.3124
   47MOL   C62135673   7.661   0.238   0.594 -0.1940  0.1584  0.5547
   47MOL   C62235674   0.085   0.206   0.668 -0.1824 -0.7050 -0.9591
   47MOL   C62335675   0.075   0.238   0.812  0.1471 -0.2021  0.0405
   47MOL   C62435676   0.204   0.220   0.896  0.6777 -0.0051  0.2686
   47MOL   N62535677   0.190   0.264   1.033  0.9645 -0.0672 -0.5792
   47MOL   H62635678   7.271   0.281   7.543 -1.5932 -0.3762  0.7170
   47MOL   H62735679   7.274   0.375   7.681 -0.0993  0.4695  1.3835
   47MOL   H62835680   7.407   0.187   0.096 -1.3092  0.6544 -0.0220
   47MOL   H62935681   7.396   0.088   7.670 -1.3929  0.5148 -0.2257
   47MOL   H63035682   7.525   0.361   7.681  0.6665  0.3233  0.6595
   47MOL   H63135683   7.534   0.252   7.537  2.4188 -0.1029 -0.1731
   47MOL   H63235684   0.030   0.166   7.639 -0.0513 -0.3600  0.7231
   47MOL   H63335685   7.615   0.083   0.027  0.5932 -1.3182 -1.7294
   47MOL   H63435686   0.007   0.072   0.216  1.4258 -0.6968 -0.7180
   47MOL   H63535687   0.161   0.178   0.391 -0.5827 -1.0892  1.7640
   47MOL   H63635688   0.081   0.320   0.368  0.3702 -0.6653  1.3566
   47MOL   H63735689   7.575   0.173   0.407  1.8730  1.4230 -1.1949
   47MOL   H63835690   7.688   0.058   0.472  1.8862  0.7057  0.8644
   47MOL   H63935691   7.579   0.192   0.649  0.9627 -4.4089 -1.3119
   47MOL   H64035692   7.645   0.345   0.601 -0.7996  0.2529 -2.1447
   47MOL   H64135693   0.109   0.100   0.658  3.3525 -0.2429  2.0065
   47MOL   H64235694   0.169   0.259   0.623 -0.3397  0.8965  0.6096
   47MOL   H64335695   0.052   0.344   0.824 -2.3064 -0.6354 -0.4738
   47MOL   H64435696   7.701   0.177   0.849 -0.1982 -0.7783 -1.6190
   47MOL   H64535697   0.290   0.265   0.844  2.1177 -0.7436  1.9795
   47MOL   H64635698   0.225   0.114   0.902  0.9026 -0.0133 -0.5468
   47MOL   H64735699   0.266   0.324   1.061  0.8567  0.0139 -0.4606
   47MOL   C64835700   0.103   0.223   1.130 -0.4020  0.2869  0.6575
   47MOL   O64935701   0.011   0.148   1.107 -0.6572 -0.6844  0.7050
   47MOL   C65035702   0.117   0.286   1.270  0.5149 -0.0351 -0.1768
   47MOL   C65135703   0.220   0.212   1.366  0.2239  0.0211  0.0025
   47MOL   C65235704   0.220   0.276   1.507 -0.3577 -0.2988 -0.3812
   47MOL   C65335705   0.334   0.242   1.596 -0.8105 -0.6101 -0.5686
   47MOL   C65435706   0.473   0.295   1.560  0.6396  0.8863  0.5246
   47MOL   O65535707   0.537   0.244   1.470  0.1566  0.1820  0.3950
   47MOL   N65635708   0.520   0.399   1.633  0.5751  0.4951 -0.2709
   47MOL   C65735709   0.651   0.468   1.619  0.4796  0.3257 -0.6000
   47MOL   C65835710   0.754   0.413   1.725 -0.5105  0.8572  0.1047
   47MOL   C65935711   0.724   0.456   1.867 -0.2304 -1.0787 -0.1591
   47MOL   C66035712   0.638   0.360   1.952 -0.3102  0.2250 -0.3210
   47MOL   C66135713   0.586   0.422   2.086  0.3681 -0.2679  0.0842
   47MOL   C66235714   0.481   0.341   2.166 -0.2693 -0.2431  0.5123
   47MOL   N66335715   0.406   0.430   2.251 -0.2814  0.1835 -0.1906
   47MOL   H66435716   0.142   0.392   1.272 -2.5974  0.7725 -1.4455
   47MOL   H66535717   0.026   0.274   1.328  0.5022  0.2517 -0.1360
   47MOL   H66635718   0.196   0.107   1.377 -2.7927  0.6363 -0.0691
   47MOL   H66735719   0.319   0.221   1.321  1.1211  1.6650  2.2114
   47MOL   H66835720   0.128   0.242   1.554  0.3670 -1.5431  0.1583
   47MOL   H66935721   0.196   0.382   1.496 -2.7176 -1.0718 -3.7590
   47MOL   H67035722   0.335   0.134   1.615  1.9653 -0.8765 -2.0330
   47MOL   H67135723   0.315   0.265   1.701  0.5096 -0.9542 -0.2396
   47MOL   H67235724   0.455   0.440   1.699  0.1504 -0.3793 -0.1379
   47MOL   H67335725   0.683   0.461   1.515  0.5417  1.1326 -0.6456
   47MOL   H67435726   0.632   0.575   1.633  1.7839  0.5143 -0.1368
   47MOL   H67535727   0.742   0.305   1.720 -0.4757  0.8567  0.0281
   47MOL   H67635728   0.851   0.448   1.691 -0.8790  0.1458 -1.7509
   47MOL   H67735729   0.658   0.542   1.853  1.2604 -0.2831 -2.6852
   47MOL   H67835730   0.813   0.490   1.919  0.0156  0.2843 -1.4345
   47MOL   H67935731   0.555   0.318   1.894 -0.5966 -1.0012  0.9611
   47MOL   H68035732   0.694   0.269   1.975 -1.1560 -0.4642 -0.9377
   47MOL   H68135733   0.660   0.462   2.155  0.4904 -0.0168 -0.1897
   47MOL   H68235734   0.551   0.520   2.053 -1.8154 -0.8632  0.6124
   47MOL   H68335735   0.536   0.266   2.223  0.3956 -1.5680 -1.8125
   47MOL   H68435736   0.413   0.296   2.094  0.5492  0.0376 -0.4404
   47MOL   H68535737   0.415   0.529   2.230 -1.6100  0.5607  0.9605
   47MOL   C68635738   0.309   0.413   2.337 -0.2796  0.2425  0.7541
   47MOL   O68735739   0.281   0.302   2.375  0.0262 -0.3252  0.0768
   47MOL   C68835740   0.240   0.531   2.391  0.0022 -0.0703 -0.9845
   47MOL   C68935741   0.319   0.612   2.496 -0.1514 -0.5934  0.5096
   47MOL   C69035742   0.364   0.540   2.629  0.0831  0.6867  0.4455
   47MOL   C69135743   0.427   0.637   2.733  0.0355  0.0619 -0.0964
   47MOL   C69235744   0.507   0.565   2.845 -0.4811 -0.0004 -0.3879
   47MOL   O69335745   0.499   0.444   2.876  0.3271 -0.2820 -0.1762
   47MOL   N69435746   0.592   0.635   2.920 -0.4401 -0.9627  0.7840
   47MOL   C69535747   0.626   0.776   2.898 -0.0492  0.1312  0.6836
   47MOL   C69635748   0.716   0.830   3.005  0.1904  0.3552  0.0856
   47MOL   C69735749   0.720   0.979   2.995 -0.5402 -0.4277  0.3151
   47MOL   C69835750   0.766   1.050   3.124 -0.5363  0.5657 -0.3147
   47MOL   C69935751   0.790   1.203   3.111 -0.1207  0.5336  0.1566
   47MOL   C70035752   0.817   1.286   3.244 -0.2199  0.2416  0.2211
   47MOL   N70135753   0.693   1.344   3.292  0.8206 -0.2981 -0.6767
   47MOL   H70235754   0.221   0.602   2.311  0.9326  0.0248 -1.1220
   47MOL   H70335755   0.139   0.506   2.424  1.1494 -2.0596  1.1559
   47MOL   H70435756   0.418   0.636   2.459 -0.4514  0.9828  0.6573
   47MOL   H70535757   0.276   0.708   2.526 -1.5213 -1.7011  2.1891
   47MOL   H70635758   0.421   0.449   2.608 -0.3480  0.9111 -1.7484
   47MOL   H70735759   0.273   0.495   2.669  1.5525 -2.4179  0.4853
   47MOL   H70835760   0.357   0.706   2.780  0.1223 -1.0703  1.7348
   47MOL   H70935761   0.494   0.700   2.674  0.2952 -0.9839 -0.9404
   47MOL   H71035762   0.645   0.586   2.990  1.0672  0.7372  0.8543
   47MOL   H71135763   0.681   0.777   2.804  0.6581 -1.3428  1.0610
   47MOL   H71235764   0.539   0.839   2.884 -0.3931 -1.1760 -3.9346
   47MOL   H71335765   0.690   0.793   3.104  1.0617  0.9866  0.5588
   47MOL   H71435766   0.818   0.799   2.979  1.0514  2.9329  0.2425
   47MOL   H71535767   0.616   1.008   2.982 -0.4948 -0.0689  0.7463
   47MOL   H71635768   0.776   1.019   2.912  0.2449 -0.1361  0.9791
   47MOL   H71735769   0.704   1.026   3.210  0.3822  2.6948  0.9821
   47MOL   H71835770   0.859   1.005   3.159  0.2556  1.2100 -1.5556
   47MOL   H71935771   0.884   1.202   3.055  0.2476  0.5424  0.7684
   47MOL   H72035772   0.714   1.259   3.055  0.7659  0.8788 -0.7171
   47MOL   H72135773   0.882   1.370   3.222 -0.8729  0.5638 -0.5222
   47MOL   H72235774   0.869   1.223   3.316  0.3227  1.0767  0.5619
   47MOL   H72335775   0.678   1.440   3.263 -0.3509 -0.1713  0.2799
   47MOL   C72435776   0.600   1.281   3.362  0.4738 -0.5450  0.6591
   47MOL   O72535777   0.615   1.161   3.385 -0.1665 -0.5503 -0.2387
   47MOL   C72635778   0.480   1.355   3.420  0.3264  0.6673 -0.8217
   47MOL   C72735779   0.351   1.273   3.397 -0.0156  0.5063  0.4737
   47MOL   C72835780   0.301   1.272   3.253 -0.0776  0.1870  0.4003
   47MOL   C72935781   0.362   1.164   3.155  0.7250  0.9414  0.6545
   47MOL   C73035782   0.337   1.017   3.199  0.3662  0.3635  0.1900
   47MOL   O73135783   0.229   0.954   3.179 -0.5525 -0.2310  0.5770
   47MOL   N73235784   0.437   0.959   3.262  0.1793 -0.0239  0.0904
   47MOL   C73335785   0.456   0.816   3.286 -0.0300 -1.0608 -0.2855
   47MOL   C73435786   0.577   0.791   3.362 -0.1530  0.3360  0.6138
   47MOL   C73535787   0.623   0.642   3.360  0.9306  0.2671 -0.3324
   47MOL   C73635788   0.521   0.555   3.433  0.0662  0.0364  0.0469
   47MOL   C73735789   0.510   0.409   3.387 -0.0095  0.3868 -0.4150
   47MOL   C73835790   0.442   0.406   3.248  0.0686 -0.3185  0.1461
   47MOL   N73935791   0.481   0.293   3.175 -0.3305  0.0816  0.3161
   47MOL   H74035792   0.497   1.375   3.526 -0.5780  1.5464 -0.8377
   47MOL   H74135793   0.470   1.451   3.369 -0.2507  0.9799 -0.1168
   47MOL   H74235794   0.361   1.173   3.440 -0.8831  0.7449  1.2635
   47MOL   H74335795   0.270   1.317   3.455 -2.2150 -1.7944 -0.7287
   47MOL   H74435796   0.292   1.374   3.216  1.7848  1.2563  2.7777
   47MOL   H74535797   0.199   1.238   3.264 -1.9676  4.9606 -1.0329
   47MOL   H74635798   0.464   1.178   3.121 -1.2422  3.3291 -4.9682
   47MOL   H74735799   0.306   1.166   3.061  2.1423 -2.7764 -0.3763
   47MOL   H74835800   0.510   1.022   3.294 -0.5087 -0.2818  2.2556
   47MOL   H74935801   0.365   0.769   3.324 -0.7734  0.8322  0.3803
   47MOL   H75035802   0.466   0.771   3.187 -4.0889  0.8284 -1.7024
   47MOL   H75135803   0.652   0.851   3.309  0.7114 -1.0352  0.2540
   47MOL   H75235804   0.565   0.813   3.468  0.6376 -1.7030  1.1510
   47MOL   H75335805   0.726   0.635   3.397  0.9198  0.2735 -0.3021
   47MOL   H75435806   0.636   0.604   3.259  0.7156 -0.3507 -0.1230
   47MOL   H75535807   0.554   0.550   3.537 -0.3963  3.2597  0.3915
   47MOL   H75635808   0.424   0.602   3.450  0.0781  0.0556  0.0627
   47MOL   H75735809   0.615   0.386   3.368  0.1790  0.8581  0.0507
   47MOL   H75835810   0.462   0.345   3.462  0.5779  1.6541  1.0694
   47MOL   H75935811   0.481   0.494   3.198  2.4487 -1.7204 -0.5373
   47MOL   H76035812   0.334   0.424   3.255  0.2874  1.8042 -1.3808
   47MOL   H76135813   0.582   0.297   3.183 -0.4680  1.2746  1.5842
   47MOL   H76235814   0.463   0.314   3.078  2.9351 -1.3645 -0.6827
   48MOL     C135815   2.627   1.060   2.516  0.7444  0.3706 -1.0353
   48MOL     O235816   2.677   1.145   2.445 -0.1534  0.1333  0.6000
   48MOL     C335817   2.497   1.082   2.589  0.3209 -0.3520  0.3332
   48MOL     C435818   2.395   1.168   2.502  0.6484 -0.1051 -0.8006
   48MOL     C535819   2.329   1.100   2.373 -0.7150  0.0339 -0.1019
   48MOL     C635820   2.257   0.966   2.405  0.0235  0.1139 -0.2843
   48MOL     C735821   2.205   0.895   2.273 -0.1839  0.4201 -1.5467
   48MOL     O835822   2.158   0.959   2.181 -0.4447 -0.3030  0.0447
   48MOL     N935823   2.212   0.759   2.280  0.3443  0.0119  0.9975
   48MOL    C1035824   2.204   0.670   2.164  0.4201  0.3015  0.1264
   48MOL    C1135825   2.064   0.602   2.149 -0.1009 -0.1140  0.1707
   48MOL    C1235826   2.056   0.503   2.034 -0.1688 -0.1386 -0.2318
   48MOL    C1335827   1.923   0.432   2.008 -0.2315  0.8336  0.3897
   48MOL    C1435828   1.931   0.299   1.938  0.1071  0.4158 -0.2590
   48MOL    C1535829   1.795   0.237   1.909  0.6927 -0.3323 -0.1472
   48MOL    N1635830   1.713   0.228   2.034 -0.6796 -0.7557  0.3700
   48MOL    H1735831   2.457   0.983   2.611  0.4035 -0.1479  1.4079
   48MOL    H1835832   2.521   1.118   2.689  3.1532  1.7616 -1.0293
   48MOL    H1935833   2.322   1.206   2.573  1.8172 -1.2732  1.0654
   48MOL    H2035834   2.455   1.255   2.475  1.8092 -0.2166  1.2894
   48MOL    H2135835   2.413   1.088   2.305 -0.1343 -0.7961  0.7444
   48MOL    H2235836   2.253   1.164   2.330 -0.1419 -0.3276 -1.6674
   48MOL    H2335837   2.176   0.989   2.475 -0.5563 -2.3877 -0.0799
   48MOL    H2435838   2.325   0.890   2.444 -1.1421 -1.9548 -2.1463
   48MOL    H2535839   2.249   0.715   2.363  2.7386 -1.5440 -0.8202
   48MOL    H2635840   2.221   0.723   2.070 -0.1266  0.7871  0.3010
   48MOL    H2735841   2.291   0.604   2.170 -0.4717 -0.9476 -0.4891
   48MOL    H2835842   2.043   0.547   2.241 -0.6931  0.8944  0.6433
   48MOL    H2935843   1.993   0.685   2.144  0.1135 -0.0445 -2.6344
   48MOL    H3035844   2.136   0.432   2.054  0.0759 -0.2623 -1.5802
   48MOL    H3135845   2.083   0.554   1.941 -1.1229 -0.3135 -0.6036
   48MOL    H3235846   1.868   0.418   2.101 -0.5904  0.8865  0.1848
   48MOL    H3335847   1.861   0.499   1.948 -1.2491 -1.0428 -0.6945
   48MOL    H3435848   1.985   0.324   1.846 -1.2899 -0.8911 -1.4629
   48MOL    H3535849   1.991   0.233   2.001 -0.8558  0.4388  0.6901
   48MOL    H3635850   1.798   0.149   1.845 -0.0586 -0.7970  0.4433
   48MOL    H3735851   1.741   0.301   1.840 -0.3791  0.3211  1.2567
   48MOL    H3835852   1.769   0.235   2.118 -0.1152 -0.4329 -0.0248
   48MOL    H3935853   2.668   0.960   2.530 -1.8908 -0.6641 -0.3400
   48MOL    C4035854   1.580   0.233   2.039  0.3624  0.5214 -0.1973
   48MOL    O4135855   1.511   0.256   1.943 -0.5187 -0.1920  0.3826
   48MOL    C4235856   1.516   0.193   2.175 -0.0712  0.0089  0.1225
   48MOL    C4335857   1.576   0.261   2.301 -0.9514  0.8932 -0.0162
   48MOL    C4435858   1.681   0.171   2.359 -0.2083 -0.4162 -0.4450
   48MOL    C4535859   1.750   0.227   2.487  0.1968  0.0474  0.0031
   48MOL    C4635860   1.828   0.358   2.466  0.1736  0.0213  0.3160
   48MOL    O4735861   1.827   0.411   2.357  0.0517 -0.1152  0.1063
   48MOL    N4835862   1.884   0.413   2.574 -0.2947  0.0189  0.2263
   48MOL    C4935863   1.970   0.527   2.582  0.4614 -0.5143 -0.1613
   48MOL    C5035864   1.995   0.579   2.724  1.0969 -0.5186  0.4377
   48MOL    C5135865   1.874   0.622   2.797 -0.2424  0.0641 -0.2173
   48MOL    C5235866   1.912   0.658   2.940  0.4709  0.3399  0.8421
   48MOL    C5335867   1.985   0.791   2.938  0.2573  0.1329  0.1985
   48MOL    C5435868   2.014   0.827   3.085 -0.0101  0.2119  0.1141
   48MOL    N5535869   2.095   0.732   3.162  0.1907 -0.2683  0.3139
   48MOL    H5635870   1.410   0.219   2.182  0.4056  1.6168  1.6793
   48MOL    H5735871   1.520   0.084   2.187  0.6218 -0.1806 -1.6799
   48MOL    H5835872   1.609   0.356   2.259  1.0473 -1.1050 -3.1384
   48MOL    H5935873   1.504   0.285   2.379 -1.1571  0.8890 -0.2047
   48MOL    H6035874   1.757   0.149   2.284 -2.3632  0.2467 -2.8958
   48MOL    H6135875   1.633   0.075   2.379  0.8231 -0.8786 -0.1144
   48MOL    H6235876   1.830   0.157   2.513  0.0150  0.6393  2.3037
   48MOL    H6335877   1.689   0.233   2.577 -1.8179 -1.3878 -1.2263
   48MOL    H6435878   1.837   0.381   2.658  0.2243 -0.0178  0.5044
   48MOL    H6535879   2.064   0.493   2.539 -0.4867 -0.3572 -2.3965
   48MOL    H6635880   1.931   0.608   2.520  1.3702 -0.8916 -1.2477
   48MOL    H6735881   2.044   0.501   2.782 -0.6163 -1.9438 -0.0037
   48MOL    H6835882   2.065   0.662   2.718 -0.2686  0.5832 -0.7813
   48MOL    H6935883   1.807   0.536   2.795  1.6484 -1.4647  0.0290
   48MOL    H7035884   1.820   0.699   2.742 -0.3833  0.0328 -0.1226
   48MOL    H7135885   1.823   0.650   3.003  0.3679  3.3648  1.1524
   48MOL    H7235886   1.980   0.584   2.983  0.5754  0.2266  0.4870
   48MOL    H7335887   2.076   0.789   2.877  0.6718 -0.9725  0.8271
   48MOL    H7435888   1.919   0.864   2.891 -1.8174 -2.1741 -0.6025
   48MOL    H7535889   1.914   0.837   3.129 -0.6512 -1.7340 -0.8343
   48MOL    H7635890   2.060   0.926   3.084 -0.6001  0.4780 -2.5207
   48MOL    H7735891   2.040   0.682   3.230 -1.1548  0.0805 -0.4837
   48MOL    C7835892   2.228   0.744   3.166  0.0462 -0.0807  0.2028
   48MOL    O7935893   2.287   0.831   3.101 -0.0875  0.4428  0.4666
   48MOL    C8035894   2.294   0.629   3.244  0.2661  0.0650  0.8629
   48MOL    C8135895   2.356   0.506   3.160  0.2045 -0.5537  0.3185
   48MOL    C8235896   2.256   0.410   3.107 -0.1562 -0.8140 -0.3181
   48MOL    C8335897   2.311   0.268   3.079 -0.0034 -1.0346  0.4583
   48MOL    C8435898   2.413   0.268   2.964  0.1883  0.3052  0.3113
   48MOL    O8535899   2.391   0.322   2.856 -0.1233 -0.0059  0.3803
   48MOL    N8635900   2.530   0.202   2.987  0.4752  0.0431 -0.0395
   48MOL    C8735901   2.632   0.172   2.888  0.2959 -0.2140  0.0330
   48MOL    C8835902   2.733   0.065   2.935  0.1343  0.1332 -0.0178
   48MOL    C8935903   2.673   7.641   2.931 -0.2422  0.3109  0.5723
   48MOL    C9035904   2.774   7.534   2.953 -0.3853  0.2843  0.4877
   48MOL    C9135905   2.768   7.425   2.846 -0.0210 -0.0525 -0.0822
   48MOL    C9235906   2.833   7.453   2.709  0.7479 -1.0223  0.2423
   48MOL    N9335907   2.825   7.334   2.633  0.4586  0.1684  0.0894
   48MOL    H9435908   2.363   0.673   3.316  0.3320 -0.5404  1.1738
   48MOL    H9535909   2.217   0.593   3.313 -1.4348 -1.8212 -1.9138
   48MOL    H9635910   2.424   0.541   3.083 -0.2986 -0.9736 -0.3167
   48MOL    H9735911   2.443   0.463   3.209  1.2361 -0.4962 -1.4503
   48MOL    H9835912   2.206   0.443   3.016  0.5244  0.1207 -0.3544
   48MOL    H9935913   2.178   0.399   3.183 -1.0754  1.3922 -0.8809
   48MOL   H10035914   2.234   0.196   3.051 -0.3319 -0.8565  0.8969
   48MOL   H10135915   2.366   0.224   3.162  2.0034 -1.7280 -1.1933
   48MOL   H10235916   2.519   0.162   3.079 -0.7525 -0.6355 -0.4689
   48MOL   H10335917   2.598   0.138   2.790  1.2825 -1.4412  0.0940
   48MOL   H10435918   2.688   0.263   2.869  0.1432  0.1340  1.2129
   48MOL   H10535919   2.815   0.070   2.864  0.3321  1.3104  0.2910
   48MOL   H10635920   2.774   0.081   3.035 -0.2109 -0.5771  0.2488
   48MOL   H10735921   2.628   7.630   2.832 -2.5899  1.0202  1.5285
   48MOL   H10835922   2.588   7.634   2.998 -0.4844 -0.3953  0.2027
   48MOL   H10935923   2.873   7.578   2.947 -0.3465  0.1284  0.0150
   48MOL   H11035924   2.757   7.485   3.049 -0.9865 -1.1854 -0.3591
   48MOL   H11135925   2.808   7.336   2.893  0.3668 -0.9429 -2.0727
   48MOL   H11235926   2.660   7.411   2.839  0.0427 -0.8160  0.3938
   48MOL   H11335927   2.929   7.496   2.738 -0.2042  1.3075  0.0879
   48MOL   H11435928   2.777   7.531   2.658 -0.7563 -2.4071 -0.2453
   48MOL   H11535929   2.908   7.299   2.586 -0.6839 -1.2530 -0.9071
   48MOL   C11635930   2.715   7.263   2.602 -0.3691  0.2897 -0.4427
   48MOL   O11735931   2.601   7.298   2.638 -0.2955  0.3210  0.1814
   48MOL   C11835932   2.733   7.130   2.521  0.2280 -0.0752  0.3184
   48MOL   C11935933   2.671   7.013   2.590 -0.0964  0.0572  0.0252
   48MOL   C12035934   2.722   6.988   2.737 -0.1392  0.2083  0.0796
   48MOL   C12135935   2.703   6.837   2.766 -0.6727 -0.3638 -0.4035
   48MOL   C12235936   2.753   6.806   2.911  0.0283 -0.2558 -0.2843
   48MOL   O12335937   2.708   6.874   3.007  0.3964  0.0717 -0.1748
   48MOL   N12435938   2.847   6.709   2.936 -0.3446 -0.0898  0.2543
   48MOL   C12535939   2.871   6.641   3.064  0.1880 -0.2315  0.4902
   48MOL   C12635940   2.975   6.524   3.061 -0.0440 -0.1071 -0.1577
   48MOL   C12735941   2.977   6.434   3.188  0.1008  0.5004  1.1046
   48MOL   C12835942   3.064   6.311   3.164  0.3792 -0.1077 -0.4587
   48MOL   C12935943   3.211   6.331   3.143 -0.2644 -0.4196 -0.3523
   48MOL   C13035944   3.287   6.400   3.263  0.0917  0.1312  0.1087
   48MOL   N13135945   3.285   6.315   3.386  0.7530 -0.1496  0.5942
   48MOL   H13235946   2.684   7.150   2.426  1.8252 -0.7157 -0.6689
   48MOL   H13335947   2.835   7.114   2.485 -0.5050  0.1322 -1.8968
   48MOL   H13435948   2.563   7.017   2.587 -0.1780 -2.0974 -1.9134
   48MOL   H13535949   2.670   6.921   2.531 -1.2943  0.3236 -0.3787
   48MOL   H13635950   2.668   7.046   2.812 -1.1399 -0.1613 -0.3513
   48MOL   H13735951   2.828   7.011   2.742  0.6471 -2.8642 -1.4481
   48MOL   H13835952   2.771   6.787   2.696 -0.0358 -0.6126  0.3817
   48MOL   H13935953   2.599   6.806   2.762 -0.2412 -2.0159  0.6016
   48MOL   H14035954   2.868   6.646   2.860 -0.1718 -0.6845  0.7972
   48MOL   H14135955   2.896   6.715   3.140  1.4171  0.0773 -0.2077
   48MOL   H14235956   2.775   6.601   3.094 -0.1225  0.9856  1.1578
   48MOL   H14335957   2.970   6.461   2.972 -0.9297  0.0506 -0.2274
   48MOL   H14435958   3.069   6.578   3.052  0.5721 -1.2760 -0.8111
   48MOL   H14535959   2.878   6.404   3.225 -0.0350  0.4482  0.7022
   48MOL   H14635960   3.019   6.498   3.266 -1.4452 -0.5881  2.8777
   48MOL   H14735961   3.050   6.235   3.241 -1.5310 -1.9437 -2.5365
   48MOL   H14835962   3.022   6.248   3.085 -0.5073 -0.3526  0.1992
   48MOL   H14935963   3.260   6.234   3.129  0.5181 -0.2081  0.8858
   48MOL   H15035964   3.228   6.400   3.060 -2.9513 -0.9863 -1.4200
   48MOL   H15135965   3.245   6.499   3.279 -1.6752 -0.9850  2.5339
   48MOL   H15235966   3.392   6.408   3.234 -0.2833 -3.7669 -2.8034
   48MOL   H15335967   3.314   6.218   3.385 -1.0509 -0.7244  0.5039
   48MOL   C15435968   3.223   6.353   3.503 -0.5447  0.7255 -0.4399
   48MOL   O15535969   3.184   6.463   3.529 -0.0266  0.1852 -0.0120
   48MOL   C15635970   3.212   6.240   3.599  0.1570  0.7209  0.3654
   48MOL   C15735971   3.066   6.219   3.634 -0.2003 -0.2470 -0.7695
   48MOL   C15835972   3.053   6.105   3.744 -0.0493  0.0507  0.3322
   48MOL   C15935973   2.912   6.077   3.802  0.2014  0.5407  0.3270
   48MOL   C16035974   2.920   5.980   3.926  0.1904  0.0465  0.6214
   48MOL   O16135975   2.966   6.014   4.036  0.0680 -0.0464  0.0838
   48MOL   N16235976   2.852   5.866   3.909  1.0421 -0.4667 -0.4371
   48MOL   C16335977   2.829   5.774   4.024  0.9512  0.1453  0.0696
   48MOL   C16435978   2.705   5.697   4.003 -0.4073  0.2027  0.6153
   48MOL   C16535979   2.577   5.787   3.994 -0.1079 -0.2266  0.4432
   48MOL   C16635980   2.446   5.703   3.978 -0.0542 -0.0064 -0.2066
   48MOL   C16735981   2.308   5.775   3.961 -0.4040  0.0651  0.3537
   48MOL   C16835982   2.274   5.868   4.082  0.0589  0.4561 -0.5567
   48MOL   N16935983   2.158   5.950   4.049 -0.3392  0.5678  0.3439
   48MOL   H17035984   3.242   6.141   3.564  0.8796  1.2194 -0.4394
   48MOL   H17135985   3.285   6.267   3.675  0.0212  0.0859  0.7325
   48MOL   H17235986   3.018   6.306   3.679  0.6304 -0.2631  0.1614
   48MOL   H17335987   3.002   6.195   3.549  0.7264 -1.2265 -1.1945
   48MOL   H17435988   3.131   6.121   3.818 -0.7307 -1.6034  1.4411
   48MOL   H17535989   3.086   6.015   3.692  1.0681 -1.8397  4.1183
   48MOL   H17635990   2.845   6.043   3.723  1.7195  0.8598 -1.1388
   48MOL   H17735991   2.872   6.171   3.840 -0.1434  0.1013  1.0474
   48MOL   H17835992   2.817   5.843   3.817 -0.5355  0.8316 -0.1801
   48MOL   H17935993   2.908   5.699   4.020  0.4274 -0.4099 -0.0817
   48MOL   H18035994   2.835   5.827   4.119 -0.3792 -0.1139  0.3090
   48MOL   H18135995   2.724   5.640   3.912 -0.6236  0.4293  0.4275
   48MOL   H18235996   2.710   5.622   4.083 -0.3597  0.6969  1.0747
   48MOL   H18335997   2.579   5.851   3.906  2.2710 -0.3782  0.3780
   48MOL   H18435998   2.566   5.858   4.076  0.2619  0.1119  0.1975
   48MOL   H18535999   2.462   5.640   3.890  0.9733  0.1982 -0.1668
   48MOL   H18636000   2.451   5.637   4.065 -3.6428 -0.6718 -0.4217
   48MOL   H18736001   2.293   5.830   3.868  2.0448  1.2892  0.6147
   48MOL   H18836002   2.237   5.694   3.951 -1.5965  0.9410  1.6140
   48MOL   H18936003   2.360   5.930   4.109 -0.7903  1.1761  0.5780
   48MOL   H19036004   2.255   5.802   4.167 -1.3212 -1.3726 -2.2276
   48MOL   H19136005   2.073   5.911   4.009  0.2613 -1.2756  0.8053
   48MOL   C19236006   2.146   6.080   4.063 -0.1436  0.5126  0.2740
   48MOL   O19336007   2.242   6.147   4.112  0.3458 -0.2718 -0.2853
   48MOL   C19436008   2.013   6.144   4.028  0.0379  0.3903 -0.2338
   48MOL   C19536009   1.896   6.112   4.124  0.2007 -0.1387  0.1437
   48MOL   C19636010   1.912   6.175   4.265 -0.0480 -0.3517 -0.5851
   48MOL   C19736011   1.778   6.186   4.345  0.1438 -0.1016 -0.0374
   48MOL   C19836012   1.671   6.260   4.270  0.1841  0.5529 -0.1278
   48MOL   O19936013   1.701   6.371   4.220  0.0358 -0.2211 -0.1259
   48MOL   N20036014   1.550   6.204   4.265 -0.2039  0.3721 -0.1834
   48MOL   C20136015   1.444   6.247   4.173 -0.3389  0.2269 -1.3053
   48MOL   C20236016   1.484   6.217   4.030 -0.4041  0.2677  0.1888
   48MOL   C20336017   1.484   6.070   3.999  0.2782  0.1694 -0.7939
   48MOL   C20436018   1.532   6.043   3.855  0.4901 -0.0038 -0.2229
   48MOL   C20536019   1.540   5.890   3.830 -0.3669  0.3728 -0.4232
   48MOL   C20636020   1.623   5.868   3.701 -0.3054 -0.3254 -0.4780
   48MOL   N20736021   1.551   5.926   3.591 -0.4561 -0.0524  0.4904
   48MOL   H20836022   2.025   6.252   4.017 -0.0307  0.4533  0.2877
   48MOL   H20936023   1.976   6.116   3.929  0.1139  0.8603 -0.3976
   48MOL   H21036024   1.811   6.153   4.069 -0.2149  0.9780  1.6027
   48MOL   H21136025   1.887   6.003   4.123  0.3662 -0.1605  1.1488
   48MOL   H21236026   1.963   6.272   4.263  0.8108 -0.7318  1.3037
   48MOL   H21336027   1.981   6.111   4.319 -0.8085 -0.5664  0.1328
   48MOL   H21436028   1.792   6.222   4.448 -2.6508 -0.6122  0.5704
   48MOL   H21536029   1.748   6.082   4.357 -1.3150  0.2019 -0.9416
   48MOL   H21636030   1.551   6.112   4.307  0.9400  0.7840  0.7119
   48MOL   H21736031   1.353   6.194   4.200 -1.2262  1.3973 -1.9624
   48MOL   H21836032   1.431   6.355   4.180  0.0173  0.2166 -0.3786
   48MOL   H21936033   1.415   6.247   3.951  1.0127 -0.3212 -1.3166
   48MOL   H22036034   1.585   6.252   4.009 -0.3706  1.6847  2.5267
   48MOL   H22136035   1.380   6.037   4.006 -0.1980  1.5501 -1.0718
   48MOL   H22236036   1.541   6.008   4.069 -0.4001 -0.4958 -0.8323
   48MOL   H22336037   1.463   6.079   3.779  2.4294  3.7764 -0.2875
   48MOL   H22436038   1.623   6.099   3.836 -0.2103  0.7168 -1.5262
   48MOL   H22536039   1.595   5.848   3.914  1.5598  0.7409 -1.4569
   48MOL   H22636040   1.442   5.843   3.832 -0.6581  0.9918  0.1520
   48MOL   H22736041   1.639   5.762   3.681  3.0674 -0.0618  0.4383
   48MOL   H22836042   1.713   5.930   3.711 -0.5898 -0.0795  0.6117
   48MOL   H22936043   1.573   6.022   3.569 -0.1751  0.1844  1.7578
   48MOL   C23036044   1.460   5.864   3.513 -0.6106  0.6297 -0.4816
   48MOL   O23136045   1.435   5.742   3.523 -0.4182 -0.6534  0.2241
   48MOL   C23236046   1.394   5.955   3.413  1.0038 -0.0966 -0.3560
   48MOL   C23336047   1.248   5.908   3.368  0.0909  0.4858  0.3702
   48MOL   C23436048   1.249   5.771   3.282 -0.6443 -0.4490 -0.1148
   48MOL   C23536049   1.115   5.728   3.228 -0.5863  0.1857 -0.1622
   48MOL   C23636050   1.013   5.691   3.339  0.2820  0.2399 -0.0769
   48MOL   O23736051   1.044   5.613   3.428  0.1504 -0.3785 -0.1477
   48MOL   N23836052   0.892   5.744   3.322  0.1848  0.4105  0.2499
   48MOL   C23936053   0.779   5.727   3.401 -0.0781 -0.9891 -0.0737
   48MOL   C24036054   0.790   5.799   3.542  0.2560 -0.0236 -0.0385
   48MOL   C24136055   0.656   5.782   3.623 -0.6051 -1.1539  0.3236
   48MOL   C24236056   0.622   5.911   3.700 -0.0072  0.2225  0.7736
   48MOL   C24336057   0.718   5.950   3.807 -0.3259 -0.0847 -0.4228
   48MOL   C24436058   0.680   6.087   3.864  0.2644  0.5258  0.2170
   48MOL   N24536059   0.684   6.187   3.747 -0.0042  0.3647 -0.4149
   48MOL   H24636060   1.384   6.051   3.462  0.0276 -1.2021  1.6801
   48MOL   H24736061   1.471   5.960   3.336  1.6754 -1.6224  0.1956
   48MOL   H24836062   1.178   5.916   3.451  0.1789  0.1781  0.4772
   48MOL   H24936063   1.200   5.976   3.297  0.9388 -1.1905 -1.8922
   48MOL   H25036064   1.287   5.684   3.337 -3.8624 -1.6549  0.3396
   48MOL   H25136065   1.324   5.782   3.203  2.1180  0.1445  2.5067
   48MOL   H25236066   1.127   5.655   3.148  1.8906  0.8996 -0.4907
   48MOL   H25336067   1.078   5.817   3.178  1.3462  1.2110  0.1812
   48MOL   H25436068   0.878   5.793   3.235  2.2878  0.0999 -0.2839
   48MOL   H25536069   0.690   5.759   3.347  0.6334 -0.6184 -1.0266
   48MOL   H25636070   0.760   5.619   3.401  1.2074 -1.2210  0.0797
   48MOL   H25736071   0.866   5.759   3.609  0.2153 -0.0649 -0.0173
   48MOL   H25836072   0.814   5.905   3.533 -0.2949  0.2118  1.1729
   48MOL   H25936073   0.647   5.690   3.680  0.0240 -0.0649  2.2414
   48MOL   H26036074   0.582   5.786   3.544 -0.2222 -0.5575 -0.0088
   48MOL   H26136075   0.617   5.991   3.626 -1.2154  0.4847  1.1133
   48MOL   H26236076   0.518   5.900   3.733 -0.5224 -0.3044 -1.0153
   48MOL   H26336077   0.719   5.865   3.874 -1.0635  0.8228  0.7576
   48MOL   H26436078   0.818   5.957   3.763 -0.1918  2.6227  0.2041
   48MOL   H26536079   0.754   6.116   3.939  1.1730  0.6819 -0.7211
   48MOL   H26636080   0.583   6.083   3.913  0.3439  0.2267  0.3458
   48MOL   H26736081   0.747   6.167   3.671  0.0821 -0.5340 -0.1220
   48MOL   C26836082   0.610   6.301   3.731  0.8193 -0.3415 -0.7662
   48MOL   O26936083   0.545   6.333   3.825  0.8745  0.4005  0.1083
   48MOL   C27036084   0.630   6.391   3.606  0.4049  0.4429 -0.1673
   48MOL   C27136085   0.597   6.536   3.631  0.6130 -0.1971  0.0191
   48MOL   C27236086   0.593   6.605   3.502 -0.3427  0.6191 -0.1847
   48MOL   C27336087   0.599   6.758   3.517 -0.0808 -0.0234  0.4413
   48MOL   C27436088   0.451   6.808   3.547 -0.2367 -0.1453 -0.7404
   48MOL   O27536089   0.350   6.747   3.524  0.1453 -0.1087  0.2527
   48MOL   N27636090   0.442   6.922   3.616  0.1200 -0.4946  0.1419
   48MOL   C27736091   0.323   6.979   3.677  0.2290 -0.3292 -0.0443
   48MOL   C27836092   0.327   6.977   3.836 -0.0645 -0.1679 -0.1894
   48MOL   C27936093   0.356   6.837   3.896  0.0550  0.4684 -0.0038
   48MOL   C28036094   0.505   6.806   3.935  0.9605 -0.1538  0.0706
   48MOL   C28136095   0.525   6.663   3.983  0.7739 -0.3811 -0.4909
   48MOL   C28236096   0.667   6.621   3.997  1.0358 -0.3982 -0.1198
   48MOL   N28336097   0.678   6.487   4.052  0.0708 -0.1352  1.3106
   48MOL   H28436098   0.726   6.369   3.561  0.4287 -0.8680  0.5029
   48MOL   H28536099   0.560   6.353   3.532  2.1794 -1.8295 -0.7229
   48MOL   H28636100   0.498   6.541   3.676 -0.5979  0.9092 -2.6602
   48MOL   H28736101   0.664   6.581   3.704 -0.8827 -0.0666  1.3363
   48MOL   H28836102   0.505   6.583   3.441  0.8438 -0.7727 -1.4180
   48MOL   H28936103   0.681   6.570   3.449 -0.3520  0.3661 -0.0303
   48MOL   H29036104   0.632   6.820   3.434  1.3465  1.0794  1.7797
   48MOL   H29136105   0.672   6.783   3.594  1.4178 -2.2179 -0.2265
   48MOL   H29236106   0.533   6.964   3.630  0.5013 -1.4440  0.5781
   48MOL   H29336107   0.321   7.083   3.644 -1.0091 -0.3949 -0.1810
   48MOL   H29436108   0.233   6.936   3.634 -0.5363  0.1989  1.0193
   48MOL   H29536109   0.405   7.039   3.880 -2.4409  2.7156  0.1497
   48MOL   H29636110   0.231   7.013   3.875 -0.8798 -2.3473 -0.0988
   48MOL   H29736111   0.310   6.762   3.831  1.4073  0.0139 -0.4541
   48MOL   H29836112   0.300   6.831   3.989  0.0754 -3.1444 -0.1430
   48MOL   H29936113   0.574   6.824   3.852  1.6840 -1.0846  0.4618
   48MOL   H30036114   0.541   6.871   4.015  2.4606 -1.2675  0.3343
   48MOL   H30136115   0.471   6.649   4.076  0.2127 -0.4532 -0.8264
   48MOL   H30236116   0.470   6.609   3.906 -0.5098  2.5217 -1.7228
   48MOL   H30336117   0.726   6.686   4.060  0.9211  0.9082 -1.3280
   48MOL   H30436118   0.718   6.627   3.900 -3.0263  0.4020 -2.3267
   48MOL   H30536119   0.680   6.425   3.972 -4.3474  2.3653 -0.9042
   48MOL   C30636120   0.683   6.440   4.178 -0.5061  0.2687  0.0706
   48MOL   O30736121   0.657   6.509   4.278 -0.1361 -0.4519  0.1145
   48MOL   C30836122   0.715   6.288   4.198  0.3285 -0.4484 -0.0627
   48MOL   C30936123   0.593   6.207   4.201 -0.1028  0.3734 -0.0885
   48MOL   C31036124   0.632   6.059   4.234  0.3435 -0.4921  0.1045
   48MOL   C31136125   0.499   5.976   4.259  0.4804  0.0394  0.2819
   48MOL   C31236126   0.531   5.831   4.269 -0.2872 -0.1974 -0.2334
   48MOL   O31336127   0.645   5.798   4.294  0.1060  0.4419 -0.0455
   48MOL   N31436128   0.432   5.743   4.252  0.0492  0.4824  0.6745
   48MOL   C31536129   0.435   5.592   4.253  0.1244  0.5257 -0.0282
   48MOL   C31636130   0.344   5.529   4.360  0.2085  0.2926  0.7749
   48MOL   C31736131   0.377   5.562   4.504  0.4966 -0.1813  0.2778
   48MOL   C31836132   0.519   5.522   4.555  0.4989 -0.1680 -0.1138
   48MOL   C31936133   0.542   5.365   4.562  0.0983  0.0408 -0.0665
   48MOL   C32036134   0.679   5.329   4.613 -0.2730  0.4087 -0.2243
   48MOL   N32136135   0.709   5.183   4.619  0.2540  0.0908 -0.1875
   48MOL   H32236136   0.784   6.255   4.120  1.6818  2.5879 -0.2180
   48MOL   H32336137   0.778   6.274   4.286 -1.4558 -2.3988  0.9267
   48MOL   H32436138   0.518   6.246   4.270  0.0335 -0.5282  0.5928
   48MOL   H32536139   0.543   6.203   4.104  0.5583  2.7865 -0.5528
   48MOL   H32636140   0.701   6.039   4.316  0.7493  1.4666  0.2507
   48MOL   H32736141   0.685   6.009   4.153  1.0325  0.6655 -0.1602
   48MOL   H32836142   0.426   5.982   4.179 -1.7290  0.3702  2.2483
   48MOL   H32936143   0.463   6.004   4.358  0.9064  0.8306  0.2119
   48MOL   H33036144   0.343   5.785   4.228  0.8993  0.9416 -1.8842
   48MOL   H33136145   0.414   5.562   4.151  0.1186  3.0008 -0.7886
   48MOL   H33236146   0.537   5.557   4.274 -0.3717 -1.0207 -0.1956
   48MOL   H33336147   0.247   5.553   4.317  0.5376 -1.2126 -0.8796
   48MOL   H33436148   0.351   5.420   4.356  0.6070  0.3333  0.2425
   48MOL   H33536149   0.295   5.519   4.561 -1.8435  0.9008 -2.1662
   48MOL   H33636150   0.371   5.671   4.507  0.6113 -0.1506 -0.4458
   48MOL   H33736151   0.594   5.571   4.493 -1.1331  1.0206 -1.2162
   48MOL   H33836152   0.526   5.557   4.658 -0.5598 -0.9105  0.2193
   48MOL   H33936153   0.468   5.308   4.618 -0.2130  0.5943  0.0927
   48MOL   H34036154   0.530   5.332   4.459 -0.9214  0.0252  0.0452
   48MOL   H34136155   0.697   5.370   4.712  2.3517  0.4710 -0.6767
   48MOL   H34236156   0.756   5.377   4.552 -1.5142  1.7677 -0.7302
   48MOL   H34336157   0.718   5.146   4.525 -0.8881 -2.3723  0.6404
   48MOL   C34436158   0.710   5.112   4.728 -0.1417  0.5672  0.0333
   48MOL   O34536159   0.708   5.161   4.839  0.4819  0.4045 -0.4557
   48MOL   C34636160   0.744   4.969   4.707 -0.1775  0.4212 -0.3603
   48MOL   C34736161   0.705   4.868   4.811  0.6984  0.3658  0.3147
   48MOL   C34836162   0.564   4.836   4.830  0.0421 -0.3099  0.3926
   48MOL   C34936163   0.512   4.747   4.723 -0.5191  0.5441 -0.3673
   48MOL   C35036164   0.368   4.705   4.737 -0.8086  0.5412  0.3094
   48MOL   O35136165   0.312   4.726   4.845  0.3346 -0.4440 -0.3952
   48MOL   N35236166   0.322   4.630   4.637  0.5557  0.2740  0.0165
   48MOL   C35336167   0.195   4.562   4.658 -0.1635 -0.0097  0.2354
   48MOL   C35436168   0.073   4.642   4.626  0.1489  0.2415  0.7311
   48MOL   C35536169   7.649   4.558   4.651  0.1715 -0.2877 -0.4928
   48MOL   C35636170   7.625   4.511   4.796 -0.3928 -0.3292 -0.1052
   48MOL   C35736171   7.510   4.409   4.799 -0.6081  0.1755  0.1034
   48MOL   C35836172   7.495   4.334   4.929  0.5121 -0.1925 -0.4585
   48MOL   N35936173   7.586   4.218   4.931 -0.3032 -0.9209  0.0337
   48MOL   H36036174   0.725   4.933   4.606 -0.1127  0.1628 -0.2823
   48MOL   H36136175   0.853   4.970   4.705 -0.1835 -0.0402 -1.7970
   48MOL   H36236176   0.760   4.776   4.791 -0.6950 -0.6828  1.1851
   48MOL   H36336177   0.739   4.898   4.910  1.0935 -1.0218  0.6150
   48MOL   H36436178   0.504   4.926   4.840  1.5868  0.7675  0.2501
   48MOL   H36536179   0.548   4.782   4.924 -1.1481 -0.7566 -0.0608
   48MOL   H36636180   0.583   4.664   4.713 -1.4469 -0.2336 -0.5869
   48MOL   H36736181   0.517   4.783   4.621  0.0382  0.8192 -0.2453
   48MOL   H36836182   0.380   4.628   4.554 -1.2962 -1.5354 -1.2797
   48MOL   H36936183   0.206   4.472   4.597  0.3949  1.0514 -1.2680
   48MOL   H37036184   0.179   4.531   4.761 -0.0301  1.3228  0.6673
   48MOL   H37136185   0.069   4.730   4.691 -0.1379  1.3306 -0.7377
   48MOL   H37236186   0.089   4.680   4.525 -2.7250 -1.9744 -0.5919
   48MOL   H37336187   7.651   4.479   4.577 -0.3621 -0.8069  0.0429
   48MOL   H37436188   7.558   4.615   4.631  0.0063  0.1746  1.4642
   48MOL   H37536189   0.010   4.471   4.837  0.1137  2.2727  1.4235
   48MOL   H37636190   7.608   4.606   4.847 -1.3097  0.3335 -1.6193
   48MOL   H37736191   7.417   4.457   4.768  0.5370  1.6669 -1.0751
   48MOL   H37836192   7.522   4.341   4.715 -2.3037  0.1783 -0.1568
   48MOL   H37936193   7.393   4.304   4.952  0.7518  0.8298  2.1169
   48MOL   H38036194   7.516   4.392   5.019 -0.6834  0.3818 -0.5389
   48MOL   H38136195   7.681   4.236   4.901  0.3253 -0.1424  2.4308
   48MOL   C38236196   7.551   4.098   4.973  0.2105  0.5854  0.2274
   48MOL   O38336197   7.435   4.064   4.984  0.4804 -0.0066  0.2047
   48MOL   C38436198   7.660   3.988   4.977 -0.8133  0.1085  0.1534
   48MOL   C38536199   0.007   3.967   5.123  0.8035  0.2193 -0.2777
   48MOL   C38636200   7.610   3.903   5.217 -0.7618 -0.2756 -0.4906
   48MOL   C38736201   7.672   3.821   5.325  0.5287 -0.5276  0.3967
   48MOL   C38836202   0.049   3.902   5.422 -0.0169  0.5970  0.5080
   48MOL   O38936203   7.705   3.973   5.516  0.2248  0.4713  0.3267
   48MOL   N39036204   0.180   3.887   5.404  0.9690  0.2304  0.3957
   48MOL   C39136205   0.285   3.935   5.491  0.6137  0.4893 -0.0415
   48MOL   C39236206   0.372   4.040   5.424  0.5970  0.7714  0.6998
   48MOL   C39336207   0.308   4.173   5.391  0.6039 -0.1348 -0.6066
   48MOL   C39436208   0.227   4.239   5.503  0.1668  0.0962 -0.6537
   48MOL   C39536209   0.184   4.384   5.468 -0.4703 -0.2634  0.3297
   48MOL   C39636210   0.075   4.439   5.551  0.1709  0.4572  0.0293
   48MOL   N39736211   0.046   4.575   5.507 -0.0458 -0.3369  0.1350
   48MOL   H39836212   7.631   3.891   4.937  1.2065  0.2949 -1.8534
   48MOL   H39936213   0.038   4.015   4.916  0.3476  1.8909  2.4896
   48MOL   H40036214   0.092   3.899   5.110  0.4579 -0.9392  3.0780
   48MOL   H40136215   0.040   4.058   5.171  2.9329 -0.4625 -0.3880
   48MOL   H40236216   7.538   3.839   5.166 -0.9874 -0.2557 -0.1977
   48MOL   H40336217   7.554   3.988   5.257  1.6778  1.7188 -1.1497
   48MOL   H40436218   0.025   3.737   5.293  0.4900 -0.4887  0.2191
   48MOL   H40536219   7.595   3.763   5.375 -0.9376  1.1990  0.1772
   48MOL   H40636220   0.216   3.836   5.325  0.0932  0.0775  0.1001
   48MOL   H40736221   0.246   3.958   5.590 -0.9901 -0.3553 -0.4494
   48MOL   H40836222   0.343   3.842   5.494 -1.8704 -1.1300 -0.2466
   48MOL   H40936223   0.458   4.051   5.489  0.2107 -2.4754  1.8587
   48MOL   H41036224   0.420   4.004   5.333 -1.0760  0.5327 -0.1089
   48MOL   H41136225   0.243   4.151   5.306  1.7939 -0.1044 -1.5442
   48MOL   H41236226   0.386   4.244   5.361 -0.4757  1.4097  0.2079
   48MOL   H41336227   0.139   4.178   5.521  0.3331 -0.4704 -1.6861
   48MOL   H41436228   0.280   4.244   5.598 -1.7882 -1.2071  0.5275
   48MOL   H41536229   0.266   4.455   5.477  0.6384 -1.2321 -1.6297
   48MOL   H41636230   0.147   4.383   5.365  4.6702 -0.8140 -1.6771
   48MOL   H41736231   0.098   4.431   5.657  0.5401  0.9795 -0.0055
   48MOL   H41836232   7.691   4.386   5.530  0.7730  0.1590 -2.0329
   48MOL   H41936233   0.105   4.620   5.438 -0.8125  0.6293  0.0924
   48MOL   C42036234   7.635   4.635   5.533  0.2193  0.1966 -0.2139
   48MOL   O42136235   7.541   4.575   5.589  0.1123 -0.0668  0.4668
   48MOL   C42236236   7.628   4.781   5.499 -0.4367 -0.2362  0.7156
   48MOL   C42336237   7.517   4.823   5.408  0.2291 -0.0906 -0.3511
   48MOL   C42436238   7.496   4.970   5.393  0.1565  0.3609 -0.3796
   48MOL   C42536239   7.390   5.023   5.286  0.0402 -0.1649 -0.4134
   48MOL   C42636240   7.448   4.998   5.147  0.1619  0.1847 -0.5389
   48MOL   O42736241   7.549   5.066   5.108  0.1430 -0.3390  0.2508
   48MOL   N42836242   7.416   4.895   5.079 -0.2815 -0.2580 -0.2850
   48MOL   C42936243   7.458   4.847   4.949  0.2902  0.1827  0.0965
   48MOL   C43036244   7.372   4.911   4.839 -0.2128  0.4141  0.5168
   48MOL   C43136245   7.426   4.896   4.694 -0.3489  0.3808  0.3800
   48MOL   C43236246   7.372   5.007   4.603 -0.0423 -0.0402  0.7556
   48MOL   C43336247   7.410   4.986   4.452  0.5362  0.6656  0.2144
   48MOL   C43436248   7.389   5.113   4.370 -0.1171  0.0844 -0.1083
   48MOL   N43536249   7.251   5.156   4.351 -0.1974 -0.4351 -0.1846
   48MOL   H43636250   7.614   4.826   5.597 -1.2966 -0.2321  0.6013
   48MOL   H43736251   0.012   4.813   5.451 -0.8184  1.4174  1.0820
   48MOL   H43836252   7.530   4.775   5.311  0.3176 -2.5837  0.8699
   48MOL   H43936253   7.421   4.789   5.447  1.0645  0.0491  1.8478
   48MOL   H44036254   7.593   5.003   5.356  0.7793 -0.5671  0.3934
   48MOL   H44136255   7.480   5.024   5.486  0.8039 -1.9618  1.1309
   48MOL   H44236256   7.372   5.129   5.302  0.2524 -0.0834 -0.7282
   48MOL   H44336257   7.296   4.974   5.312  1.2721 -0.3152  4.1117
   48MOL   H44436258   7.346   4.835   5.121 -0.0413  0.2965  0.9274
   48MOL   H44536259   7.562   4.872   4.930  0.0039  1.5155  0.2672
   48MOL   H44636260   7.445   4.739   4.940  1.9716  0.1061 -1.5895
   48MOL   H44736261   7.280   4.854   4.829  0.1134 -0.1404  0.6672
   48MOL   H44836262   7.346   5.013   4.867 -1.0653  0.5844 -0.8329
   48MOL   H44936263   7.389   4.799   4.660  1.2913 -0.1701  0.1169
   48MOL   H45036264   7.532   4.877   4.679 -0.6990 -2.0380  0.8421
   48MOL   H45136265   7.263   5.013   4.607 -0.1490 -1.6955  0.6805
   48MOL   H45236266   7.407   5.100   4.649  3.3615 -1.2226  0.6471
   48MOL   H45336267   7.517   4.965   4.457  0.1994 -1.0018  0.7661
   48MOL   H45436268   7.361   4.897   4.414  1.9191 -0.5827  1.2981
   48MOL   H45536269   7.433   5.089   4.272  1.2780  2.3786 -0.0847
   48MOL   H45636270   7.447   5.196   4.411 -0.0557 -0.6604  1.3161
   48MOL   H45736271   7.210   5.210   4.425 -1.4636 -3.3710  1.2932
   48MOL   C45836272   7.164   5.118   4.258  0.0084 -0.1711 -0.7054
   48MOL   O45936273   7.196   5.042   4.167 -0.0946 -0.2161  0.5782
   48MOL   C46036274   7.020   5.149   4.278  0.0140  0.1845  0.7316
   48MOL   C46136275   6.920   5.109   4.161  0.1045  0.0783 -0.2357
   48MOL   C46236276   6.783   5.110   4.220  0.4627 -0.5962  0.3363
   48MOL   C46336277   6.671   5.047   4.141 -0.1611  0.3758 -0.1174
   48MOL   C46436278   6.692   4.890   4.130  0.1478 -0.4046  0.5453
   48MOL   O46536279   6.654   4.817   4.218  0.0812  0.2598 -0.1345
   48MOL   N46636280   6.758   4.851   4.016  0.0413 -0.0266  0.5500
   48MOL   C46736281   6.776   4.713   3.995  0.7172  0.8545 -0.3141
   48MOL   C46836282   6.889   4.636   4.079 -0.1147  0.2945  0.0676
   48MOL   C46936283   7.029   4.707   4.077  0.3516  0.3741 -1.1400
   48MOL   C47036284   7.131   4.625   4.155 -0.0245  0.5980 -0.5973
   48MOL   C47136285   7.263   4.695   4.182  1.0576 -0.1351  0.5634
   48MOL   C47236286   7.345   4.639   4.296  0.2772  0.3248  0.2523
   48MOL   N47336287   7.336   4.500   4.302 -0.7513  0.3521  0.1860
   48MOL   H47436288   6.985   5.088   4.361  1.1586  0.6652  1.5698
   48MOL   H47536289   7.008   5.251   4.313  0.5969 -0.0862  1.7329
   48MOL   H47636290   6.934   5.169   4.072 -2.3184 -0.0752 -0.7599
   48MOL   H47736291   6.940   5.003   4.142 -1.2982 -0.4147  0.8954
   48MOL   H47836292   6.762   5.214   4.242 -3.1132 -1.2900  0.4485
   48MOL   H47936293   6.778   5.066   4.319 -0.2784  1.7023  1.3506
   48MOL   H48036294   6.666   5.093   4.043  2.6905 -0.4973 -0.7340
   48MOL   H48136295   6.579   5.063   4.198 -0.7179 -0.9635 -0.5998
   48MOL   H48236296   6.758   4.919   3.942 -1.1452  0.3697  0.8940
   48MOL   H48336297   6.678   4.672   4.017  0.4491  0.7944 -1.5802
   48MOL   H48436298   6.795   4.698   3.889 -0.5749 -0.2307 -0.4033
   48MOL   H48536299   6.865   4.620   4.184  0.3893  1.6131  0.3965
   48MOL   H48636300   6.898   4.544   4.021 -1.0366  0.5523 -0.4983
   48MOL   H48736301   7.027   4.806   4.123  1.3273 -0.5863  1.0293
   48MOL   H48836302   7.065   4.719   3.975  3.6433  0.9995  0.0555
   48MOL   H48936303   7.093   4.598   4.253  0.6804 -1.1677 -0.7941
   48MOL   H49036304   7.166   4.537   4.100  0.8371  0.5855 -0.0482
   48MOL   H49136305   7.317   4.700   4.088  0.4590 -1.4453  0.1470
   48MOL   H49236306   7.223   4.795   4.204  2.4468  0.9919 -1.8614
   48MOL   H49336307   7.299   4.675   4.388 -1.4175 -2.2767  0.4599
   48MOL   H49436308   7.452   4.661   4.297  0.4451 -0.4772  2.0785
   48MOL   H49536309   7.322   4.456   4.213 -0.2789 -0.1884  0.3735
   48MOL   C49636310   7.301   4.427   4.408 -0.4631 -0.4142  0.9120
   48MOL   O49736311   7.333   4.466   4.521  0.7986 -0.1146 -0.1485
   48MOL   C49836312   7.227   4.294   4.382  0.2285  0.6445 -0.0669
   48MOL   C49936313   7.322   4.173   4.384  0.1317 -0.4126  0.0752
   48MOL   C50036314   7.400   4.138   4.517 -0.4197  0.1103  0.3278
   48MOL   C50136315   7.320   4.132   4.643  0.1217 -0.4728  0.6509
   48MOL   C50236316   7.191   4.048   4.653  0.8053 -0.0401  0.1100
   48MOL   O50336317   7.172   3.950   4.575  0.6690 -0.7061  0.0526
   48MOL   N50436318   7.098   4.083   4.739 -0.3586 -0.6647 -0.1772
   48MOL   C50536319   6.954   4.029   4.733 -0.8226 -0.0259 -0.0176
   48MOL   C50636320   6.867   4.145   4.797  0.8242  0.2645  0.2274
   48MOL   C50736321   6.714   4.112   4.798 -0.1241 -0.1789 -0.1550
   48MOL   C50836322   6.667   4.013   4.912  0.5303 -0.6459  0.0644
   48MOL   C50936323   6.514   3.972   4.904  0.3554  0.1089  0.3246
   48MOL   C51036324   6.411   4.079   4.895 -0.5940  0.0996 -1.1292
   48MOL   N51136325   6.289   4.029   4.833 -0.2971  0.0721 -0.6970
   48MOL   H51236326   7.147   4.287   4.456 -1.0920  0.6410 -1.4812
   48MOL   H51336327   7.172   4.299   4.288  0.2332 -1.4258 -0.2063
   48MOL   H51436328   7.263   4.085   4.357 -1.4691  0.7663 -0.3126
   48MOL   H51536329   7.390   4.180   4.299 -0.0674 -1.3680 -0.1738
   48MOL   H51636330   7.476   4.209   4.549 -0.8780 -0.1955  2.1651
   48MOL   H51736331   7.448   4.041   4.507  1.0630  0.7681  1.0287
   48MOL   H51836332   7.289   4.236   4.652  2.1243  0.3372 -1.2784
   48MOL   H51936333   7.379   4.117   4.734 -1.2413 -1.0940  1.4470
   48MOL   H52036334   7.123   4.148   4.812  1.2625 -1.5249  0.0647
   48MOL   H52136335   6.925   4.001   4.632  0.0793  1.0714 -0.5918
   48MOL   H52236336   6.942   3.935   4.786 -0.3855  0.6002  1.2246
   48MOL   H52336337   6.904   4.159   4.898  1.1038 -0.4999  0.2357
   48MOL   H52436338   6.882   4.233   4.734  2.4731 -1.4813 -1.9093
   48MOL   H52536339   6.677   4.067   4.706 -0.7336 -2.2361  1.0682
   48MOL   H52636340   6.662   4.208   4.805 -1.4667 -1.0285  2.4788
   48MOL   H52736341   6.719   3.918   4.919  0.2658 -0.7351  0.8883
   48MOL   H52836342   6.692   4.058   5.008  0.0164  2.4876 -1.2188
   48MOL   H52936343   6.500   3.908   4.817  2.3070 -0.4675  0.4054
   48MOL   H53036344   6.480   3.917   4.992 -0.9111  0.6319  0.1743
   48MOL   H53136345   6.456   4.159   4.835 -0.2491  1.3519  0.7508
   48MOL   H53236346   6.390   4.107   4.998  1.9667  0.0053 -0.5279
   48MOL   H53336347   6.283   4.016   4.733  0.1833  2.1695 -1.0199
   48MOL   C53436348   6.185   3.992   4.902 -0.0088  0.1687 -0.4147
   48MOL   O53536349   6.179   4.001   5.019  0.0798 -0.2429  0.1665
   48MOL   C53636350   6.062   3.929   4.828 -0.5567 -0.0730 -0.8342
   48MOL   C53736351   5.941   3.908   4.920  0.0562  0.7541  0.5023
   48MOL   C53836352   5.944   3.796   5.026  0.8269 -0.0761  0.2476
   48MOL   C53936353   5.845   3.830   5.136 -0.7600  0.1804 -0.1106
   48MOL   C54036354   5.847   3.721   5.244  0.0492 -0.4022  1.1096
   48MOL   O54136355   5.827   3.603   5.217 -0.2269 -0.2100 -0.2041
   48MOL   N54236356   5.849   3.773   5.368  0.2237 -0.3556 -0.5668
   48MOL   C54336357   5.859   3.698   5.489 -0.1281 -0.6815 -0.8092
   48MOL   C54436358   5.990   3.730   5.569  0.2675 -0.0484  0.0144
   48MOL   C54536359   5.998   3.644   5.699 -0.2944  0.1697  0.4576
   48MOL   C54636360   6.101   3.689   5.803  0.4888  0.1520 -0.1199
   48MOL   C54736361   6.241   3.623   5.785  0.1487  0.3832 -0.0958
   48MOL   C54836362   6.247   3.481   5.845 -0.9190  0.0432  0.6495
   48MOL   N54936363   6.374   3.418   5.798 -0.2226  0.8355 -0.1543
   48MOL   H55036364   6.034   3.997   4.748 -1.7488  1.0613  0.5394
   48MOL   H55136365   6.071   3.832   4.779  1.6253 -1.4654  2.1584
   48MOL   H55236366   5.926   4.002   4.974 -2.6181  0.3127  0.5744
   48MOL   H55336367   5.844   3.901   4.872  0.0739  0.3171  0.5262
   48MOL   H55436368   6.042   3.785   5.072  1.4730 -1.7659 -1.4660
   48MOL   H55536369   5.919   3.696   4.990  1.4646 -0.0774 -0.1974
   48MOL   H55636370   5.743   3.832   5.099 -0.9037 -1.7039  0.0997
   48MOL   H55736371   5.868   3.930   5.171  1.0573 -1.0435  2.3429
   48MOL   H55836372   5.856   3.874   5.363 -1.4017 -0.2813 -1.6667
   48MOL   H55936373   5.766   3.709   5.545  1.3716  1.7100  1.3197
   48MOL   H56036374   5.872   3.595   5.457 -1.4067 -0.8204 -0.8917
   48MOL   H56136375   6.084   3.728   5.513 -0.7094 -1.4723 -1.6245
   48MOL   H56236376   5.969   3.830   5.606  2.3940 -0.0359  1.3112
   48MOL   H56336377   6.013   3.541   5.669  0.3746  0.2774  0.4166
   48MOL   H56436378   5.902   3.637   5.749  0.0757  0.1760  1.1718
   48MOL   H56536379   6.106   3.798   5.798 -1.2278  0.2224 -0.6918
   48MOL   H56636380   6.064   3.678   5.905  0.2594 -1.2634 -0.3373
   48MOL   H56736381   6.265   3.626   5.679  0.4260  1.7320 -0.0044
   48MOL   H56836382   6.301   3.687   5.850  1.9936 -0.2829 -1.1140
   48MOL   H56936383   6.159   3.419   5.824 -0.3702 -0.6218  0.2397
   48MOL   H57036384   6.260   3.490   5.952 -0.8615 -1.8647  0.8218
   48MOL   H57136385   6.449   3.478   5.767 -0.2219  1.2661  0.6696
   48MOL   C57236386   6.393   3.281   5.791 -0.6056  0.5237 -0.3007
   48MOL   O57336387   6.306   3.193   5.791 -0.4134  0.3085 -0.4725
   48MOL   C57436388   6.537   3.241   5.773  0.3594 -0.4779  0.1772
   48MOL   C57536389   6.577   3.132   5.868  0.1430 -0.7107 -0.4784
   48MOL   C57636390   6.719   3.079   5.847 -0.8356  0.7764 -0.0777
   48MOL   C57736391   6.753   2.975   5.947 -0.3673  0.1637  0.5546
   48MOL   C57836392   6.888   2.923   5.924  0.7126 -0.5601 -0.6228
   48MOL   O57936393   6.906   2.814   5.872 -0.1526  0.1310  0.0476
   48MOL   N58036394   6.987   3.004   5.956 -0.0825  0.6291 -0.0521
   48MOL   C58136395   7.128   2.983   5.917 -0.1194 -0.0968  0.3172
   48MOL   C58236396   7.213   3.053   6.020 -0.2476 -0.3283 -0.1365
   48MOL   C58336397   7.234   3.199   5.984 -0.3056  0.2276 -0.3134
   48MOL   C58436398   7.299   3.287   6.095 -0.3394  0.3267  0.3075
   48MOL   C58536399   7.327   3.436   6.051  0.1973  0.3822 -0.4850
   48MOL   C58636400   7.206   3.513   6.003  0.2674  0.4799 -0.2744
   48MOL   N58736401   7.240   3.653   5.983  0.6225 -0.2331  0.3563
   48MOL   H58836402   6.548   3.210   5.669  0.6382 -2.7509  0.8639
   48MOL   H58936403   6.596   3.329   5.797 -1.6724  0.5254  1.5779
   48MOL   H59036404   6.581   3.164   5.972  0.1082 -1.8384 -0.1326
   48MOL   H59136405   6.504   3.053   5.852 -0.9773  0.1406  0.3732
   48MOL   H59236406   6.786   3.164   5.863  0.6176 -0.3595 -0.0963
   48MOL   H59336407   6.737   3.043   5.746 -1.3519  1.6596 -0.4940
   48MOL   H59436408   6.690   2.887   5.938  2.0279 -1.5410 -0.0389
   48MOL   H59536409   6.744   3.014   6.049  0.9309 -1.0563  1.1657
   48MOL   H59636410   6.961   3.091   6.001 -1.2468  0.8432 -1.1020
   48MOL   H59736411   7.154   2.877   5.915 -2.3246 -0.6392 -0.3658
   48MOL   H59836412   7.153   3.025   5.820  1.4248 -1.5128  0.0813
   48MOL   H59936413   7.168   3.034   6.118 -0.2124 -0.5514 -0.1631
   48MOL   H60036414   7.307   2.999   6.022 -0.2130 -0.2966 -1.0599
   48MOL   H60136415   7.134   3.241   5.974  0.8070  2.5069 -2.2848
   48MOL   H60236416   7.301   3.211   5.899  1.2362 -0.5350  0.7757
   48MOL   H60336417   7.232   3.297   6.181 -1.4347 -1.8812 -0.2692
   48MOL   H60436418   7.393   3.247   6.133  0.2528  1.1945 -0.2109
   48MOL   H60536419   7.369   3.492   6.136  1.6749 -1.2436 -0.1157
   48MOL   H60636420   7.396   3.436   5.966  0.5032  1.0669 -0.2477
   48MOL   H60736421   7.131   3.506   6.082  1.6271  2.3796  1.2357
   48MOL   H60836422   7.167   3.471   5.910 -0.2359 -1.1922  0.6627
   48MOL   H60936423   7.335   3.686   5.991  0.5186  0.5000 -1.2661
   48MOL   C61036424   7.154   3.747   5.940  0.8475  0.2557 -0.0441
   48MOL   O61136425   7.046   3.715   5.889 -0.2578 -0.4869 -0.5678
   48MOL   C61236426   7.199   3.892   5.945 -0.1123 -0.5860  0.1398
   48MOL   C61336427   7.111   3.986   6.030 -0.0773 -0.0359  0.9489
   48MOL   C61436428   7.118   3.962   6.181 -0.2903  0.2915  0.9799
   48MOL   C61536429   7.232   4.033   6.246 -0.0901  0.6461 -0.0869
   48MOL   C61636430   7.206   4.182   6.276 -0.0646 -0.4497  0.2177
   48MOL   O61736431   7.097   4.218   6.321  0.0611  0.2998  0.0983
   48MOL   N61836432   7.307   4.260   6.247 -0.6570 -0.0903 -0.0052
   48MOL   C61936433   7.308   4.406   6.276 -0.3778  0.4057  0.4968
   48MOL   C62036434   7.355   4.452   6.421 -0.3833 -0.1540  0.1974
   48MOL   C62136435   7.254   4.411   6.531  0.0306  0.2093 -0.2367
   48MOL   C62236436   7.280   4.460   6.685 -0.7164  0.5044  0.4711
   48MOL   C62336437   7.353   4.365   6.786 -0.4596  0.2676 -0.1203
   48MOL   C62436438   7.265   4.250   6.841 -0.1277  0.6937 -1.1291
   48MOL   N62536439   7.229   4.153   6.739  0.4469 -0.3520  0.3319
   48MOL   H62636440   7.295   3.890   5.997  0.2010 -0.5133 -0.4327
   48MOL   H62736441   7.211   3.926   5.843 -0.8053 -0.5754  0.0588
   48MOL   H62836442   7.146   4.086   6.008  1.6229 -0.8305 -0.0624
   48MOL   H62936443   7.011   3.985   5.986 -0.1361 -1.2597  1.0924
   48MOL   H63036444   7.137   3.858   6.207 -2.3761 -0.2925  0.2513
   48MOL   H63136445   7.020   3.987   6.221 -1.4010  0.1603 -1.5560
   48MOL   H63236446   7.331   4.012   6.206 -0.1208 -1.0132  0.6597
   48MOL   H63336447   7.246   3.989   6.345  0.1742 -0.7723 -0.7394
   48MOL   H63436448   7.386   4.227   6.193  1.7636  1.2365  2.5696
   48MOL   H63536449   7.376   4.449   6.203 -0.7812  1.8908  0.9773
   48MOL   H63636450   7.210   4.446   6.249  0.4127  0.8694 -1.7455
   48MOL   H63736451   7.450   4.409   6.452 -0.6750 -0.2369  0.9798
   48MOL   H63836452   7.368   4.560   6.409  1.1750 -0.6095 -2.4904
   48MOL   H63936453   7.232   4.305   6.532  0.0228  0.2099 -0.5880
   48MOL   H64036454   7.165   4.466   6.499  0.7443  2.1802  1.0163
   48MOL   H64136455   7.324   4.560   6.684  1.2121 -0.3167  0.3036
   48MOL   H64236456   7.182   4.472   6.729 -2.0156 -1.8160 -1.6682
   48MOL   H64336457   7.439   4.312   6.746  0.7494  0.2283  2.4029
   48MOL   H64436458   7.395   4.423   6.868  0.7613 -1.2153  0.3244
   48MOL   H64536459   7.170   4.283   6.883 -0.1124  0.3201 -0.7958
   48MOL   H64636460   7.320   4.198   6.920 -2.8703 -1.3417 -0.5135
   48MOL   H64736461   7.206   4.196   6.650  0.4488 -1.2539 -0.1181
   48MOL   C64836462   7.195   4.021   6.745  1.4424  0.3879  0.0442
   48MOL   O64936463   7.212   3.953   6.847 -0.0504  0.2328 -0.1234
   48MOL   C65036464   7.123   3.975   6.626  0.3495  0.5666 -0.1033
   48MOL   C65136465   6.987   3.906   6.644  0.3699  0.3103 -0.4921
   48MOL   C65236466   6.981   3.762   6.705 -0.7006  0.8078 -0.1990
   48MOL   C65336467   6.852   3.684   6.686  0.1883 -0.6409 -0.2239
   48MOL   C65436468   6.807   3.662   6.544  0.7235 -0.1831 -0.1646
   48MOL   O65536469   6.891   3.645   6.455  0.1845 -0.0620 -0.4979
   48MOL   N65636470   6.673   3.673   6.516  0.2714 -0.2547 -0.3103
   48MOL   C65736471   6.607   3.673   6.394  0.5863 -0.0309  0.0889
   48MOL   C65836472   6.455   3.713   6.409 -0.2605  0.3466  0.5942
   48MOL   C65936473   6.358   3.691   6.289  0.5879 -0.3839 -0.1189
   48MOL   C66036474   6.224   3.753   6.307 -0.2257  0.4067 -0.2886
   48MOL   C66136475   6.133   3.744   6.176  0.9939 -0.1354  0.1659
   48MOL   C66236476   6.007   3.836   6.187 -0.6685 -0.3441 -0.0435
   48MOL   N66336477   6.053   3.974   6.177 -0.6637 -0.3761 -0.7094
   48MOL   H66436478   7.090   4.048   6.553  1.1408  0.7292 -0.3017
   48MOL   H66536479   7.188   3.903   6.576  0.7535  0.9615 -0.1398
   48MOL   H66636480   6.938   3.977   6.711  3.1245 -0.9177  2.9788
   48MOL   H66736481   6.935   3.906   6.548  0.5590  3.3851 -0.6557
   48MOL   H66836482   7.012   3.760   6.810  2.0745  0.5092 -0.9840
   48MOL   H66936483   7.052   3.702   6.648 -0.6089  2.2143 -1.6058
   48MOL   H67036484   6.783   3.741   6.748 -1.1628 -1.7231 -0.7175
   48MOL   H67136485   6.866   3.583   6.723  0.7508 -1.0697 -1.5614
   48MOL   H67236486   6.620   3.693   6.600  0.2216  0.0223 -0.4087
   48MOL   H67336487   6.661   3.736   6.323 -0.3358 -0.6211 -1.1682
   48MOL   H67436488   6.584   3.577   6.347 -2.0193 -0.0460  1.3141
   48MOL   H67536489   6.407   3.646   6.480 -0.7044 -2.1329 -1.9755
   48MOL   H67636490   6.446   3.815   6.447 -2.0732  0.6428 -0.5950
   48MOL   H67736491   6.335   3.586   6.271 -0.2609 -0.4017  1.0140
   48MOL   H67836492   6.400   3.721   6.193  0.7467 -1.8562 -0.5324
   48MOL   H67936493   6.169   3.719   6.395  0.1789  0.4637 -0.0154
   48MOL   H68036494   6.249   3.857   6.327 -1.0713  0.5577  0.0498
   48MOL   H68136495   6.190   3.778   6.090  0.6287  1.1002  0.3965
   48MOL   H68236496   6.098   3.643   6.152 -1.6599  0.3095  1.9278
   48MOL   H68336497   5.962   3.818   6.284  0.9484 -0.5821  0.6714
   48MOL   H68436498   5.931   3.827   6.108  1.0304 -0.1599 -1.7403
   48MOL   H68536499   6.143   3.990   6.134  0.5665  0.7449  2.1875
   48MOL   C68636500   5.989   4.087   6.223 -0.9502  0.9764  0.1255
   48MOL   O68736501   5.883   4.078   6.284  0.0331 -0.3623 -0.4470
   48MOL   C68836502   6.055   4.221   6.191 -0.2545 -0.4418  0.6914
   48MOL   C68936503   6.044   4.317   6.309  0.4277 -0.8849 -0.2041
   48MOL   C69036504   6.117   4.279   6.433 -0.4374  0.7028  0.4503
   48MOL   C69136505   6.267   4.318   6.446 -0.0385 -0.1357  0.8560
   48MOL   C69236506   6.339   4.243   6.556  0.2733 -0.0112 -0.8746
   48MOL   O69336507   6.274   4.171   6.637  0.0699  0.6287 -0.3431
   48MOL   N69436508   6.472   4.261   6.553 -0.6927 -0.0550  0.3801
   48MOL   C69536509   6.565   4.208   6.652 -0.8001 -0.1409  0.1569
   48MOL   C69636510   6.710   4.235   6.619  0.1896  0.3093  0.3522
   48MOL   C69736511   6.734   4.380   6.575 -0.0617 -0.5235  0.1815
   48MOL   C69836512   6.880   4.439   6.601 -0.2399 -0.4809 -0.0427
   48MOL   C69936513   6.906   4.575   6.528  0.5687 -0.2906 -0.4042
   48MOL   C70036514   6.907   4.566   6.374  0.2176  0.8355 -0.0115
   48MOL   N70136515   6.924   4.695   6.313  0.3566 -0.8087  0.1162
   48MOL   H70236516   6.155   4.227   6.146 -0.5886  0.2422  0.0279
   48MOL   H70336517   5.998   4.254   6.105  1.3759 -1.3470 -0.7727
   48MOL   H70436518   6.081   4.414   6.276 -1.9397  0.1939  0.2289
   48MOL   H70536519   5.936   4.319   6.317  0.3994 -0.0431 -0.7912
   48MOL   H70636520   6.102   4.172   6.446  2.3203  0.3997  1.5854
   48MOL   H70736521   6.068   4.316   6.523 -2.2803  0.2305 -0.3408
   48MOL   H70836522   6.277   4.425   6.466 -1.6089  0.3441 -0.7955
   48MOL   H70936523   6.324   4.310   6.354  0.8667 -1.8797  1.5553
   48MOL   H71036524   6.510   4.336   6.497  0.7103 -0.6597  0.5077
   48MOL   H71136525   6.544   4.245   6.752  0.3595  0.7818  0.0690
   48MOL   H71236526   6.565   4.099   6.650  0.1016 -0.1345 -0.2105
   48MOL   H71336527   6.765   4.224   6.713  0.7723 -2.2534 -0.2490
   48MOL   H71436528   6.763   4.160   6.559 -0.8932 -0.3391  0.2088
   48MOL   H71536529   6.659   4.447   6.619  2.2196  0.8618  2.0833
   48MOL   H71636530   6.719   4.388   6.468  0.2128  0.6283  0.2179
   48MOL   H71736531   6.912   4.455   6.704 -1.5577 -1.0706  0.4774
   48MOL   H71836532   6.956   4.367   6.571  0.1963 -0.1213  0.2034
   48MOL   H71936533   6.838   4.653   6.562 -1.4737 -1.1010 -2.4964
   48MOL   H72036534   7.003   4.613   6.561  0.5659 -1.7816  1.4155
   48MOL   H72136535   6.821   4.518   6.326  1.1798 -0.2122 -0.7043
   48MOL   H72236536   6.991   4.500   6.352  0.6497  1.2877  0.3021
   48MOL   H72336537   6.837   4.742   6.291  0.5453  0.1355  1.2969
   48MOL   C72436538   7.040   4.758   6.296 -0.1450 -0.5174  0.7154
   48MOL   O72536539   7.142   4.725   6.355 -0.2689 -0.0261  0.1227
   48MOL   C72636540   7.032   4.876   6.197 -0.3893 -0.1559 -0.0567
   48MOL   C72736541   7.104   4.997   6.263 -0.4386 -0.1295 -0.0019
   48MOL   C72836542   7.112   5.111   6.166 -0.5105  0.1814  0.2577
   48MOL   C72936543   7.169   5.242   6.226 -0.9285 -0.3791  0.1068
   48MOL   C73036544   7.269   5.320   6.132 -0.2068 -0.2850  0.4143
   48MOL   O73136545   7.226   5.410   6.056 -0.2365 -0.0359  0.8011
   48MOL   N73236546   7.393   5.272   6.135 -0.0417  0.3336  0.3936
   48MOL   C73336547   7.502   5.327   6.047  0.9176  0.6068  0.5198
   48MOL   C73436548   7.559   5.457   6.102  0.4043 -0.1473  0.4544
   48MOL   C73536549   7.692   5.499   6.047 -0.5958 -0.0246  0.4457
   48MOL   C73636550   0.040   5.636   6.096  0.8097 -0.6198 -0.1157
   48MOL   C73736551   0.123   5.623   6.222 -0.2433  0.0471 -0.3880
   48MOL   C73836552   0.244   5.718   6.237  0.7777  0.5475 -0.3277
   48MOL   N73936553   0.308   5.683   6.359  0.2836 -0.1700 -0.0575
   48MOL   H74036554   7.079   4.849   6.103 -2.3768 -0.2732 -1.0434
   48MOL   H74136555   6.927   4.897   6.178 -0.0558  0.6553 -1.0399
   48MOL   H74236556   7.038   5.026   6.345  2.9713  3.8431  1.5326
   48MOL   H74336557   7.198   4.969   6.311 -1.1734  0.7701  2.0382
   48MOL   H74436558   7.014   5.138   6.127 -1.3866 -1.8207  1.0052
   48MOL   H74536559   7.171   5.079   6.080  0.3528  0.3428  0.7872
   48MOL   H74636560   7.223   5.202   6.312 -0.8175  0.2609  0.3396
   48MOL   H74736561   7.081   5.297   6.260 -0.7778  0.0428 -0.1776
   48MOL   H74836562   7.413   5.219   6.218  2.8697  0.5170 -0.1334
   48MOL   H74936563   7.582   5.253   6.045  0.9918  0.7026 -2.0709
   48MOL   H75036564   7.479   5.329   5.940  2.0160  0.2592  0.2730
   48MOL   H75136565   7.481   5.532   6.085 -2.3446 -3.4042 -1.9384
   48MOL   H75236566   7.571   5.455   6.210 -5.2063  1.7379  1.2837
   48MOL   H75336567   7.688   5.512   5.938 -0.8601 -0.8134  0.3600
   48MOL   H75436568   0.062   5.425   6.062 -0.2603  0.1585 -0.3681
   48MOL   H75536569   0.092   5.691   6.017 -2.5689  2.9735  0.0278
   48MOL   H75636570   7.666   5.704   6.117  0.9314 -0.3739 -0.4310
   48MOL   H75736571   0.064   5.618   6.313 -0.3178 -0.8026 -0.4793
   48MOL   H75836572   0.166   5.523   6.226 -1.2703 -0.3878  0.0328
   48MOL   H75936573   0.216   5.822   6.254 -0.7076 -0.1263  1.4776
   48MOL   H76036574   0.318   5.716   6.157  1.1423 -0.9332  0.0365
   48MOL   H76136575   0.359   5.762   6.394 -1.0144  1.1383 -1.0516
   48MOL   H76236576   0.235   5.681   6.430  1.4117  2.6325  1.2612
   49MOL     C136577   6.312   5.202   4.551  0.0893 -0.2931  0.2173
   49MOL     O236578   6.249   5.191   4.449  0.1851  0.0954 -0.1283
   49MOL     C336579   6.314   5.082   4.642  0.2461  0.3314 -0.0799
   49MOL     C436580   6.423   4.979   4.613 -0.2842  0.6297  0.6567
   49MOL     C536581   6.398   4.904   4.491  0.1617  0.1726  0.2228
   49MOL     C636582   6.488   4.771   4.474  0.3437 -0.4975  0.3398
   49MOL     C736583   6.449   4.662   4.572 -0.4846 -0.5596  0.2913
   49MOL     O836584   6.344   4.594   4.554  0.1997  0.0105 -0.1479
   49MOL     N936585   6.526   4.638   4.680 -0.6374  0.0085  0.0870
   49MOL    C1036586   6.500   4.519   4.763  0.2596  0.3493  0.5737
   49MOL    C1136587   6.503   4.552   4.910  0.4780  0.0079  0.4495
   49MOL    C1236588   6.474   4.426   4.999  0.2177  0.7781  0.1327
   49MOL    C1336589   6.461   4.458   5.148 -0.2139 -0.0570  0.6487
   49MOL    C1436590   6.408   4.333   5.224  0.6198  0.2630 -0.3556
   49MOL    C1536591   6.253   4.323   5.228  0.2906 -0.4408  0.0400
   49MOL    N1636592   6.214   4.190   5.275 -0.1543 -0.7103 -0.4065
   49MOL    H1736593   6.322   5.113   4.746  0.1730  0.7879 -0.2091
   49MOL    H1836594   6.217   5.036   4.625 -0.3147  1.1662  0.8631
   49MOL    H1936595   6.520   5.026   4.601 -0.4354  1.0907  1.1846
   49MOL    H2036596   6.439   4.912   4.698 -0.8270 -0.8480 -0.3709
   49MOL    H2136597   6.424   4.960   4.401 -2.0681 -0.0963 -0.6247
   49MOL    H2236598   6.294   4.874   4.478 -0.0104  0.5030  0.8422
   49MOL    H2336599   6.590   4.801   4.498 -0.0415  0.2513  1.0685
   49MOL    H2436600   6.497   4.723   4.377  2.4997 -0.3122  0.4240
   49MOL    H2536601   6.602   4.701   4.700  1.3801 -2.0259 -0.9156
   49MOL    H2636602   6.410   4.465   4.734 -0.2265  1.2731  0.3494
   49MOL    H2736603   6.579   4.445   4.747  1.5397  1.8767 -0.4382
   49MOL    H2836604   6.600   4.598   4.930  0.0629  1.3706 -0.6481
   49MOL    H2936605   6.426   4.628   4.922  0.0161 -0.4984  0.6774
   49MOL    H3036606   6.562   4.364   4.982 -0.0210  0.4622  0.0655
   49MOL    H3136607   6.387   4.370   4.966 -0.5909  1.6015  0.8506
   49MOL    H3236608   6.551   4.497   5.194 -0.6747  0.4866  1.0889
   49MOL    H3336609   6.385   4.536   5.148  0.7369  0.9124 -0.8402
   49MOL    H3436610   6.452   4.245   5.178  2.3605  0.8167  0.2408
   49MOL    H3536611   6.449   4.342   5.324  0.4510 -1.3829 -0.1111
   49MOL    H3636612   6.202   4.324   5.132 -0.3114  0.5776  0.3650
   49MOL    H3736613   6.209   4.397   5.295  0.0030 -0.2109 -0.3996
   49MOL    H3836614   6.199   4.122   5.202  2.4742 -1.5001 -0.2497
   49MOL    H3936615   6.376   5.288   4.573  0.3507 -0.3320 -0.3913
   49MOL    C4036616   6.213   4.155   5.408  1.0010  0.8187 -0.0849
   49MOL    O4136617   6.232   4.238   5.496  0.6244  0.1534  0.4658
   49MOL    C4236618   6.177   4.011   5.444  0.0722  0.4324 -0.1274
   49MOL    C4336619   6.306   3.946   5.497  0.1695  0.3289  0.7498
   49MOL    C4436620   6.415   3.944   5.382  0.2725  0.1881 -0.3258
   49MOL    C4536621   6.516   3.825   5.400  0.8547  0.1212  0.8142
   49MOL    C4636622   6.629   3.819   5.298 -0.2574 -0.5983  0.6261
   49MOL    O4736623   6.674   3.921   5.246 -0.1584  0.0526 -0.1986
   49MOL    N4836624   6.683   3.699   5.284 -0.2994 -0.1869  0.2560
   49MOL    C4936625   6.804   3.671   5.210 -0.3535  0.0048 -0.4374
   49MOL    C5036626   6.839   3.522   5.220  0.2077  0.0049  0.4332
   49MOL    C5136627   6.961   3.483   5.140 -0.5747  0.6168  0.1996
   49MOL    C5236628   7.007   3.336   5.161  0.1586 -0.5033  0.3857
   49MOL    C5336629   7.141   3.309   5.094  0.5986  0.3369  0.2254
   49MOL    C5436630   7.194   3.168   5.121  0.2847 -0.4519  0.4737
   49MOL    N5536631   7.316   3.140   5.044 -0.3661 -0.2334 -0.5103
   49MOL    H5636632   6.095   4.010   5.516 -0.0258 -2.4427 -0.2056
   49MOL    H5736633   6.145   3.961   5.353 -1.8117  0.7726  0.3414
   49MOL    H5836634   6.353   3.993   5.584  0.9170 -1.2055  1.1957
   49MOL    H5936635   6.280   3.845   5.529 -0.9568  0.0649 -0.9439
   49MOL    H6036636   6.453   4.046   5.374  0.2404  0.1047 -1.6660
   49MOL    H6136637   6.370   3.920   5.286 -0.7689  0.4702  0.0778
   49MOL    H6236638   6.467   3.728   5.388  1.1858  0.1987 -1.2621
   49MOL    H6336639   6.566   3.833   5.497 -0.4985  2.5891  1.3357
   49MOL    H6436640   6.638   3.621   5.330 -0.8270 -1.2035 -1.9151
   49MOL    H6536641   6.781   3.688   5.105 -0.1183  2.4043 -0.1238
   49MOL    H6636642   6.877   3.748   5.235 -0.8461  0.2920  0.1390
   49MOL    H6736643   6.866   3.502   5.324 -0.0416 -0.6346  0.3792
   49MOL    H6836644   6.750   3.461   5.203 -0.7417  1.6157 -0.5124
   49MOL    H6936645   7.043   3.553   5.158 -2.0848  3.0319 -1.8892
   49MOL    H7036646   6.942   3.487   5.033  0.2090  1.0245  0.0662
   49MOL    H7136647   7.018   3.319   5.268 -0.1814  0.1168  0.5233
   49MOL    H7236648   6.929   3.268   5.127  1.2753 -0.8481 -1.5229
   49MOL    H7336649   7.138   3.336   4.988 -3.3977  1.3008  0.4764
   49MOL    H7436650   7.218   3.375   5.134  1.4770  0.3189 -1.3984
   49MOL    H7536651   7.120   3.090   5.103 -0.8017  0.7254 -0.2358
   49MOL    H7636652   7.225   3.167   5.225  0.9076 -0.3797  0.2914
   49MOL    H7736653   7.354   3.208   4.981  1.1567 -1.2522 -0.7043
   49MOL    C7836654   7.370   3.018   5.040 -0.1700  0.1451  0.2943
   49MOL    O7936655   7.339   2.925   5.115  0.0174 -0.2157 -0.0391
   49MOL    C8036656   7.480   3.003   4.938 -0.5428  0.2500  0.2810
   49MOL    C8136657   7.474   2.872   4.856 -0.2378  0.4355  0.2210
   49MOL    C8236658   7.340   2.843   4.778  0.1334 -0.0372  0.0030
   49MOL    C8336659   7.339   2.720   4.682 -0.2772 -0.1300  0.1291
   49MOL    C8436660   7.206   2.692   4.620 -0.5486 -0.5681 -0.3945
   49MOL    O8536661   7.115   2.775   4.620  0.1702 -0.0764 -0.1015
   49MOL    N8636662   7.191   2.572   4.569  0.1293  0.2445 -0.0070
   49MOL    C8736663   7.080   2.528   4.488  0.2291 -0.1081 -0.3489
   49MOL    C8836664   6.975   2.459   4.585  0.5058 -0.3860  0.1376
   49MOL    C8936665   7.016   2.323   4.641  0.3857 -0.3857 -0.0973
   49MOL    C9036666   6.925   2.277   4.763  0.3602  0.0014  0.4458
   49MOL    C9136667   6.775   2.267   4.744 -0.5009  0.2229 -0.6760
   49MOL    C9236668   6.713   2.197   4.869 -0.2588  0.1663  0.4361
   49MOL    N9336669   6.739   2.264   4.989  0.0896 -0.2739 -0.3735
   49MOL    H9436670   7.481   3.092   4.875  0.3859 -2.1111 -3.1226
   49MOL    H9536671   7.576   3.015   4.987 -0.7252  0.9782  0.4786
   49MOL    H9636672   7.557   2.866   4.785  0.3585  0.5778  0.9007
   49MOL    H9736673   7.493   2.780   4.911  0.1611 -0.1527 -0.8887
   49MOL    H9836674   7.318   2.937   4.728  2.5313 -1.4666 -3.9832
   49MOL    H9936675   7.268   2.827   4.858  0.5280  0.9293  0.5628
   49MOL   H10036676   7.386   2.628   4.716  0.5140  0.5583  0.9723
   49MOL   H10136677   7.401   2.743   4.595 -0.2354  1.4573  0.5568
   49MOL   H10236678   7.283   2.529   4.566  0.6740  1.3090  0.9675
   49MOL   H10336679   7.041   2.610   4.428  2.7915 -0.6534 -2.8308
   49MOL   H10436680   7.128   2.461   4.417  1.4165  1.6033 -1.1727
   49MOL   H10536681   6.959   2.527   4.669 -2.7658  0.2214 -0.9294
   49MOL   H10636682   6.876   2.452   4.542  0.0024  0.4247  1.1520
   49MOL   H10736683   7.119   2.323   4.678 -0.1058 -0.7817  1.2941
   49MOL   H10836684   7.010   2.239   4.573 -1.3321 -0.1342 -0.2823
   49MOL   H10936685   6.963   2.180   4.797 -0.4648 -0.3127  0.4763
   49MOL   H11036686   6.945   2.351   4.841  3.2536  0.1968 -0.4080
   49MOL   H11136687   6.729   2.366   4.739  0.8687  0.9351  0.3610
   49MOL   H11236688   6.746   2.203   4.661 -3.0053  0.3211  0.1032
   49MOL   H11336689   6.766   2.102   4.876  0.6337  0.6368  0.1429
   49MOL   H11436690   6.607   2.172   4.861 -0.1886  0.5279 -2.1601
   49MOL   H11536691   6.821   2.247   5.046 -0.1894 -0.4359 -0.0206
   49MOL   C11636692   6.679   2.379   5.027  0.2112  0.0371 -0.6263
   49MOL   O11736693   6.568   2.412   4.978 -0.1261 -1.4433 -0.0144
   49MOL   C11836694   6.741   2.460   5.136 -0.1896 -0.3889  0.5016
   49MOL   C11936695   6.761   2.610   5.099  0.0739  0.3435 -0.2373
   49MOL   C12036696   6.870   2.639   4.995  0.3672  0.5347 -0.1594
   49MOL   C12136697   6.911   2.792   4.994 -0.4950  0.4096  0.9876
   49MOL   C12236698   6.800   2.889   4.964  0.3588 -0.9710 -0.0958
   49MOL   O12336699   6.709   2.906   5.042 -0.0115 -0.4145  0.9194
   49MOL   N12436700   6.812   2.953   4.850  0.1080  0.6898  0.2254
   49MOL   C12536701   6.716   3.048   4.792 -0.5391 -0.1084  0.4027
   49MOL   C12636702   6.705   3.182   4.876  0.3236  0.9742 -0.4818
   49MOL   C12736703   6.611   3.273   4.808  0.1431 -0.0954 -0.0490
   49MOL   C12836704   6.594   3.415   4.881 -0.3321 -0.5113  0.0086
   49MOL   C12936705   6.476   3.495   4.826 -0.1946 -0.0981  0.1865
   49MOL   C13036706   6.465   3.629   4.897 -0.1088  0.4631 -0.6490
   49MOL   N13136707   6.398   3.598   5.023 -0.0067  0.0991 -0.0236
   49MOL   H13236708   6.669   2.452   5.218 -0.3045  0.7189  0.5193
   49MOL   H13336709   6.832   2.419   5.182 -0.6101 -0.4640  1.2873
   49MOL   H13436710   6.663   2.645   5.065  0.3575 -0.9799 -2.5924
   49MOL   H13536711   6.788   2.656   5.194  1.2791 -2.2178  0.7134
   49MOL   H13636712   6.840   2.615   4.893  0.8729  1.0428 -0.4341
   49MOL   H13736713   6.954   2.574   5.018 -2.6549 -3.4687  0.0252
   49MOL   H13836714   6.988   2.804   4.917 -0.2194  0.4880  1.2716
   49MOL   H13936715   6.968   2.816   5.084  0.8518  1.7130 -0.1861
   49MOL   H14036716   6.892   2.922   4.796 -0.5816 -1.0919  0.2030
   49MOL   H14136717   6.757   3.074   4.694 -2.5095  0.2982 -0.3251
   49MOL   H14236718   6.624   2.991   4.780 -1.2437  1.0924  0.0661
   49MOL   H14336719   6.648   3.153   4.964  1.6071 -1.7599 -0.4882
   49MOL   H14436720   6.802   3.223   4.906  0.9406 -1.7734  1.4303
   49MOL   H14536721   6.515   3.223   4.816  0.1513 -0.0213  0.5418
   49MOL   H14636722   6.648   3.289   4.707  1.7432 -0.8073  0.4140
   49MOL   H14736723   6.574   3.389   4.985  0.8191 -0.5378  0.2322
   49MOL   H14836724   6.684   3.475   4.887  1.3718 -3.0377  0.6539
   49MOL   H14936725   6.483   3.517   4.719  1.8627  1.1659  0.5568
   49MOL   H15036726   6.384   3.439   4.839 -1.1600  0.7180 -2.7402
   49MOL   H15136727   6.390   3.689   4.846 -0.4578 -0.9374 -1.7879
   49MOL   H15236728   6.563   3.677   4.909  0.1569 -0.3037  0.3947
   49MOL   H15336729   6.457   3.592   5.104  1.3817  1.8692 -0.8665
   49MOL   C15436730   6.266   3.591   5.052 -0.6188  0.3514 -0.1697
   49MOL   O15536731   6.171   3.573   4.971 -0.0912 -0.1518  0.2135
   49MOL   C15636732   6.242   3.592   5.207  0.1708 -0.4743 -0.3378
   49MOL   C15736733   6.153   3.476   5.262  0.5332  0.1373  0.3520
   49MOL   C15836734   6.232   3.350   5.280 -0.4854  0.5822 -0.7877
   49MOL   C15936735   6.332   3.350   5.392 -0.0850  0.2983  0.4762
   49MOL   C16036736   6.482   3.346   5.355 -0.6907 -0.2164 -0.3589
   49MOL   O16136737   6.545   3.448   5.337 -0.1624  0.6741 -0.1112
   49MOL   N16236738   6.539   3.227   5.346 -0.1634 -0.0946 -0.2582
   49MOL   C16336739   6.679   3.197   5.334 -0.0837  0.6291 -0.0257
   49MOL   C16436740   6.697   3.050   5.365  0.7149  0.0459 -0.3922
   49MOL   C16536741   6.855   3.020   5.385 -0.2847  0.0129 -0.7238
   49MOL   C16636742   6.900   2.874   5.391 -0.5234  0.3287  0.0387
   49MOL   C16736743   7.059   2.856   5.372 -0.7754  0.0618 -0.2998
   49MOL   C16836744   7.105   2.716   5.322 -0.2995 -0.4525  0.1105
   49MOL   N16936745   7.256   2.708   5.326  0.8477  0.1312  0.9210
   49MOL   H17036746   6.335   3.597   5.263  1.2319 -1.3740 -1.9832
   49MOL   H17136747   6.190   3.687   5.221 -0.2458 -0.8018  0.3649
   49MOL   H17236748   6.127   3.516   5.360  0.5498  0.3480  0.2707
   49MOL   H17336749   6.058   3.463   5.211 -0.3087  1.8072  1.4474
   49MOL   H17436750   6.292   3.326   5.192 -0.5485 -0.2901 -0.5956
   49MOL   H17536751   6.150   3.281   5.303  0.0890  0.2294  0.2332
   49MOL   H17636752   6.324   3.263   5.456  1.6763 -0.7998 -0.7343
   49MOL   H17736753   6.313   3.433   5.460  1.3781  0.7830  0.3131
   49MOL   H17836754   6.480   3.154   5.386 -0.7632 -1.0641 -2.8352
   49MOL   H17936755   6.705   3.207   5.229  0.9436 -3.1262 -0.2000
   49MOL   H18036756   6.740   3.262   5.397  0.3571  0.9992 -0.8275
   49MOL   H18136757   6.655   3.032   5.464  1.7677 -2.4911 -0.3610
   49MOL   H18236758   6.648   2.986   5.291 -0.8325  2.2428 -1.3142
   49MOL   H18336759   6.908   3.063   5.470 -1.5576 -1.2097  0.7231
   49MOL   H18436760   6.912   3.063   5.303 -0.4424 -1.3438 -1.5488
   49MOL   H18536761   6.859   2.806   5.466  0.1445 -0.1741 -0.0404
   49MOL   H18636762   6.852   2.832   5.303 -0.8327 -1.7524  1.1615
   49MOL   H18736763   7.090   2.934   5.303  2.0083 -2.4733 -2.0634
   49MOL   H18836764   7.103   2.880   5.468 -1.0679 -0.5958  0.0059
   49MOL   H18936765   7.077   2.690   5.219 -1.5760  1.9220 -0.1694
   49MOL   H19036766   7.059   2.635   5.379  1.6560 -2.5714 -1.2075
   49MOL   H19136767   7.305   2.792   5.300 -1.6579  0.9936 -1.3318
   49MOL   C19236768   7.320   2.596   5.344 -0.0448  0.7684  0.0050
   49MOL   O19336769   7.266   2.486   5.369 -0.6542  0.6989 -0.8013
   49MOL   C19436770   7.473   2.608   5.332  0.2219  0.4419 -0.3545
   49MOL   C19536771   7.543   2.473   5.356  0.2288  0.0121  0.0316
   49MOL   C19636772   7.545   2.382   5.229  0.1363  0.6598 -0.2038
   49MOL   C19736773   7.666   2.386   5.140  0.3899  0.1726  0.5521
   49MOL   C19836774   7.689   2.509   5.053 -0.2120  0.1360  0.4367
   49MOL   O19936775   7.600   2.554   4.983  0.0999  0.5994 -0.0216
   49MOL   N20036776   0.110   2.555   5.042 -0.2487  0.5247  0.6359
   49MOL   C20136777   0.158   2.669   4.965 -0.1326  0.2658  0.2143
   49MOL   C20236778   0.257   2.742   5.042 -0.0911 -0.2417 -0.1680
   49MOL   C20336779   0.300   2.870   4.980 -0.2599 -0.0011  0.0638
   49MOL   C20436780   0.400   2.950   5.056  0.0836 -0.5828 -0.4082
   49MOL   C20536781   0.455   3.071   4.969 -0.7536  0.4306  0.1405
   49MOL   C20636782   0.574   3.155   5.018  0.9137  0.9642  0.1344
   49MOL   N20736783   0.617   3.233   4.902  0.5615 -0.1710  0.2612
   49MOL   H20836784   7.496   2.659   5.238  0.7837 -0.2651 -0.6036
   49MOL   H20936785   7.505   2.671   5.415 -0.1266 -0.4405  0.4565
   49MOL   H21036786   7.646   2.494   5.384 -0.8015  0.5169  3.6619
   49MOL   H21136787   7.487   2.422   5.434 -1.3424 -1.1908 -1.8256
   49MOL   H21236788   7.443   2.378   5.191  0.2359 -0.6301 -0.3751
   49MOL   H21336789   7.546   2.284   5.277  0.2098  0.3712 -0.7841
   49MOL   H21436790   7.653   2.309   5.064  3.2134 -0.0838  0.2443
   49MOL   H21536791   0.045   2.354   5.197 -0.3618  1.2103  2.3104
   49MOL   H21636792   0.175   2.497   5.093 -0.2971  2.4222  2.9673
   49MOL   H21736793   0.191   2.638   4.865  0.4812 -0.2636  0.5752
   49MOL   H21836794   0.078   2.740   4.944  1.5429  1.6288 -1.7809
   49MOL   H21936795   0.215   2.764   5.140 -1.6402  1.2902 -1.1676
   49MOL   H22036796   0.351   2.688   5.059  0.7504  1.7276  1.6820
   49MOL   H22136797   0.207   2.927   4.984  0.5781  1.3943 -0.2106
   49MOL   H22236798   0.332   2.856   4.877  0.6796  3.8601 -0.2455
   49MOL   H22336799   0.360   2.982   5.152 -1.4032 -0.6390 -1.0077
   49MOL   H22436800   0.484   2.882   5.075  0.3039 -0.2337 -0.1290
   49MOL   H22536801   0.476   3.027   4.871 -0.2197 -1.6030  1.1333
   49MOL   H22636802   0.373   3.141   4.954 -0.2903  0.8106 -0.6276
   49MOL   H22736803   0.653   3.089   5.055 -0.0818 -0.6301 -0.5505
   49MOL   H22836804   0.533   3.208   5.104 -2.7881 -1.4181 -0.0773
   49MOL   H22936805   0.706   3.209   4.861 -1.1887 -2.4455 -2.4530
   49MOL   C23036806   0.550   3.328   4.837 -0.0626 -0.3337 -0.0921
   49MOL   O23136807   0.441   3.383   4.871  0.0378  0.1720  0.0055
   49MOL   C23236808   0.609   3.355   4.693  0.7635 -0.3887 -0.2144
   49MOL   C23336809   0.602   3.503   4.655 -0.1169 -0.4849  0.0822
   49MOL   C23436810   0.702   3.592   4.728 -0.5076  0.4223 -0.5996
   49MOL   C23536811   0.692   3.743   4.703  0.5438 -0.1099  0.2261
   49MOL   C23636812   0.815   3.815   4.752 -0.3176 -0.5159 -0.2065
   49MOL   O23736813   0.839   3.829   4.868 -0.3754  0.6254 -0.8106
   49MOL   N23836814   0.900   3.847   4.648 -0.4652  1.0389 -0.5228
   49MOL   C23936815   1.027   3.925   4.669 -0.2031 -0.0150  0.3741
   49MOL   C24036816   1.114   3.949   4.542  0.0596  0.4478 -0.2497
   49MOL   C24136817   1.035   4.009   4.427  0.1236  0.6340  0.6093
   49MOL   C24236818   0.995   4.158   4.466 -0.2688 -0.1136 -0.2084
   49MOL   C24336819   0.916   4.233   4.359 -0.8593  0.0052  0.7583
   49MOL   C24436820   0.861   4.377   4.408 -0.0067  0.1052  0.2444
   49MOL   N24536821   0.808   4.371   4.541  0.5554 -0.1584  0.4992
   49MOL   H24636822   0.715   3.327   4.694  1.3711  1.8485 -0.4263
   49MOL   H24736823   0.549   3.298   4.622  0.0237 -0.6216  0.5966
   49MOL   H24836824   0.588   3.516   4.547 -1.2058 -2.4291 -0.0334
   49MOL   H24936825   0.504   3.541   4.684 -0.4360 -0.1023 -1.4563
   49MOL   H25036826   0.800   3.556   4.696 -0.6149 -0.9668  0.5730
   49MOL   H25136827   0.702   3.566   4.834  1.8859  1.7537 -0.2454
   49MOL   H25236828   0.607   3.792   4.751  1.3807  2.4221 -0.8163
   49MOL   H25336829   0.674   3.768   4.599  2.6120 -1.0177 -0.3800
   49MOL   H25436830   0.875   3.833   4.551 -0.8935 -0.1788 -0.2423
   49MOL   H25536831   1.004   4.025   4.705 -1.8032 -0.1379 -0.2419
   49MOL   H25636832   1.090   3.873   4.741  0.9280  2.4772  1.2309
   49MOL   H25736833   1.205   4.006   4.558  0.0943  0.4561 -0.4742
   49MOL   H25836834   1.148   3.850   4.514 -1.2758 -0.2157  0.4034
   49MOL   H25936835   0.942   3.954   4.415  0.8305 -0.2423 -0.9219
   49MOL   H26036836   1.093   3.999   4.336  0.4217 -2.2192  1.0884
   49MOL   H26136837   0.926   4.155   4.551  0.4603  1.0166  0.4330
   49MOL   H26236838   1.084   4.210   4.503  0.6376 -1.4592 -0.4605
   49MOL   H26336839   0.981   4.239   4.271 -2.1655  1.1778 -0.1560
   49MOL   H26436840   0.832   4.172   4.326 -0.8332 -0.1087  0.9013
   49MOL   H26536841   0.790   4.423   4.340  0.2218  1.3180  0.7994
   49MOL   H26636842   0.944   4.443   4.436  0.0455  0.4641 -0.7606
   49MOL   H26736843   0.845   4.435   4.611  1.1475  2.1401 -1.8261
   49MOL   C26836844   0.698   4.297   4.572 -0.1421 -0.2382 -0.2821
   49MOL   O26936845   0.660   4.209   4.502  0.7554  1.0040  0.4123
   49MOL   C27036846   0.630   4.324   4.703 -0.0226 -0.3364 -0.5651
   49MOL   C27136847   0.477   4.287   4.704  0.1783  0.2969 -0.0880
   49MOL   C27236848   0.456   4.136   4.712 -0.2225  0.6633  0.3063
   49MOL   C27336849   0.354   4.090   4.807  0.4106  0.4259 -0.1677
   49MOL   C27436850   0.218   4.154   4.776 -0.8298  0.4269  0.6514
   49MOL   O27536851   0.173   4.246   4.845  0.2948 -0.4119  0.7590
   49MOL   N27636852   0.166   4.102   4.668  0.1532  0.0424 -0.0220
   49MOL   C27736853   0.043   4.130   4.590 -0.3923 -0.3229 -0.6022
   49MOL   C27836854   0.070   4.122   4.441 -0.2172 -0.1595 -0.2161
   49MOL   C27936855   0.143   4.247   4.375 -0.6998 -0.3135  0.7213
   49MOL   C28036856   0.224   4.217   4.240  0.8070 -0.1966  0.7263
   49MOL   C28136857   0.294   4.338   4.183 -0.3060  0.1263  0.1163
   49MOL   C28236858   0.417   4.385   4.269  0.4856 -1.0088  1.2191
   49MOL   N28336859   0.509   4.483   4.216 -0.3654 -0.9914 -0.2074
   49MOL   H28436860   0.679   4.280   4.789 -3.1424  0.3703  1.6617
   49MOL   H28536861   0.631   4.432   4.712 -0.4453 -0.4508  0.9113
   49MOL   H28636862   0.412   4.339   4.774 -1.6881 -2.0816  0.0299
   49MOL   H28736863   0.450   4.329   4.607  0.7176 -2.4587 -1.5105
   49MOL   H28836864   0.547   4.089   4.749 -0.9628 -3.0670 -2.2316
   49MOL   H28936865   0.438   4.092   4.614  1.8235 -2.1931  1.1259
   49MOL   H29036866   0.377   4.132   4.906 -0.0827  0.2140  0.0383
   49MOL   H29136867   0.334   3.983   4.804 -0.5582  0.5447  1.4019
   49MOL   H29236868   0.226   4.038   4.619  1.4520 -0.1820  1.8128
   49MOL   H29336869   7.680   4.054   4.619 -3.3139  3.5773  3.0700
   49MOL   H29436870   0.014   4.231   4.620  1.5014 -0.0076  0.2441
   49MOL   H29536871   0.128   4.031   4.424 -1.1243 -0.8244  0.2264
   49MOL   H29636872   7.689   4.104   4.381  0.4854 -0.7904 -1.0996
   49MOL   H29736873   0.222   4.281   4.443 -0.2377 -0.2422  0.1566
   49MOL   H29836874   0.075   4.330   4.358  0.0887 -0.1083 -1.6016
   49MOL   H29936875   0.295   4.136   4.258  2.6671  0.9507 -1.2056
   49MOL   H30036876   0.155   4.186   4.161  1.0419  1.3950 -0.1131
   49MOL   H30136877   0.315   4.316   4.079  0.5996  2.1235 -0.1538
   49MOL   H30236878   0.230   4.426   4.173 -1.2428 -0.5223  0.3935
   49MOL   H30336879   0.484   4.300   4.285  0.4745 -1.1507  0.5307
   49MOL   H30436880   0.383   4.417   4.368 -0.1203 -0.6970  0.9104
   49MOL   H30536881   0.563   4.460   4.134  0.6899 -0.9750  0.4766
   49MOL   C30636882   0.544   4.598   4.277 -0.5771  0.6972 -0.0550
   49MOL   O30736883   0.469   4.643   4.366  0.4183 -0.3412  0.2449
   49MOL   C30836884   0.668   4.677   4.227  0.4433  0.1749 -0.4133
   49MOL   C30936885   0.734   4.768   4.336 -1.3638  0.3145 -0.6171
   49MOL   C31036886   0.884   4.777   4.315  0.0793  0.2521 -0.0298
   49MOL   C31136887   0.964   4.862   4.419  0.2508 -0.1793 -0.1993
   49MOL   C31236888   0.927   5.017   4.412 -0.1556  0.1573 -0.1169
   49MOL   O31336889   0.810   5.055   4.398  0.7295 -0.7960 -0.0706
   49MOL   N31436890   1.032   5.095   4.434  0.4344  0.2236 -0.0996
   49MOL   C31536891   1.030   5.238   4.438 -0.3186 -0.2422  0.1699
   49MOL   C31636892   0.980   5.302   4.304  0.0614  0.3196 -0.0010
   49MOL   C31736893   0.983   5.451   4.303 -0.1358 -0.0114  0.1069
   49MOL   C31836894   0.955   5.515   4.162  0.4048 -0.8087  0.1479
   49MOL   C31936895   0.805   5.535   4.156 -0.7674 -0.1330  0.2026
   49MOL   C32036896   0.750   5.593   4.018  0.0487  0.1200  0.3614
   49MOL   N32136897   0.793   5.512   3.901  0.1500 -0.9460 -0.6015
   49MOL   H32236898   0.743   4.610   4.186 -0.8515 -2.9171  2.0611
   49MOL   H32336899   0.641   4.752   4.152 -0.8342 -0.0457 -0.1861
   49MOL   H32436900   0.682   4.862   4.355 -0.9062  0.3190  0.5798
   49MOL   H32536901   0.720   4.710   4.427  0.1317 -0.5239 -0.8989
   49MOL   H32636902   0.895   4.827   4.218 -1.2077 -0.1716 -0.4085
   49MOL   H32736903   0.938   4.684   4.299 -1.5185 -0.5136 -1.1521
   49MOL   H32836904   1.070   4.849   4.397  0.9685  0.1115  2.8806
   49MOL   H32936905   0.938   4.826   4.518 -0.4819  1.7066  0.3135
   49MOL   H33036906   1.114   5.054   4.477 -0.2213 -1.2752 -0.2560
   49MOL   H33136907   0.977   5.262   4.530  3.0773  1.8820  1.6550
   49MOL   H33236908   1.130   5.272   4.463  0.0359 -1.2780  0.1848
   49MOL   H33336909   1.039   5.269   4.219  0.7892 -0.5408  0.8351
   49MOL   H33436910   0.877   5.267   4.298  0.8139 -2.3890  1.9143
   49MOL   H33536911   1.084   5.480   4.332 -0.1611 -1.1633  1.3468
   49MOL   H33636912   0.915   5.480   4.383 -1.7047 -0.7103 -0.9523
   49MOL   H33736913   0.998   5.613   4.144  2.9445 -1.9009 -0.0377
   49MOL   H33836914   1.001   5.461   4.079 -2.5095  0.5168 -2.4094
   49MOL   H33936915   0.744   5.445   4.160 -2.0981  0.7080 -0.6496
   49MOL   H34036916   0.772   5.588   4.245  2.7021  1.8590  0.3975
   49MOL   H34136917   0.797   5.690   4.007  0.4003  0.1141  1.7261
   49MOL   H34236918   0.643   5.603   4.033  0.0836 -1.8716  2.2118
   49MOL   H34336919   0.892   5.517   3.882  0.2570  0.4736  0.2448
   49MOL   C34436920   0.721   5.453   3.807 -0.3688  0.1776  0.1545
   49MOL   O34536921   0.598   5.431   3.816  0.1290  0.5273  0.4349
   49MOL   C34636922   0.798   5.428   3.681  0.1349  0.3439  0.3377
   49MOL   C34736923   0.731   5.323   3.592 -0.3311  0.1971  0.0614
   49MOL   C34836924   0.822   5.278   3.480 -0.2557  0.1365  0.3292
   49MOL   C34936925   0.766   5.168   3.386 -0.1877  0.0353 -0.1005
   49MOL   C35036926   0.804   5.024   3.440 -0.4021  0.1855  0.1925
   49MOL   O35136927   0.877   4.995   3.534  0.0430  0.2890  0.5381
   49MOL   N35236928   0.744   4.925   3.370 -0.0384 -0.7696  0.1145
   49MOL   C35336929   0.721   4.788   3.399 -0.1948 -0.2852 -0.5121
   49MOL   C35436930   0.847   4.706   3.354 -0.2046 -0.3466 -0.4771
   49MOL   C35536931   0.835   4.555   3.402 -0.2024  0.5185  0.4557
   49MOL   C35636932   0.962   4.468   3.380  0.1648 -1.2234 -0.0286
   49MOL   C35736933   1.071   4.509   3.482 -0.9307  0.6242  0.0192
   49MOL   C35836934   1.189   4.405   3.489 -0.1711  0.0571  0.4228
   49MOL   N35936935   1.257   4.409   3.623 -0.4786 -0.2879 -0.0851
   49MOL   H36036936   0.811   5.519   3.622 -0.2916 -1.0517 -1.9961
   49MOL   H36136937   0.894   5.385   3.711  0.4708  1.7435  1.3434
   49MOL   H36236938   0.686   5.234   3.636 -0.8756 -0.1579 -1.1735
   49MOL   H36336939   0.635   5.362   3.558 -2.0041 -1.3012  2.8314
   49MOL   H36436940   0.915   5.240   3.522  0.3439 -0.0084 -1.1046
   49MOL   H36536941   0.852   5.366   3.423  1.2826  0.4963  1.6546
   49MOL   H36636942   0.823   5.181   3.293 -1.8417  1.1966 -0.9742
   49MOL   H36736943   0.661   5.175   3.359 -0.1884 -1.6052 -0.6065
   49MOL   H36836944   0.693   4.958   3.290  1.1045  0.0737 -0.2859
   49MOL   H36936945   0.705   4.783   3.507 -1.2548  1.5889 -0.5715
   49MOL   H37036946   0.632   4.743   3.356 -1.5559  1.4808  0.3962
   49MOL   H37136947   0.874   4.710   3.249  1.1222  2.6484 -0.0741
   49MOL   H37236948   0.939   4.745   3.398  0.8413  1.1686 -3.8293
   49MOL   H37336949   0.757   4.518   3.335  1.2017 -0.8359 -0.4523
   49MOL   H37436950   0.789   4.546   3.501 -0.8618  1.8094  0.2694
   49MOL   H37536951   0.935   4.362   3.390 -0.0500 -1.1937 -0.3007
   49MOL   H37636952   1.003   4.488   3.281  0.9766 -0.1384  0.5249
   49MOL   H37736953   1.108   4.608   3.458  1.3418  0.4965  2.7086
   49MOL   H37836954   1.031   4.504   3.583 -2.0553  1.7582 -0.3652
   49MOL   H37936955   1.259   4.418   3.407 -0.7449  1.2313  0.0974
   49MOL   H38036956   1.154   4.303   3.473 -0.4046 -0.2972  3.0200
   49MOL   H38136957   1.242   4.329   3.683 -0.0325 -0.6252 -0.4132
   49MOL   C38236958   1.335   4.509   3.672  0.3464 -0.5601 -0.3478
   49MOL   O38336959   1.368   4.605   3.604 -0.3347 -0.1215  0.2574
   49MOL   C38436960   1.404   4.484   3.808 -0.0162  0.0588  0.3575
   49MOL   C38536961   1.464   4.603   3.887  0.3251  0.1726  0.2376
   49MOL   C38636962   1.583   4.680   3.824  0.4822 -0.2435  0.4562
   49MOL   C38736963   1.658   4.760   3.932 -0.4314  0.4425  0.0660
   49MOL   C38836964   1.721   4.674   4.045 -0.1127 -0.3192  0.2924
   49MOL   O38936965   1.782   4.567   4.016 -0.5110 -0.3072  0.4205
   49MOL   N39036966   1.705   4.711   4.171 -0.0637 -0.1849 -0.6072
   49MOL   C39136967   1.749   4.639   4.291  0.6559 -0.2472  0.4199
   49MOL   C39236968   1.698   4.707   4.415 -0.5472  0.0254 -0.0964
   49MOL   C39336969   1.744   4.850   4.428  0.3942  0.2813 -0.2784
   49MOL   C39436970   1.893   4.864   4.471 -0.7984  0.4036 -0.0698
   49MOL   C39536971   1.937   5.008   4.505  0.0267 -0.0142 -0.2434
   49MOL   C39636972   2.067   5.012   4.585  0.2054  0.3860  0.4289
   49MOL   N39736973   2.188   5.000   4.504 -0.0986 -0.2488  0.1852
   49MOL   H39836974   1.328   4.446   3.877  1.5524 -4.2549 -0.1202
   49MOL   H39936975   1.469   4.400   3.782  1.9487  1.7670 -0.3008
   49MOL   H40036976   1.388   4.676   3.916  0.5684  1.1496 -1.5307
   49MOL   H40136977   1.480   4.567   3.989 -0.2722  0.1853  0.3374
   49MOL   H40236978   1.550   4.733   3.736  1.1826 -0.7801 -0.1397
   49MOL   H40336979   1.651   4.603   3.787  0.4960 -0.7493  1.4969
   49MOL   H40436980   1.591   4.837   3.970 -1.0664  0.2176 -0.5836
   49MOL   H40536981   1.739   4.823   3.894 -0.4208  0.7584  0.6076
   49MOL   H40636982   1.646   4.789   4.195  0.6034 -0.4875  2.2471
   49MOL   H40736983   1.717   4.535   4.281  2.8928 -0.9956  0.8666
   49MOL   H40836984   1.857   4.632   4.301  0.4358 -2.2875  1.6345
   49MOL   H40936985   1.590   4.694   4.418 -1.0204  3.1967 -0.8203
   49MOL   H41036986   1.737   4.658   4.504 -1.7593 -0.9595 -0.0914
   49MOL   H41136987   1.679   4.892   4.504 -2.2986 -2.7846 -0.7384
   49MOL   H41236988   1.721   4.910   4.340  0.8495  2.6073  1.1702
   49MOL   H41336989   1.914   4.792   4.551  0.8428  0.0486 -0.8046
   49MOL   H41436990   1.948   4.833   4.383 -0.3762 -1.6054  0.8672
   49MOL   H41536991   1.925   5.070   4.416 -2.4346 -1.2194 -0.7926
   49MOL   H41636992   1.864   5.043   4.578  0.4281  0.2727  0.0249
   49MOL   H41736993   2.068   4.935   4.662  1.1385 -0.0430 -0.0080
   49MOL   H41836994   2.063   5.102   4.647 -1.9610  0.4036  0.3024
   49MOL   H41936995   2.225   5.083   4.461  1.5877 -1.6663 -1.2207
   49MOL   C42036996   2.245   4.891   4.465 -0.1188  0.2887 -0.2837
   49MOL   O42136997   2.220   4.780   4.514  0.8463  0.3432  0.0225
   49MOL   C42236998   2.362   4.904   4.364  0.5492  0.3018 -0.5894
   49MOL   C42336999   2.487   4.817   4.412  0.1781 -0.0420  0.0458
   49MOL   C42437000   2.555   4.879   4.539  0.2345 -0.4473 -0.1699
   49MOL   C42537001   2.629   5.012   4.521 -0.3132 -0.2138  0.4154
   49MOL   C42637002   2.692   5.064   4.656 -0.1237 -0.0153 -0.0232
   49MOL   O42737003   2.722   4.988   4.751  0.2765  0.0933 -0.1436
   49MOL   N42837004   2.723   5.193   4.660 -0.2528 -0.6871 -0.1903
   49MOL   C42937005   2.789   5.260   4.773  0.6355  0.5359 -0.4101
   49MOL   C43037006   2.789   5.412   4.760  0.5992 -0.3141 -0.2818
   49MOL   C43137007   2.797   5.488   4.899 -0.3037 -0.3820  0.4605
   49MOL   C43237008   2.776   5.635   4.887 -0.0127 -0.7770 -0.0789
   49MOL   C43337009   2.809   5.708   5.022 -0.1935  0.5248 -0.1679
   49MOL   C43437010   2.779   5.853   5.001  0.0735  0.0565  0.3411
   49MOL   N43537011   2.753   5.927   5.124  0.7737  0.0318  0.6067
   49MOL   H43637012   2.329   4.872   4.264  1.8830 -2.2061 -0.2610
   49MOL   H43737013   2.377   5.011   4.354  1.6380  0.2659  0.7065
   49MOL   H43837014   2.461   4.713   4.427 -1.8207  0.4570  0.2133
   49MOL   H43937015   2.562   4.826   4.334 -0.4703  0.5801 -0.5121
   49MOL   H44037016   2.627   4.803   4.569  0.0971 -0.6873 -0.4430
   49MOL   H44137017   2.477   4.874   4.615 -0.5847 -3.8211 -1.1334
   49MOL   H44237018   2.566   5.093   4.482  0.5939  0.2055 -0.1980
   49MOL   H44337019   2.720   4.996   4.463  0.3822  0.9374  1.1510
   49MOL   H44437020   2.692   5.246   4.580  1.4636  0.4444 -0.1204
   49MOL   H44537021   2.722   5.247   4.858  0.6021  2.4797 -0.1177
   49MOL   H44637022   2.885   5.212   4.792  1.1349  2.1176  1.1819
   49MOL   H44737023   2.867   5.454   4.696  0.0841 -0.3761 -0.9553
   49MOL   H44837024   2.696   5.443   4.712  1.2989  0.7690 -0.9534
   49MOL   H44937025   2.902   5.476   4.928  0.4866  1.6400 -1.4445
   49MOL   H45037026   2.740   5.437   4.977  1.1422  0.9339  2.4241
   49MOL   H45137027   2.836   5.686   4.812  1.4557 -0.5794  1.2018
   49MOL   H45237028   2.675   5.662   4.854  0.9169  1.0682 -1.5077
   49MOL   H45337029   2.757   5.678   5.113 -0.5237 -2.0320 -1.1743
   49MOL   H45437030   2.916   5.701   5.042  0.2508  0.2970 -2.5136
   49MOL   H45537031   2.689   5.873   4.943 -1.2323 -1.8960  1.6230
   49MOL   H45637032   2.864   5.894   4.946  0.2663 -0.8797 -0.0867
   49MOL   H45737033   2.656   5.949   5.145  0.9175  1.0524  0.2207
   49MOL   C45837034   2.844   5.948   5.221 -0.1533  0.1575 -0.3214
   49MOL   O45937035   2.964   5.952   5.200  0.3942 -0.2871  0.4426
   49MOL   C46037036   2.795   5.978   5.369 -0.8683 -0.1832  0.3510
   49MOL   C46137037   2.834   5.858   5.457  0.2743  0.4340  0.1187
   49MOL   C46237038   2.722   5.751   5.477 -0.0421 -0.6166  0.2923
   49MOL   C46337039   2.602   5.805   5.556  0.0159 -0.2534  0.2574
   49MOL   C46437040   2.583   5.767   5.703 -0.3032 -0.0977  0.7983
   49MOL   O46537041   2.662   5.695   5.760 -0.3381  0.5903  0.3223
   49MOL   N46637042   2.481   5.822   5.768 -0.2548 -0.5243  0.9138
   49MOL   C46737043   2.437   5.796   5.900  0.0489 -0.2898 -0.1877
   49MOL   C46837044   2.292   5.846   5.927  0.5453 -0.1902  0.5934
   49MOL   C46937045   2.244   5.849   6.070  0.3800 -0.4474  0.7989
   49MOL   C47037046   2.118   5.931   6.095  0.6173 -0.1692 -0.5385
   49MOL   C47137047   1.986   5.887   6.019 -0.1652  0.5456  0.0585
   49MOL   C47237048   1.875   5.999   6.021 -0.1822 -0.1455 -0.1396
   49MOL   N47337049   1.923   6.125   5.964 -0.4343  0.7250 -0.5706
   49MOL   H47437050   2.842   6.071   5.402 -0.8353  0.0126 -0.2368
   49MOL   H47537051   2.686   5.990   5.362 -0.7133  1.1693 -0.0065
   49MOL   H47637052   2.926   5.811   5.420 -1.4453 -0.6506 -2.9936
   49MOL   H47737053   2.852   5.889   5.559  0.8933  1.2947 -0.2465
   49MOL   H47837054   2.760   5.661   5.525  0.5275 -0.5582 -0.0501
   49MOL   H47937055   2.687   5.715   5.380  0.4690  1.0173 -0.5144
   49MOL   H48037056   2.517   5.781   5.493 -0.2678  0.5649  0.3133
   49MOL   H48137057   2.597   5.912   5.535  0.3522  0.1006  1.9209
   49MOL   H48237058   2.419   5.870   5.705  1.1377  1.9091  1.3053
   49MOL   H48337059   2.445   5.687   5.910  4.1317 -0.0368  0.4953
   49MOL   H48437060   2.506   5.840   5.973  1.0441  0.1879 -1.4030
   49MOL   H48537061   2.283   5.950   5.894 -3.7671 -0.5918  0.2688
   49MOL   H48637062   2.223   5.789   5.866  1.1706  0.2648 -0.5608
   49MOL   H48737063   2.314   5.901   6.136  0.9101  1.0436 -0.8844
   49MOL   H48837064   2.235   5.744   6.096  1.3021 -0.5498  0.7260
   49MOL   H48937065   2.101   5.962   6.198 -2.1478 -1.0209 -0.6969
   49MOL   H49037066   2.146   6.027   6.052  0.4161 -0.2085 -0.7607
   49MOL   H49137067   2.001   5.876   5.912  0.8980 -0.5552  0.3191
   49MOL   H49237068   1.938   5.793   6.047 -0.9968  0.7048 -0.7818
   49MOL   H49337069   1.840   6.028   6.120 -3.9385  0.7676 -1.6854
   49MOL   H49437070   1.779   5.972   5.977 -0.0806 -3.1068  1.3052
   49MOL   H49537071   1.955   6.194   6.030 -0.3387  0.3231 -0.1937
   49MOL   C49637072   1.918   6.158   5.840 -0.3995 -0.6988 -0.0385
   49MOL   O49737073   1.869   6.086   5.750  0.4320  0.5407 -0.2498
   49MOL   C49837074   1.954   6.296   5.793 -0.3182  0.2657  0.0632
   49MOL   C49937075   2.103   6.298   5.751  0.1903 -0.0163  0.3037
   49MOL   C50037076   2.177   6.432   5.775  0.1770  0.2088  0.1710
   49MOL   C50137077   2.327   6.433   5.725 -1.1649  0.1275 -0.4397
   49MOL   C50237078   2.401   6.566   5.773 -0.2373  0.2341 -0.1165
   49MOL   O50337079   2.422   6.575   5.897 -0.5055  0.3508  0.1834
   49MOL   N50437080   2.433   6.654   5.681 -0.4904  0.2647  0.1428
   49MOL   C50537081   2.468   6.787   5.711  0.4112  0.3058 -0.3897
   49MOL   C50637082   2.509   6.877   5.590 -0.3374 -0.4034  0.4602
   49MOL   C50737083   2.576   7.004   5.639  0.1488  0.7298 -0.2398
   49MOL   C50837084   2.657   7.090   5.534 -0.3487 -0.5245  0.5486
   49MOL   C50937085   2.745   7.201   5.589 -0.0851 -0.5332  0.1871
   49MOL   C51037086   2.801   7.295   5.483 -0.0879  0.2137 -0.3578
   49MOL   N51137087   2.881   7.394   5.558 -0.4432 -0.1742 -0.0311
   49MOL   H51237088   1.892   6.336   5.714  0.2697  1.5381  0.2322
   49MOL   H51337089   1.941   6.365   5.876 -0.9463 -0.7887  0.8505
   49MOL   H51437090   2.161   6.218   5.796 -0.9479 -0.5343  0.8803
   49MOL   H51537091   2.096   6.280   5.644 -0.9936 -0.0770  0.3795
   49MOL   H51637092   2.170   6.456   5.881 -3.3546  2.4255 -0.4859
   49MOL   H51737093   2.128   6.499   5.705 -0.5987 -0.2492  0.2751
   49MOL   H51837094   2.327   6.421   5.616 -0.4392 -0.1550 -0.4097
   49MOL   H51937095   2.377   6.345   5.765 -2.3857 -0.5097 -0.2936
   49MOL   H52037096   2.423   6.620   5.586  0.3587 -0.4663  0.3138
   49MOL   H52137097   2.390   6.824   5.779 -1.2816  0.2269 -2.2461
   49MOL   H52237098   2.552   6.772   5.779  0.1483 -0.4933 -0.2363
   49MOL   H52337099   2.577   6.820   5.527 -0.5230  1.1089 -1.1487
   49MOL   H52437100   2.426   6.903   5.525  1.1213  1.7294 -0.6167
   49MOL   H52537101   2.648   6.980   5.717 -0.7604 -0.1154  0.3449
   49MOL   H52637102   2.498   7.063   5.685  0.0952  1.6130 -1.4264
   49MOL   H52737103   2.719   7.027   5.470 -3.4225 -2.3026 -0.7964
   49MOL   H52837104   2.589   7.128   5.458  1.3141  1.1790 -0.1302
   49MOL   H52937105   2.683   7.255   5.661 -1.3234  0.3748 -1.5073
   49MOL   H53037106   2.825   7.162   5.652  0.5108  0.0139 -0.2189
   49MOL   H53137107   2.722   7.336   5.420  0.3997  0.3603 -0.8764
   49MOL   H53237108   2.870   7.234   5.425  0.3160  0.5239 -0.1991
   49MOL   H53337109   2.907   7.384   5.655 -1.4419 -1.8145  0.0869
   49MOL   C53437110   2.935   7.497   5.490 -0.2062  0.8499  0.4125
   49MOL   O53537111   2.914   7.511   5.368 -0.5411  0.3432 -0.0119
   49MOL   C53637112   3.021   7.598   5.571 -0.1804  0.2505 -0.5935
   49MOL   C53737113   3.014   0.033   5.524 -0.0298  0.6495 -0.2111
   49MOL   C53837114   2.885   0.105   5.574 -0.6810  0.4431 -0.4778
   49MOL   C53937115   2.880   0.255   5.556 -0.5336 -0.7361 -0.7197
   49MOL   C54037116   2.859   0.297   5.415  0.4459  0.0960 -0.8618
   49MOL   O54137117   2.745   0.321   5.379 -0.1620  0.0482 -0.4279
   49MOL   N54237118   2.973   0.310   5.345 -0.2137  0.8080 -0.4794
   49MOL   C54337119   2.983   0.373   5.216 -0.0981 -0.3035  0.8417
   49MOL   C54437120   2.961   0.529   5.204  0.0917  0.2752  0.1389
   49MOL   C54537121   3.078   0.610   5.271 -0.1657 -0.6057 -0.3973
   49MOL   C54637122   3.050   0.759   5.261  0.1088 -0.6813 -0.6825
   49MOL   C54737123   3.167   0.849   5.293 -0.0908 -0.2541  0.9760
   49MOL   C54837124   3.152   0.999   5.273 -0.4067 -0.2490 -0.1605
   49MOL   N54937125   3.055   1.059   5.370 -0.2285  0.3502 -0.1662
   49MOL   H55037126   3.008   7.572   5.676  0.5425  1.5216 -0.1810
   49MOL   H55137127   3.121   7.568   5.542  1.1260  2.3619  1.5985
   49MOL   H55237128   3.104   0.084   5.560  1.3560 -1.3801 -0.6842
   49MOL   H55337129   3.022   0.030   5.415 -0.8172  0.0380 -0.2541
   49MOL   H55437130   2.875   0.086   5.680  0.7315 -0.0183 -0.4089
   49MOL   H55537131   2.794   0.068   5.528 -0.4160 -1.2500  0.3231
   49MOL   H55637132   2.971   0.297   5.601  0.2598 -1.5416 -1.5510
   49MOL   H55737133   2.806   0.311   5.614  0.6991  2.5397 -2.1423
   49MOL   H55837134   3.068   0.294   5.375 -1.1960 -2.0610  1.2312
   49MOL   H55937135   3.077   0.364   5.161  0.4748  0.1099  1.7343
   49MOL   H56037136   2.908   0.337   5.146  1.3496 -0.0647 -0.8766
   49MOL   H56137137   2.963   0.541   5.096  3.1308 -1.1359 -0.0084
   49MOL   H56237138   2.867   0.556   5.254  0.0534  1.0346 -0.3369
   49MOL   H56337139   3.171   0.597   5.216  0.1357 -0.3929  0.0572
   49MOL   H56437140   3.093   0.573   5.373 -0.1778  2.1086  0.6352
   49MOL   H56537141   3.008   0.792   5.166 -3.3430  0.0984  1.0267
   49MOL   H56637142   2.968   0.778   5.331 -0.5827 -2.0643 -1.1037
   49MOL   H56737143   3.190   0.819   5.395 -0.7198  0.7904  1.4308
   49MOL   H56837144   3.248   0.824   5.225  1.1683  0.2100  2.2786
   49MOL   H56937145   3.113   1.013   5.173  1.6411  2.1681 -0.6542
   49MOL   H57037146   3.252   1.038   5.290 -0.7937  0.4697  0.5638
   49MOL   H57137147   3.079   1.025   5.462  0.6963  1.5295  0.0361
   49MOL   C57237148   2.934   1.110   5.337  0.1068 -0.2194 -0.2326
   49MOL   O57337149   2.911   1.154   5.226 -0.3665  0.9028 -0.5513
   49MOL   C57437150   2.829   1.107   5.447  0.9053 -0.7252  1.1411
   49MOL   C57537151   2.691   1.169   5.406  0.0306 -0.0217 -0.3509
   49MOL   C57637152   2.611   1.209   5.530  0.4861 -0.4931  0.3511
   49MOL   C57737153   2.471   1.268   5.497 -0.8029 -0.1944  0.1249
   49MOL   C57837154   2.368   1.277   5.609  0.3307  0.5778 -0.7235
   49MOL   O57937155   2.391   1.221   5.716 -0.0173  0.6784  0.6543
   49MOL   N58037156   2.257   1.351   5.590  0.7887  1.0445 -0.0967
   49MOL   C58137157   2.188   1.408   5.706 -0.0294  0.0411 -0.0124
   49MOL   C58237158   2.048   1.432   5.662  0.2684  0.0101 -0.0781
   49MOL   C58337159   1.948   1.446   5.774  0.1559 -0.0943  0.1374
   49MOL   C58437160   1.799   1.488   5.736  0.4766  0.1443  0.0529
   49MOL   C58537161   1.720   1.526   5.861  0.3157 -0.9429  0.6991
   49MOL   C58637162   1.580   1.558   5.816 -0.2373  0.5189 -0.4364
   49MOL   N58737163   1.501   1.593   5.942 -0.8865  0.4613  0.0008
   49MOL   H58837164   2.816   1.008   5.491  2.2051 -0.4133  2.2723
   49MOL   H58937165   2.873   1.170   5.524  1.6019  0.0910  0.0949
   49MOL   H59037166   2.709   1.256   5.343  0.1572  0.6159  0.5442
   49MOL   H59137167   2.636   1.101   5.342 -1.4125 -0.8369  1.6882
   49MOL   H59237168   2.666   1.283   5.589 -0.4303  1.6248 -1.3954
   49MOL   H59337169   2.595   1.115   5.583 -0.3244 -1.2473 -1.1966
   49MOL   H59437170   2.432   1.183   5.440 -0.0659  0.1765 -0.9464
   49MOL   H59537171   2.475   1.349   5.424 -0.4798 -0.0120  0.3472
   49MOL   H59637172   2.238   1.381   5.496 -0.5600  1.9720  0.4716
   49MOL   H59737173   2.172   1.327   5.776 -2.8802  1.2403  0.8112
   49MOL   H59837174   2.242   1.498   5.736 -0.2683 -0.1126  0.8855
   49MOL   H59937175   2.036   1.511   5.587 -1.6932 -0.3059 -0.1289
   49MOL   H60037176   2.000   1.347   5.614  0.7128 -1.0137  1.2910
   49MOL   H60137177   1.992   1.531   5.827 -0.1874 -0.2574  0.6922
   49MOL   H60237178   1.935   1.368   5.849 -1.1106 -1.1563 -1.1806
   49MOL   H60337179   1.805   1.566   5.660  1.0407  0.1109  0.0649
   49MOL   H60437180   1.749   1.405   5.686  0.0231 -1.3088  2.8005
   49MOL   H60537181   1.717   1.443   5.932 -2.4147 -0.2888  1.4199
   49MOL   H60637182   1.764   1.611   5.912  0.4449 -0.2481 -0.5569
   49MOL   H60737183   1.533   1.476   5.762  0.4511  0.0565 -0.3387
   49MOL   H60837184   1.584   1.640   5.744 -0.9302 -0.3275 -1.4656
   49MOL   H60937185   1.519   1.531   6.020 -0.0341  0.2211 -0.3812
   49MOL   C61037186   1.386   1.658   5.929  0.0293 -0.3298  0.0508
   49MOL   O61137187   1.355   1.723   5.829 -0.1402 -0.0074  0.8448
   49MOL   C61237188   1.302   1.652   6.057  0.3628  0.0353  0.2854
   49MOL   C61337189   1.160   1.598   6.030  0.2713  0.4116  0.6126
   49MOL   C61437190   1.054   1.644   6.132 -0.6284  0.1933 -0.1028
   49MOL   C61537191   0.911   1.588   6.103 -0.2783  1.2478  0.9255
   49MOL   C61637192   0.886   1.445   6.156 -0.2523  0.4502  0.4242
   49MOL   O61737193   0.969   1.360   6.146  0.4459  0.0337 -0.5124
   49MOL   N61837194   0.769   1.430   6.223 -0.3324 -0.1026  0.7229
   49MOL   C61937195   0.735   1.308   6.297 -0.3667  0.5881 -0.4350
   49MOL   C62037196   0.643   1.226   6.204 -0.6385  0.2250  0.0158
   49MOL   C62137197   0.608   1.092   6.267 -0.0587 -0.7035 -0.3571
   49MOL   C62237198   0.497   1.010   6.194 -0.0886  0.0903 -0.3341
   49MOL   C62337199   0.559   0.956   6.061  0.8595 -0.5198  0.5452
   49MOL   C62437200   0.460   0.863   5.997 -0.5827  0.2156  0.5893
   49MOL   N62537201   0.352   0.940   5.930  0.1523 -0.4679 -0.5963
   49MOL   H62637202   1.353   1.610   6.143 -0.2975 -0.4390  0.4571
   49MOL   H62737203   1.280   1.757   6.076  0.3277  0.6423 -2.8884
   49MOL   H62837204   1.135   1.615   5.925 -0.6441 -1.2630  0.5421
   49MOL   H62937205   1.170   1.489   6.023 -1.0047  0.4158 -1.9252
   49MOL   H63037206   1.051   1.753   6.126  1.0784  0.1602 -2.3766
   49MOL   H63137207   1.097   1.606   6.224  1.8145 -0.5581 -1.5159
   49MOL   H63237208   0.895   1.589   5.995  1.0668  1.9686  0.7192
   49MOL   H63337209   0.838   1.658   6.142 -1.6216  0.1740  0.3985
   49MOL   H63437210   0.701   1.503   6.205  0.9752  0.7138 -1.0135
   49MOL   H63537211   0.814   1.246   6.339  0.0101  1.1025 -0.3742
   49MOL   H63637212   0.681   1.334   6.387  1.4115  2.1358  0.2251
   49MOL   H63737213   0.556   1.283   6.172 -1.0573 -1.3154 -1.7125
   49MOL   H63837214   0.695   1.191   6.114 -3.6368  1.4113 -2.2619
   49MOL   H63937215   0.575   1.131   6.362  3.1477 -0.6121  0.7872
   49MOL   H64037216   0.700   1.037   6.289 -1.1978 -2.1682  0.7727
   49MOL   H64137217   0.459   0.926   6.251  2.3454 -2.3883 -2.1893
   49MOL   H64237218   0.418   1.078   6.160 -0.0868  0.0677 -0.3833
   49MOL   H64337219   0.611   1.028   5.998 -0.6464  0.8233  0.8047
   49MOL   H64437220   0.634   0.887   6.100  0.5817  0.2869  2.6175
   49MOL   H64537221   0.403   0.798   6.063  0.7306 -0.4077  1.1270
   49MOL   H64637222   0.510   0.802   5.922  2.0654 -0.2123  2.6052
   49MOL   H64737223   0.382   1.005   5.859  0.6878 -1.7382 -1.5621
   49MOL   C64837224   0.240   0.984   5.987  0.1087 -0.5264  0.2687
   49MOL   O64937225   0.206   0.946   6.101  0.5414  0.1331  0.9028
   49MOL   C65037226   0.144   1.069   5.902 -0.3380 -0.0409  0.6131
   49MOL   C65137227   0.207   1.160   5.796  0.0646 -0.3320  0.0616
   49MOL   C65237228   0.269   1.294   5.850 -0.6401 -0.0839 -0.2566
   49MOL   C65337229   0.409   1.288   5.894 -0.6263 -0.2380  0.4992
   49MOL   C65437230   0.505   1.237   5.784  0.9280  0.0668  0.0234
   49MOL   O65537231   0.516   1.118   5.761  0.3096  0.2738 -0.3237
   49MOL   N65637232   0.573   1.325   5.714  0.5083 -0.9551 -0.4656
   49MOL   C65737233   0.668   1.306   5.608  0.6494 -0.1228  0.4574
   49MOL   C65837234   0.795   1.395   5.620 -0.4175  0.3456  0.0581
   49MOL   C65937235   0.779   1.543   5.633 -0.4359 -0.6363 -0.7264
   49MOL   C66037236   0.913   1.615   5.678 -0.1307 -0.3983 -0.3338
   49MOL   C66137237   0.899   1.768   5.693  0.1405  0.1533 -0.2050
   49MOL   C66237238   1.024   1.839   5.751 -0.4872 -0.8633  0.2010
   49MOL   N66337239   1.145   1.811   5.670 -0.0686  0.0172  0.1544
   49MOL   H66437240   0.087   0.991   5.852  0.8781 -1.0187  0.7272
   49MOL   H66537241   0.062   1.109   5.962 -1.7125 -2.1596  0.1901
   49MOL   H66637242   0.282   1.111   5.733 -1.0998 -0.2681 -1.4168
   49MOL   H66737243   0.121   1.191   5.735 -0.6834 -2.5537 -0.0514
   49MOL   H66837244   0.213   1.326   5.938 -0.5058 -0.8458  0.1090
   49MOL   H66937245   0.274   1.379   5.781  0.0048 -0.2935 -0.4717
   49MOL   H67037246   0.412   1.228   5.985 -1.7706  1.8834  1.9583
   49MOL   H67137247   0.456   1.377   5.935 -1.6146 -0.5102  2.2529
   49MOL   H67237248   0.543   1.418   5.741 -1.1318 -1.3279 -0.9261
   49MOL   H67337249   0.690   1.201   5.589 -0.3224 -0.1052 -0.8106
   49MOL   H67437250   0.610   1.351   5.527  0.9264 -1.5460 -0.5612
   49MOL   H67537251   0.857   1.357   5.701  1.0834  0.2221 -1.1364
   49MOL   H67637252   0.864   1.383   5.537 -1.8226 -0.5635 -1.0036
   49MOL   H67737253   0.713   1.580   5.712  1.3594  2.3842 -0.5551
   49MOL   H67837254   0.726   1.580   5.545  1.7196 -0.9602 -2.1943
   49MOL   H67937255   0.939   1.562   5.769  0.9429 -1.5098 -1.2664
   49MOL   H68037256   0.988   1.596   5.600  1.6033  0.0820  1.1895
   49MOL   H68137257   0.861   1.806   5.598 -1.3810  1.2484  0.8217
   49MOL   H68237258   0.822   1.775   5.769  1.0507  0.9016  0.6782
   49MOL   H68337259   1.053   1.814   5.853 -0.7346  3.1109  1.3126
   49MOL   H68437260   1.003   1.946   5.753 -2.1922 -1.1295 -1.3485
   49MOL   H68537261   1.219   1.766   5.723  0.1386 -1.0602 -1.0294
   49MOL   C68637262   1.163   1.831   5.536 -0.0918  0.1651  0.3892
   49MOL   O68737263   1.074   1.891   5.470  0.3345  0.5948 -0.2470
   49MOL   C68837264   1.297   1.796   5.469 -0.0458  0.1455 -0.2180
   49MOL   C68937265   1.287   1.771   5.317 -0.6607 -0.0457  0.6370
   49MOL   C69037266   1.210   1.645   5.276  0.2362 -0.7304 -0.0275
   49MOL   C69137267   1.206   1.625   5.126  0.2739 -0.1178  0.2492
   49MOL   C69237268   1.212   1.477   5.082 -0.4885 -0.2649 -0.1120
   49MOL   O69337269   1.129   1.401   5.131 -0.4375 -0.1432  0.1437
   49MOL   N69437270   1.301   1.438   4.988  0.1362  0.9851 -0.2849
   49MOL   C69537271   1.300   1.306   4.918  0.2436  0.2065  0.7037
   49MOL   C69637272   1.353   1.193   5.006  0.6921 -0.5225  0.5928
   49MOL   C69737273   1.358   1.057   4.924  0.0971 -0.1434  0.7518
   49MOL   C69837274   1.218   1.016   4.880 -0.2973  0.1995  0.5728
   49MOL   C69937275   1.126   0.979   4.997  0.5620  0.2560 -0.3385
   49MOL   C70037276   1.022   0.874   4.956  0.3325  0.2567  0.1357
   49MOL   N70137277   0.915   0.849   5.053  0.6151 -0.0351 -0.4815
   49MOL   H70237278   1.375   1.870   5.485 -0.1874 -0.0400  1.4502
   49MOL   H70337279   1.333   1.707   5.521 -0.3272  0.0020 -0.2645
   49MOL   H70437280   1.229   1.853   5.275  0.7533  0.6097 -0.0956
   49MOL   H70537281   1.388   1.762   5.276 -0.5619 -0.6496  0.9998
   49MOL   H70637282   1.111   1.648   5.321 -0.9135 -0.9302 -2.4432
   49MOL   H70737283   1.264   1.557   5.311  1.4072  0.0256  0.0948
   49MOL   H70837284   1.286   1.681   5.077 -1.2871 -0.2094 -2.4638
   49MOL   H70937285   1.120   1.673   5.079  0.9503 -0.4518 -1.3760
   49MOL   H71037286   1.378   1.492   4.952  1.4679 -1.1254 -0.6878
   49MOL   H71137287   1.197   1.285   4.886  1.1125 -1.2919 -1.2455
   49MOL   H71237288   1.342   1.298   4.818  1.9022  0.0676  1.3963
   49MOL   H71337289   1.448   1.215   5.055 -0.1130 -0.6819  2.2335
   49MOL   H71437290   1.298   1.171   5.097 -0.5722 -2.1613 -0.5347
   49MOL   H71537291   1.401   0.982   4.991  2.0106 -0.0109 -0.2734
   49MOL   H71637292   1.416   1.061   4.831  0.9500 -1.2110  1.2192
   49MOL   H71737293   1.172   1.095   4.822 -2.8450 -0.1574  2.0086
   49MOL   H71837294   1.228   0.929   4.815  2.4565 -2.2879  4.0598
   49MOL   H71937295   1.179   0.926   5.077  0.8217 -0.1549 -0.7811
   49MOL   H72037296   1.075   1.069   5.033 -2.5065 -2.0843  1.5348
   49MOL   H72137297   1.066   0.777   4.933  3.1872  1.6133 -0.3659
   49MOL   H72237298   0.969   0.902   4.865  1.9249  1.9910 -0.2871
   49MOL   H72337299   0.937   0.800   5.138 -0.7235  1.3496  0.6848
   49MOL   C72437300   0.783   0.855   5.027 -0.2074  1.0397 -0.3541
   49MOL   O72537301   0.728   0.892   4.923  0.2128  0.1979 -0.5132
   49MOL   C72637302   0.699   0.829   5.151  0.4338  0.7065 -0.4012
   49MOL   C72737303   0.576   0.726   5.129 -0.6076 -1.0470  0.4508
   49MOL   C72837304   0.462   0.798   5.061 -0.9565  0.1192  0.1563
   49MOL   C72937305   0.326   0.725   5.081 -0.0319  1.0746  0.0932
   49MOL   C73037306   0.336   0.578   5.043 -0.1849 -1.1661  0.0746
   49MOL   O73137307   0.318   0.543   4.929 -0.0733 -0.6413  0.0026
   49MOL   N73237308   0.357   0.494   5.145 -0.6014  0.3596 -0.2569
   49MOL   C73337309   0.360   0.354   5.131  0.2842  0.4721 -0.1722
   49MOL   C73437310   0.488   0.308   5.065 -0.0011  0.0067 -0.3008
   49MOL   C73537311   0.502   0.154   5.078 -1.3930  0.3815  0.7134
   49MOL   C73637312   0.651   0.112   5.054  0.5470  0.0240  0.6635
   49MOL   C73737313   0.659   7.670   5.044  0.3220  0.8704  0.2295
   49MOL   C73837314   0.789   7.618   4.979  0.2411  0.1683 -0.3849
   49MOL   N73937315   0.902   7.643   5.065 -0.3164  0.6207 -0.0905
   49MOL   H74037316   0.772   0.782   5.216 -0.8413 -0.6284  0.1065
   49MOL   H74137317   0.679   0.924   5.201 -0.2624 -1.4363  3.6387
   49MOL   H74237318   0.616   0.643   5.070 -0.9855  0.2701 -1.6815
   49MOL   H74337319   0.543   0.680   5.222 -0.5495 -1.0825  0.4543
   49MOL   H74437320   0.481   0.816   4.955 -0.6605 -0.6805  0.0723
   49MOL   H74537321   0.452   0.897   5.105  0.5445 -0.5984  2.1949
   49MOL   H74637322   0.252   0.770   5.016  0.4478  3.5154  1.1894
   49MOL   H74737323   0.285   0.742   5.181 -0.8889  1.0730 -0.2516
   49MOL   H74837324   0.389   0.514   5.239  1.2602 -2.6246 -0.2013
   49MOL   H74937325   0.344   0.314   5.231  1.6762 -0.8711 -0.4821
   49MOL   H75037326   0.281   0.315   5.067 -0.2298  1.3895 -0.1129
   49MOL   H75137327   0.492   0.348   4.964 -0.9529 -0.1216 -0.3952
   49MOL   H75237328   0.567   0.356   5.122 -1.9326  0.1682  2.3347
   49MOL   H75337329   0.428   0.115   5.009 -0.4177 -1.0438  0.4520
   49MOL   H75437330   0.472   0.124   5.178 -0.6316 -2.0011  0.2470
   49MOL   H75537331   0.687   0.153   4.960  0.3747  0.0727  0.6174
   49MOL   H75637332   0.715   0.153   5.131 -0.5874 -0.0080  1.6367
   49MOL   H75737333   0.653   7.633   5.146  1.9686 -0.2881 -0.0661
   49MOL   H75837334   0.575   7.621   4.996  1.2581  0.5830 -1.1465
   49MOL   H75937335   0.797   7.672   4.885 -2.1852 -1.0558 -1.3423
   49MOL   H76037336   0.784   7.512   4.955  0.4318  0.0610  0.0348
   49MOL   H76137337   0.977   7.640   4.997 -0.0776  0.7660  0.1697
   49MOL   H76237338   0.904   7.559   5.120  0.3161  0.7016  0.0084
   50MOL     C137339   6.106   6.998   3.470  0.1349 -0.3651  0.4222
   50MOL     O237340   6.191   7.057   3.537  0.7505 -0.1266  0.3980
   50MOL     C337341   6.132   6.964   3.321 -0.6241  0.4120 -0.4128
   50MOL     C437342   6.282   6.976   3.289  0.1206 -0.8294  0.4534
   50MOL     C537343   6.367   6.855   3.332  0.1171 -0.6771 -0.0132
   50MOL     C637344   6.519   6.860   3.319  0.3969 -1.0882 -0.0604
   50MOL     C737345   6.572   6.856   3.170  0.3355  0.0614  0.1263
   50MOL     O837346   6.587   6.961   3.109 -0.3378  0.7963  0.9184
   50MOL     N937347   6.574   6.740   3.113 -0.5993  1.6351  0.4398
   50MOL    C1037348   6.639   6.723   2.981  0.0950  0.1694  0.2582
   50MOL    C1137349   6.636   6.580   2.937  0.3180 -0.4136 -0.0606
   50MOL    C1237350   6.503   6.514   2.913 -0.3322 -0.2988 -0.3382
   50MOL    C1337351   6.448   6.559   2.775  0.2920  0.1503 -0.2510
   50MOL    C1437352   6.317   6.484   2.751  0.3827  0.0607  0.4816
   50MOL    C1537353   6.257   6.516   2.615 -0.3480 -0.5609 -0.4791
   50MOL    N1637354   6.148   6.429   2.587  0.3605 -0.4462 -0.2414
   50MOL    H1737355   6.104   6.861   3.299 -2.3206  1.1263 -1.6946
   50MOL    H1837356   6.062   7.024   3.263  0.6675  0.4338 -1.9800
   50MOL    H1937357   6.295   6.985   3.181  0.8782 -2.0296  0.4439
   50MOL    H2037358   6.329   7.057   3.345  3.7756 -1.2946 -1.7670
   50MOL    H2137359   6.321   6.773   3.276  1.6885 -1.8849  0.4308
   50MOL    H2237360   6.333   6.824   3.430 -0.4299  1.1317  0.3918
   50MOL    H2337361   6.567   6.780   3.376 -1.3126 -1.8900  0.2783
   50MOL    H2437362   6.568   6.943   3.370 -0.2090  0.5123 -2.0212
   50MOL    H2537363   6.551   6.658   3.167 -1.8587  2.4779  1.2041
   50MOL    H2637364   6.585   6.786   2.910  1.0990  1.0121  0.2297
   50MOL    H2737365   6.740   6.762   2.992 -0.1375  2.0293 -3.2978
   50MOL    H2837366   6.694   6.575   2.845 -1.1425  2.0159 -1.1463
   50MOL    H2937367   6.683   6.521   3.015 -0.2090 -3.2039 -1.7875
   50MOL    H3037368   6.424   6.522   2.987 -2.4419  0.2190 -2.5736
   50MOL    H3137369   6.508   6.405   2.908 -0.1723 -0.2462 -1.4162
   50MOL    H3237370   6.432   6.667   2.782  1.6282  0.3420  0.0669
   50MOL    H3337371   6.513   6.535   2.691 -0.9119 -2.3705 -0.5275
   50MOL    H3437372   6.337   6.378   2.764  0.0780 -0.0810 -0.2250
   50MOL    H3537373   6.246   6.510   2.830  1.1036  0.1345  1.1091
   50MOL    H3637374   6.327   6.490   2.536 -0.3537  1.9916 -1.3881
   50MOL    H3737375   6.232   6.621   2.596 -0.6011 -0.1611  1.8988
   50MOL    H3837376   6.179   6.333   2.578 -1.1624 -1.0465  0.5637
   50MOL    H3937377   6.013   6.967   3.516 -0.5733  2.7092  1.2013
   50MOL    C4037378   6.018   6.454   2.597 -1.1133  0.0813 -1.2261
   50MOL    O4137379   5.971   6.558   2.637  0.1128 -0.6238 -0.4891
   50MOL    C4237380   5.925   6.324   2.581 -0.0066 -0.8362  0.8288
   50MOL    C4337381   5.776   6.367   2.567 -0.7138  0.9806 -0.5704
   50MOL    C4437382   5.708   6.347   2.707  0.4508  0.1904 -0.5954
   50MOL    C4537383   5.595   6.453   2.725 -0.4308  0.8027 -0.2077
   50MOL    C4637384   5.538   6.453   2.874 -0.1045 -0.4934 -0.0075
   50MOL    O4737385   5.537   6.346   2.943 -0.2170 -0.7232 -0.2907
   50MOL    N4837386   5.492   6.569   2.930  0.2921  0.2999 -0.5207
   50MOL    C4937387   5.440   6.572   3.066  0.7594 -0.3898  0.6375
   50MOL    C5037388   5.369   6.694   3.099 -0.7636  0.5033  0.2489
   50MOL    C5137389   5.295   6.682   3.231  0.3051  0.4234  0.0152
   50MOL    C5237390   5.282   6.810   3.310 -0.2917 -0.4517  0.5830
   50MOL    C5337391   5.181   6.911   3.257 -0.4620 -0.4874 -0.3685
   50MOL    C5437392   5.195   7.054   3.299  0.3011 -0.3302  0.1122
   50MOL    N5537393   5.119   7.144   3.208  0.3009  0.5862 -0.6838
   50MOL    H5637394   5.939   6.266   2.490  1.2507  2.9224 -1.4758
   50MOL    H5737395   5.940   6.255   2.665  3.1210  0.0361  1.0655
   50MOL    H5837396   5.764   6.461   2.512  2.4104  0.1512 -2.8043
   50MOL    H5937397   5.734   6.291   2.502  1.9313 -0.4808 -0.6263
   50MOL    H6037398   5.784   6.345   2.786 -1.0343 -0.0569  0.8432
   50MOL    H6137399   5.659   6.250   2.704  1.8057 -0.4868 -1.3780
   50MOL    H6237400   5.512   6.408   2.670 -0.2906 -2.6321  2.2831
   50MOL    H6337401   5.614   6.554   2.688 -0.5841  0.8386 -0.1903
   50MOL    H6437402   5.512   6.654   2.879  1.8921  0.2752  0.0106
   50MOL    H6537403   5.386   6.477   3.076  1.9322 -1.1608 -0.2552
   50MOL    H6637404   5.526   6.557   3.132  1.3762  1.7952  0.3696
   50MOL    H6737405   5.449   6.768   3.106  0.2016 -0.5600  0.8144
   50MOL    H6837406   5.305   6.714   3.014 -1.3816  1.6466  0.9721
   50MOL    H6937407   5.348   6.607   3.288 -0.6667  0.2327  0.6840
   50MOL    H7037408   5.196   6.640   3.213  0.6006  0.7071 -2.5263
   50MOL    H7137409   5.248   6.778   3.409  0.1645  0.3091  0.9951
   50MOL    H7237410   5.383   6.843   3.333 -0.5998  0.6614  0.3729
   50MOL    H7337411   5.201   6.912   3.149  2.3291  0.5408  0.0992
   50MOL    H7437412   5.077   6.880   3.266 -0.1065 -1.5826 -0.0711
   50MOL    H7537413   5.300   7.079   3.285  1.1676 -2.9293  1.5319
   50MOL    H7637414   5.180   7.075   3.404 -0.2904 -0.6998  0.1024
   50MOL    H7737415   5.121   7.122   3.110 -0.0525 -0.3903 -0.4852
   50MOL    C7837416   5.038   7.240   3.239  0.9724 -0.1258  0.0167
   50MOL    O7937417   5.018   7.280   3.350  0.0183 -0.2500 -0.4203
   50MOL    C8037418   4.979   7.309   3.114 -0.1697 -0.7047  0.1663
   50MOL    C8137419   4.983   7.462   3.115 -0.4065 -0.3125  0.1369
   50MOL    C8237420   5.118   7.521   3.098 -0.5589 -0.2729  0.2180
   50MOL    C8337421   5.141   7.665   3.138 -0.2695 -0.1607 -0.2087
   50MOL    C8437422   5.064   0.064   3.051 -0.7846 -0.5881 -0.0562
   50MOL    O8537423   5.026   0.035   2.941 -0.5484  0.2540 -0.7551
   50MOL    N8637424   5.051   0.186   3.106  0.0632  0.1570  0.1587
   50MOL    C8737425   4.961   0.289   3.062  0.5978 -0.1649  0.7145
   50MOL    C8837426   4.954   0.411   3.158 -0.4619 -0.0983  0.4590
   50MOL    C8937427   4.870   0.517   3.085  0.9009 -0.0577  0.1344
   50MOL    C9037428   4.848   0.642   3.172  0.2188 -0.2876  0.0140
   50MOL    C9137429   4.806   0.766   3.084 -0.1982  0.1310  0.3489
   50MOL    C9237430   4.655   0.769   3.049  0.1064  0.3753 -0.0358
   50MOL    N9337431   4.634   0.880   2.957 -0.5226 -0.3302 -0.4375
   50MOL    H9437432   5.027   7.274   3.023  0.5546  1.7402 -0.4238
   50MOL    H9537433   4.874   7.285   3.098 -0.0484 -2.0719  1.3162
   50MOL    H9637434   4.920   7.496   3.032 -0.5128 -2.1530 -0.5671
   50MOL    H9737435   4.934   7.494   3.207 -0.3119  2.2210 -0.6606
   50MOL    H9837436   5.154   7.509   2.995 -1.4734  3.4960 -0.6126
   50MOL    H9937437   5.184   7.468   3.166 -0.1569  0.2602  0.2393
   50MOL   H10037438   5.246   7.694   3.132 -0.5574  0.8381 -0.5188
   50MOL   H10137439   5.100   7.665   3.239 -1.3450 -0.1890 -0.6406
   50MOL   H10237440   5.095   0.203   3.195  0.1780  2.9772 -0.3991
   50MOL   H10337441   4.989   0.337   2.968  0.9446 -1.7738 -0.0148
   50MOL   H10437442   4.860   0.254   3.040  0.4946  2.1722 -2.9507
   50MOL   H10537443   4.904   0.384   3.251 -0.5502  0.2391  0.5105
   50MOL   H10637444   5.049   0.451   3.190 -0.6952  0.6757  0.1958
   50MOL   H10737445   4.771   0.475   3.065  0.3150  2.2654 -2.0346
   50MOL   H10837446   4.914   0.525   2.986  0.1092  0.6513 -0.1660
   50MOL   H10937447   4.781   0.614   3.254 -0.7655 -0.1848 -0.7363
   50MOL   H11037448   4.944   0.675   3.210  0.2352  0.6026 -0.7825
   50MOL   H11137449   4.825   0.852   3.149  1.1916 -0.3682  0.6139
   50MOL   H11237450   4.861   0.773   2.991  1.8393  2.5925  1.6727
   50MOL   H11337451   4.605   0.785   3.144 -0.6537 -0.5087 -0.2758
   50MOL   H11437452   4.618   0.676   3.007  1.1982 -0.2439  0.3443
   50MOL   H11537453   4.698   0.902   2.882 -0.3563 -2.0092 -0.7907
   50MOL   C11637454   4.514   0.942   2.961 -0.3180  0.1476 -0.5410
   50MOL   O11737455   4.427   0.895   3.032  0.2317 -1.5738  0.1826
   50MOL   C11837456   4.488   1.064   2.867 -0.5758 -0.0791 -0.6560
   50MOL   C11937457   4.388   1.164   2.925  0.0939 -0.6756 -0.2301
   50MOL   C12037458   4.232   1.132   2.916 -0.1304 -0.4883  0.0329
   50MOL   C12137459   4.172   1.120   2.767  0.0971  0.1531 -0.5257
   50MOL   C12237460   4.151   1.256   2.705 -0.2002  0.2327  0.1089
   50MOL   O12337461   4.074   1.341   2.757 -0.2437 -0.7413  0.9482
   50MOL   N12437462   4.220   1.287   2.599  0.3715  0.5986  0.1224
   50MOL   C12537463   4.215   1.410   2.523 -0.4169 -0.4081  0.1609
   50MOL   C12637464   4.304   1.521   2.574 -0.0571  0.3561  0.7963
   50MOL   C12737465   4.292   1.650   2.488  0.0900 -1.0389 -1.4301
   50MOL   C12837466   4.387   1.768   2.536 -0.0338  0.0009  0.1889
   50MOL   C12937467   4.354   1.893   2.451  0.0362 -0.5369 -0.1113
   50MOL   C13037468   4.391   2.032   2.524 -0.1079 -0.4202 -0.4960
   50MOL   N13137469   4.394   2.142   2.430  0.1788 -0.0073  1.0288
   50MOL   H13237470   4.584   1.110   2.848  1.2703 -2.9539  1.2793
   50MOL   H13337471   4.460   1.031   2.767 -0.3952 -2.9054  0.1697
   50MOL   H13437472   4.417   1.170   3.030  0.9378 -2.6564 -0.3262
   50MOL   H13537473   4.417   1.262   2.888  0.9870 -1.2923 -1.1610
   50MOL   H13637474   4.181   1.205   2.978 -0.4394 -1.8641  1.4488
   50MOL   H13737475   4.221   1.035   2.965  0.4320  0.5579  2.2939
   50MOL   H13837476   4.066   1.096   2.774  0.0642  0.2081 -0.8364
   50MOL   H13937477   4.226   1.046   2.708  0.9780  0.0104  0.4342
   50MOL   H14037478   4.292   1.222   2.570  0.1842  0.3678  0.1770
   50MOL   H14137479   4.246   1.380   2.423 -3.4352  2.6858 -1.8562
   50MOL   H14237480   4.110   1.440   2.515  0.3266  2.2621 -0.2412
   50MOL   H14337481   4.282   1.536   2.680 -1.9134  0.9369  0.3423
   50MOL   H14437482   4.405   1.482   2.572 -0.5374 -0.8798  0.1200
   50MOL   H14537483   4.191   1.687   2.502  1.1553  0.7567  2.1417
   50MOL   H14637484   4.298   1.625   2.382 -2.4924 -0.1415 -1.8259
   50MOL   H14737485   4.371   1.778   2.644 -0.2078  0.1498  0.1490
   50MOL   H14837486   4.493   1.745   2.541 -0.2689 -0.7582  3.1425
   50MOL   H14937487   4.410   1.888   2.357 -0.9704 -0.3665 -0.7252
   50MOL   H15037488   4.247   1.892   2.432  0.2350  1.9363 -1.5541
   50MOL   H15137489   4.491   2.007   2.559 -0.6050 -0.3636  1.0191
   50MOL   H15237490   4.321   2.052   2.605 -0.0479 -3.0602  0.2616
   50MOL   H15337491   4.479   2.149   2.376  1.0836 -1.2419  2.2716
   50MOL   C15437492   4.287   2.215   2.386 -0.5547 -0.2389 -0.6439
   50MOL   O15537493   4.180   2.203   2.447  0.5335 -0.0650  0.7758
   50MOL   C15637494   4.313   2.314   2.269 -0.3461  0.2187  0.0325
   50MOL   C15737495   4.213   2.291   2.154  0.4454  0.1198  0.5252
   50MOL   C15837496   4.223   2.150   2.092  0.3493  0.2436  0.7439
   50MOL   C15937497   4.341   2.148   1.992 -0.2641 -0.4361 -0.2952
   50MOL   C16037498   4.380   2.009   1.948 -0.6633 -0.0235 -0.0336
   50MOL   O16137499   4.311   1.943   1.879 -0.0511 -0.1118  0.0566
   50MOL   N16237500   4.506   1.971   1.983 -0.0813  0.1811 -0.1363
   50MOL   C16337501   4.573   1.843   1.955 -0.0694  0.4281  0.9973
   50MOL   C16437502   4.508   1.739   2.052  0.8184 -0.5450  0.2239
   50MOL   C16537503   4.568   1.595   2.058  0.5154 -0.1009  0.2818
   50MOL   C16637504   4.516   1.512   2.177 -0.3707 -0.3196 -0.4761
   50MOL   C16737505   4.573   1.376   2.176 -0.0736  0.2925  0.1550
   50MOL   C16837506   4.530   1.287   2.293 -0.3975 -0.7917 -0.0863
   50MOL   N16937507   4.550   1.142   2.265 -0.5505 -0.2456  0.2009
   50MOL   H17037508   4.301   2.412   2.314 -3.8007  0.1314 -0.5037
   50MOL   H17137509   4.407   2.300   2.216 -0.9469  0.5230 -1.1440
   50MOL   H17237510   4.112   2.304   2.193 -0.5573  0.1284 -1.9920
   50MOL   H17337511   4.225   2.367   2.077 -0.7348  0.5849  0.7926
   50MOL   H17437512   4.132   2.124   2.038 -0.2751  2.0619  0.8726
   50MOL   H17537513   4.238   2.070   2.164 -1.5438  0.6332  1.6310
   50MOL   H17637514   4.428   2.188   2.044  1.0220 -3.1041 -0.2693
   50MOL   H17737515   4.324   2.206   1.901  0.8345 -0.7031 -0.6766
   50MOL   H17837516   4.562   2.038   2.034  1.8635 -1.5663  0.0933
   50MOL   H17937517   4.561   1.807   1.853  1.1059 -3.5916  2.1713
   50MOL   H18037518   4.680   1.856   1.969  0.2991 -2.7978  1.4895
   50MOL   H18137519   4.517   1.778   2.154 -3.6784  0.6392  0.2747
   50MOL   H18237520   4.400   1.730   2.043  0.7799 -0.1972  0.3335
   50MOL   H18337521   4.677   1.592   2.048  0.5041 -1.0018  0.3871
   50MOL   H18437522   4.532   1.554   1.964  0.3763 -1.4070  0.8857
   50MOL   H18537523   4.527   1.567   2.271 -1.3870 -1.0984  0.1113
   50MOL   H18637524   4.408   1.498   2.178 -0.1561 -2.0736  0.3336
   50MOL   H18737525   4.548   1.329   2.081  2.8720  3.7121 -2.4340
   50MOL   H18837526   4.681   1.390   2.177  0.0529 -0.6288  1.3149
   50MOL   H18937527   4.428   1.305   2.326  0.9345  1.6179  3.0477
   50MOL   H19037528   4.593   1.316   2.378  0.4934  0.4013 -1.1267
   50MOL   H19137529   4.626   1.117   2.204  0.3274  0.6557  0.9158
   50MOL   C19237530   4.486   1.039   2.324 -0.1502 -0.9180 -0.4600
   50MOL   O19337531   4.396   1.058   2.401  0.3894 -0.7038  0.5518
   50MOL   C19437532   4.541   0.903   2.298  0.6172  0.5417 -0.6616
   50MOL   C19537533   4.574   0.819   2.423 -0.3709  0.4569  0.1517
   50MOL   C19637534   4.452   0.762   2.486 -0.0307  0.3625  0.5380
   50MOL   C19737535   4.481   0.694   2.622  0.3401 -0.2244 -0.1589
   50MOL   C19837536   4.351   0.634   2.674 -0.2265  0.4607  0.1386
   50MOL   O19937537   4.242   0.687   2.659  0.0762  0.4307  0.6881
   50MOL   N20037538   4.361   0.521   2.746  0.1820 -0.1116 -0.2049
   50MOL   C20137539   4.252   0.447   2.807  0.6331  0.2308 -0.3564
   50MOL   C20237540   4.229   0.501   2.946  0.0335  0.5512  0.9746
   50MOL   C20337541   4.350   0.488   3.042 -0.6058  0.3971  0.2118
   50MOL   C20437542   4.328   0.525   3.186  0.5327 -0.2398 -0.0439
   50MOL   C20537543   4.458   0.509   3.276 -0.1290 -0.0432 -0.2547
   50MOL   C20637544   4.439   0.517   3.427 -0.1426 -0.2650  0.0057
   50MOL   N20737545   4.352   0.406   3.470 -0.3977 -0.0954  0.0890
   50MOL   H20837546   4.487   0.850   2.219 -1.3849 -1.5477  2.0044
   50MOL   H20937547   4.638   0.924   2.252  1.4794 -1.0610  0.3835
   50MOL   H21037548   4.652   0.749   2.397 -0.4002 -0.2526  1.9152
   50MOL   H21137549   4.614   0.891   2.494 -1.0421  2.6184 -1.6028
   50MOL   H21237550   4.397   0.704   2.411  2.0869 -0.2018 -0.6042
   50MOL   H21337551   4.385   0.845   2.509  2.9204  3.2221 -0.7867
   50MOL   H21437552   4.514   0.774   2.689 -2.3703  1.3572 -0.6109
   50MOL   H21537553   4.561   0.620   2.617 -0.8572 -1.7784  2.7270
   50MOL   H21637554   4.456   0.508   2.779  1.4619 -0.9567 -3.9839
   50MOL   H21737555   4.161   0.448   2.747  0.5613  0.9458 -0.2400
   50MOL   H21837556   4.285   0.343   2.807  0.1471  0.0709 -1.4168
   50MOL   H21937557   4.192   0.603   2.935  0.1341  0.6147  1.2295
   50MOL   H22037558   4.147   0.443   2.988  0.3478 -0.1823  0.5880
   50MOL   H22137559   4.432   0.542   2.994 -1.2659  0.4727 -0.8431
   50MOL   H22237560   4.383   0.385   3.047  1.6348  1.0511 -0.2616
   50MOL   H22337561   4.302   0.631   3.197  1.0238 -0.2606  1.3505
   50MOL   H22437562   4.235   0.479   3.220  0.7846 -0.6196  0.1215
   50MOL   H22537563   4.512   0.419   3.248  2.1161  1.0702  0.3645
   50MOL   H22637564   4.529   0.586   3.244  1.3596 -0.9352  0.8545
   50MOL   H22737565   4.396   0.615   3.446 -3.1282 -1.3452 -0.9455
   50MOL   H22837566   4.527   0.529   3.491 -0.8241  0.8015  0.7658
   50MOL   H22937567   4.254   0.427   3.477 -0.3757  0.2926 -0.8268
   50MOL   C23037568   4.385   0.271   3.471 -0.3506  0.0944 -0.2554
   50MOL   O23137569   4.501   0.225   3.461 -1.0609 -0.8347 -0.5655
   50MOL   C23237570   4.269   0.176   3.507  0.4009  0.3913  0.4949
   50MOL   C23337571   4.219   0.088   3.386 -0.7522 -0.1415  0.0282
   50MOL   C23437572   4.110   7.693   3.434  0.3995  0.4303  0.3897
   50MOL   C23537573   4.085   7.588   3.331 -0.3396 -0.1499  0.4064
   50MOL   C23637574   3.991   7.475   3.370 -0.2894  0.2625  0.3869
   50MOL   O23737575   4.014   7.355   3.343  0.4240 -0.4244  0.0240
   50MOL   N23837576   3.871   7.507   3.423  0.5779  0.3462 -0.2617
   50MOL   C23937577   3.770   7.416   3.482 -0.2371 -0.6075  0.0790
   50MOL   C24037578   3.646   7.499   3.505  0.1220 -0.2681  0.2549
   50MOL   C24137579   3.522   7.421   3.553  0.2172 -0.4012 -0.4496
   50MOL   C24237580   3.529   7.345   3.688  0.4635  0.6399  0.2020
   50MOL   C24337581   3.517   7.425   3.814 -0.5123  0.1795  0.0784
   50MOL   C24437582   3.503   7.344   3.943 -0.0711  0.1249  0.0934
   50MOL   N24537583   3.534   7.417   4.070  0.1698 -0.3221 -0.4542
   50MOL   H24637584   4.313   0.109   3.580  1.5010  1.1616  0.5466
   50MOL   H24737585   4.182   0.223   3.554  0.0055  1.3217 -1.1166
   50MOL   H24837586   4.171   0.152   3.313 -0.9864  0.1519  0.4356
   50MOL   H24937587   4.307   0.044   3.339  1.3033  1.0970  2.5242
   50MOL   H25037588   4.017   0.035   3.459 -1.0453 -0.5696 -2.8314
   50MOL   H25137589   4.144   7.637   3.522 -1.8264 -2.1491 -0.3436
   50MOL   H25237590   4.183   7.546   3.307 -0.4794  0.2511 -0.9041
   50MOL   H25337591   4.048   7.617   3.232 -0.3010 -2.0627 -0.1834
   50MOL   H25437592   3.841   7.602   3.406 -0.6160  0.1871  0.8857
   50MOL   H25537593   3.745   7.338   3.410 -0.9395 -1.7749  1.5492
   50MOL   H25637594   3.807   7.372   3.574 -1.3975  0.8634  1.2822
   50MOL   H25737595   3.671   7.580   3.573  0.6895  0.0439 -0.3227
   50MOL   H25837596   3.610   7.551   3.416 -0.5136  0.5620  0.9898
   50MOL   H25937597   3.502   7.351   3.473 -0.3096 -0.6576 -0.0944
   50MOL   H26037598   3.435   7.486   3.560 -0.1704 -0.8895 -0.7458
   50MOL   H26137599   3.449   7.271   3.689  0.5465  0.5663  1.6098
   50MOL   H26237600   3.616   7.280   3.697 -1.3527 -1.7006  1.2551
   50MOL   H26337601   3.598   7.496   3.824  0.6400 -1.3164  1.6949
   50MOL   H26437602   3.430   7.491   3.811 -0.2013  0.7192  2.4120
   50MOL   H26537603   3.565   7.255   3.934  1.1393  1.1235 -1.6735
   50MOL   H26637604   3.404   7.303   3.965 -0.2759 -0.1860 -1.3450
   50MOL   H26737605   3.457   7.456   4.123 -0.6457 -1.4475 -0.7807
   50MOL   C26837606   3.653   7.455   4.109  0.6285  0.0074  0.2325
   50MOL   O26937607   3.746   7.438   4.032  0.5500 -0.2609 -0.1140
   50MOL   C27037608   3.670   7.502   4.248 -0.4758  0.0475 -0.5903
   50MOL   C27137609   3.764   7.412   4.338 -0.5909  0.2717 -0.1545
   50MOL   C27237610   3.709   7.273   4.367 -0.5657  0.5765  0.0034
   50MOL   C27337611   3.788   7.169   4.456 -0.1034  0.5975 -0.4643
   50MOL   C27437612   3.789   7.216   4.602  0.5927  0.2084  0.1648
   50MOL   O27537613   3.757   7.329   4.636  0.1188  0.2417  0.3518
   50MOL   N27637614   3.837   7.128   4.684  0.6830 -0.2308  0.1000
   50MOL   C27737615   3.831   7.146   4.830 -0.1956  0.3991 -0.1173
   50MOL   C27837616   3.964   7.216   4.885  0.4262  0.1952 -0.9384
   50MOL   C27937617   3.952   7.233   5.045  0.4207 -0.2889 -0.3347
   50MOL   C28037618   4.090   7.258   5.105  0.1062  0.4597 -0.3662
   50MOL   C28137619   4.087   7.284   5.258 -0.8394  0.0395 -0.4640
   50MOL   C28237620   4.222   7.280   5.323 -0.7013  0.0896  0.0216
   50MOL   N28337621   4.275   7.144   5.329 -0.1101  0.9936  0.0073
   50MOL   H28437622   3.724   7.596   4.247 -2.0703  1.0598  2.5424
   50MOL   H28537623   3.577   7.513   4.303 -1.4189 -0.9893 -1.9363
   50MOL   H28637624   3.869   7.408   4.309 -0.6313  0.9530 -0.3954
   50MOL   H28737625   3.777   7.460   4.435 -0.3055  1.2523 -0.6725
   50MOL   H28837626   3.696   7.208   4.280 -2.0766  0.1718  0.5103
   50MOL   H28937627   3.609   7.299   4.403 -0.3195 -0.6959  1.7031
   50MOL   H29037628   3.889   7.164   4.416  0.2932 -1.2812  0.7151
   50MOL   H29137629   3.751   7.067   4.447  0.3973  0.3009  0.6789
   50MOL   H29237630   3.868   7.040   4.644  0.5400  0.3285 -1.2568
   50MOL   H29337631   3.741   7.194   4.869 -1.3333 -0.9943 -0.9883
   50MOL   H29437632   3.834   7.046   4.872  0.1719  0.6679  0.5092
   50MOL   H29537633   4.054   7.162   4.856 -0.3535 -2.3255  1.1885
   50MOL   H29637634   3.978   7.314   4.840 -0.9004 -0.6137 -3.1908
   50MOL   H29737635   3.911   7.139   5.084  1.0754 -0.3443  0.2180
   50MOL   H29837636   3.891   7.318   5.076  0.6984  0.1480 -0.9809
   50MOL   H29937637   4.147   7.167   5.085 -1.0089 -0.0811 -1.1235
   50MOL   H30037638   4.145   7.336   5.053 -0.0102 -0.0912 -1.3232
   50MOL   H30137639   4.049   7.386   5.264  1.6184  0.9508  0.1851
   50MOL   H30237640   4.009   7.227   5.307 -0.6529 -0.2577 -0.5156
   50MOL   H30337641   4.217   7.305   5.429  3.3791 -0.7795  0.5129
   50MOL   H30437642   4.291   7.347   5.272 -1.0727  0.2317 -0.2865
   50MOL   H30537643   4.209   7.072   5.356  1.2875 -0.6591 -0.8977
   50MOL   C30637644   4.394   7.111   5.286 -0.6313  0.3074 -0.0565
   50MOL   O30737645   4.477   7.201   5.256 -0.1241  0.0633 -0.1180
   50MOL   C30837646   4.433   6.963   5.275  0.0238 -0.0110 -0.6003
   50MOL   C30937647   4.570   6.941   5.213 -0.3363  0.0367 -0.3344
   50MOL   C31037648   4.600   6.798   5.179  0.0802 -0.1876  0.7949
   50MOL   C31137649   4.738   6.774   5.104  0.4457 -0.1978  0.9218
   50MOL   C31237650   4.722   6.807   4.956 -0.6194  0.0560  0.7859
   50MOL   O31337651   4.617   6.854   4.918  0.7102 -0.4290  0.1602
   50MOL   N31437652   4.827   6.788   4.875 -0.0353  0.3264 -0.1346
   50MOL   C31537653   4.827   6.835   4.736 -0.7140  0.1690  0.1690
   50MOL   C31637654   4.965   6.818   4.670  0.2791  0.1544  0.2262
   50MOL   C31737655   5.033   6.684   4.700 -0.1475 -0.5055  0.6396
   50MOL   C31837656   5.165   6.664   4.622 -0.3518  0.0214  0.0776
   50MOL   C31937657   5.214   6.522   4.631  0.6104 -0.4489  0.1686
   50MOL   C32037658   5.335   6.504   4.544 -0.0987  0.2026  0.2706
   50MOL   N32137659   5.373   6.364   4.546  0.3659 -0.0811 -0.1623
   50MOL   H32237660   4.424   6.913   5.372  1.5562 -0.9862 -0.9392
   50MOL   H32337661   4.362   6.913   5.209  0.8636 -1.2191 -0.6081
   50MOL   H32437662   4.585   7.006   5.127  2.5518 -2.5339 -1.8541
   50MOL   H32537663   4.641   6.987   5.281 -0.3340 -0.9220  0.3292
   50MOL   H32637664   4.523   6.741   5.127  0.6118  0.2336 -0.4952
   50MOL   H32737665   4.613   6.741   5.271  2.3101 -0.9806  0.0487
   50MOL   H32837666   4.762   6.669   5.121  0.4673 -0.0362  1.9495
   50MOL   H32937667   4.823   6.822   5.151  2.7791 -1.8898 -1.4719
   50MOL   H33037668   4.913   6.752   4.914  1.5195  0.8188 -2.9763
   50MOL   H33137669   4.758   6.766   4.688 -0.8008 -0.1864  0.7924
   50MOL   H33237670   4.788   6.937   4.727 -0.1916  0.5492  1.8884
   50MOL   H33337671   4.959   6.840   4.563  0.5638  3.0702  0.7751
   50MOL   H33437672   5.038   6.892   4.704  3.6215 -2.5986 -0.6891
   50MOL   H33537673   4.971   6.595   4.699 -1.0175  0.1034 -0.8458
   50MOL   H33637674   5.059   6.710   4.803 -0.2163  1.5345  0.1776
   50MOL   H33737675   5.139   6.674   4.516 -1.0225 -2.1615  0.0198
   50MOL   H33837676   5.240   6.743   4.636 -0.2686 -0.2527  1.1798
   50MOL   H33937677   5.250   6.504   4.733 -0.4873 -1.5088  0.3722
   50MOL   H34037678   5.130   6.457   4.608  2.0355 -1.4135 -2.5223
   50MOL   H34137679   5.424   6.544   4.592 -0.6072  1.0349  0.5402
   50MOL   H34237680   5.333   6.550   4.445  1.0318  1.8585  0.9824
   50MOL   H34337681   5.402   6.319   4.632  0.1603  0.7780  0.3673
   50MOL   C34437682   5.369   6.278   4.442 -0.1102  0.8045 -0.3570
   50MOL   O34537683   5.343   6.307   4.326 -0.2979 -0.3501 -0.5185
   50MOL   C34637684   5.379   6.128   4.478  0.0411  0.8011  1.0402
   50MOL   C34737685   5.383   6.030   4.353 -0.3568 -0.0490  0.0576
   50MOL   C34837686   5.507   6.015   4.266 -0.4904 -0.3416 -0.4702
   50MOL   C34937687   5.493   5.974   4.119 -0.2302 -0.1133  0.2349
   50MOL   C35037688   5.439   5.834   4.084  0.4416 -0.7537 -0.2106
   50MOL   O35137689   5.516   5.742   4.105  0.2947 -0.3399  0.6026
   50MOL   N35237690   5.325   5.830   4.023 -0.3631 -0.0631 -0.7679
   50MOL   C35337691   5.278   5.720   3.946 -0.5767  0.4337 -0.1108
   50MOL   C35437692   5.258   5.763   3.801 -0.0181 -0.4214 -0.2609
   50MOL   C35537693   5.178   5.658   3.720  0.0944 -0.1707  0.1929
   50MOL   C35637694   5.254   5.527   3.719  0.3517  0.2806  0.6640
   50MOL   C35737695   5.174   5.422   3.643  0.1348  0.5787  0.5514
   50MOL   C35837696   5.251   5.292   3.628  0.1693  0.8210 -0.1092
   50MOL   N35937697   5.183   5.208   3.528  0.0903 -0.1956  0.0739
   50MOL   H36037698   5.471   6.127   4.536  0.1362  0.0088  0.8789
   50MOL   H36137699   5.288   6.118   4.537 -0.7381  0.7209 -0.1590
   50MOL   H36237700   5.358   5.929   4.388  2.0016 -1.5779 -2.4518
   50MOL   H36337701   5.302   6.053   4.284 -0.6344  2.9811  1.3317
   50MOL   H36437702   5.566   5.948   4.330 -0.3690  1.8747  1.8392
   50MOL   H36537703   5.558   6.111   4.264  0.0359 -0.5475  1.7373
   50MOL   H36637704   5.587   5.981   4.065  0.2762 -0.4783  1.0490
   50MOL   H36737705   5.428   6.033   4.055 -1.0906 -2.8908 -1.5299
   50MOL   H36837706   5.264   5.910   4.033 -0.3134 -0.2221  1.0911
   50MOL   H36937707   5.348   5.638   3.956 -0.5909  0.5151  0.6156
   50MOL   H37037708   5.186   5.689   3.996 -0.5318  0.5522  0.0450
   50MOL   H37137709   5.204   5.858   3.793  0.7643  0.0517  0.0544
   50MOL   H37237710   5.359   5.768   3.761  1.5474 -3.0147  3.1435
   50MOL   H37337711   5.166   5.709   3.624  1.0846 -0.0849  0.1192
   50MOL   H37437712   5.078   5.656   3.765 -1.3085  2.2639 -2.5565
   50MOL   H37537713   5.346   5.534   3.662 -0.2648  0.4183 -0.3138
   50MOL   H37637714   5.274   5.494   3.822 -0.6679  1.3507  1.2185
   50MOL   H37737715   5.079   5.393   3.687  0.7948 -0.0688  1.5721
   50MOL   H37837716   5.167   5.462   3.542  0.4621  1.6792  0.9549
   50MOL   H37937717   5.259   5.238   3.722  1.1446  2.5140  0.8094
   50MOL   H38037718   5.350   5.306   3.585  0.5498 -1.0362  0.0890
   50MOL   H38137719   5.221   5.213   3.434  1.6694 -0.1179  0.7016
   50MOL   C38237720   5.075   5.134   3.545 -0.2071  0.1732 -0.3580
   50MOL   O38337721   5.005   5.146   3.644 -0.0570 -0.5228  0.3679
   50MOL   C38437722   5.018   5.059   3.425 -0.2724  0.3950  0.2162
   50MOL   C38537723   5.047   4.914   3.442  0.0410 -0.2888 -0.0824
   50MOL   C38637724   4.973   4.821   3.348  0.5269 -0.7574  0.3695
   50MOL   C38737725   4.826   4.785   3.385  0.3669  0.1369  0.3262
   50MOL   C38837726   4.812   4.720   3.517 -0.1717  0.1697 -0.3527
   50MOL   O38937727   4.905   4.642   3.557 -0.0066 -0.6658 -0.2686
   50MOL   N39037728   4.701   4.741   3.592  0.2782  0.1674 -0.0942
   50MOL   C39137729   4.671   4.687   3.723  0.1719 -0.4007 -0.0328
   50MOL   C39237730   4.655   4.798   3.829 -0.1564  0.1159  0.0059
   50MOL   C39337731   4.510   4.851   3.822 -0.3902 -0.0722  0.3280
   50MOL   C39437732   4.476   4.977   3.908  1.1511  0.1820 -0.1002
   50MOL   C39537733   4.328   5.018   3.893  0.2830  0.3483  1.0598
   50MOL   C39637734   4.298   5.158   3.936  0.5488 -0.3390  1.1465
   50MOL   N39737735   4.161   5.201   3.918 -0.4500 -0.3657  0.1173
   50MOL   H39837736   4.914   5.092   3.421 -1.2470 -2.7929 -2.5026
   50MOL   H39937737   5.064   5.112   3.341  0.5692 -0.0709  0.3757
   50MOL   H40037738   5.154   4.906   3.422  0.1471 -2.5859  1.2134
   50MOL   H40137739   5.035   4.886   3.547 -0.7023  0.2044 -0.0336
   50MOL   H40237740   5.029   4.728   3.356 -1.3967 -1.9473  0.4455
   50MOL   H40337741   4.979   4.866   3.249  0.4886 -1.0764  0.2214
   50MOL   H40437742   4.795   4.706   3.317 -2.0256 -0.7446  2.3810
   50MOL   H40537743   4.765   4.875   3.373  1.4107  0.7923 -0.2162
   50MOL   H40637744   4.624   4.794   3.554 -0.6498 -0.2195  1.2243
   50MOL   H40737745   4.594   4.610   3.721  1.8247 -2.0871 -0.4521
   50MOL   H40837746   4.761   4.628   3.743  1.7127  2.4249  1.7492
   50MOL   H40937747   4.668   4.751   3.926  0.1430  1.0076  0.4098
   50MOL   H41037748   4.722   4.881   3.805  0.2946 -0.4779 -0.8093
   50MOL   H41137749   4.438   4.774   3.848 -0.8655  0.1933 -0.1977
   50MOL   H41237750   4.483   4.868   3.718 -1.0811 -2.3313  0.1215
   50MOL   H41337751   4.498   4.965   4.014  0.5570  1.6747  0.2140
   50MOL   H41437752   4.539   5.059   3.874  1.3902 -0.0894 -0.3085
   50MOL   H41537753   4.306   5.018   3.786 -2.1319  0.8290  1.5263
   50MOL   H41637754   4.264   4.946   3.945  2.7293 -2.2864  0.5365
   50MOL   H41737755   4.367   5.228   3.889  0.1466 -1.9936 -2.0324
   50MOL   H41837756   4.324   5.170   4.042  0.2630  3.2949  0.8445
   50MOL   H41937757   4.122   5.227   4.007 -2.7578 -0.4722 -0.8121
   50MOL   C42037758   4.106   5.253   3.807 -0.0307  0.5358  0.6658
   50MOL   O42137759   4.177   5.256   3.701 -0.0979 -0.4054 -0.0212
   50MOL   C42237760   3.959   5.302   3.823 -0.3151 -0.2941  0.1485
   50MOL   C42337761   3.875   5.260   3.698  0.6144  0.8414  0.0356
   50MOL   C42437762   3.723   5.306   3.713 -0.4707 -0.1504 -0.8416
   50MOL   C42537763   3.630   5.226   3.613  0.5093 -0.0240 -0.5095
   50MOL   C42637764   3.481   5.238   3.636  1.2121 -0.2386  0.2498
   50MOL   O42737765   3.416   5.342   3.627 -0.5885 -0.0850  0.1562
   50MOL   N42837766   3.419   5.127   3.678 -0.1666  0.2867 -0.7254
   50MOL   C42937767   3.276   5.131   3.718 -0.7343 -0.5060 -0.9422
   50MOL   C43037768   3.257   5.173   3.864 -0.2154 -0.1200  0.5198
   50MOL   C43137769   3.352   5.116   3.968 -0.1003 -0.1805  0.4360
   50MOL   C43237770   3.356   4.965   3.990 -0.0171  0.5875  0.5474
   50MOL   C43337771   3.218   4.898   4.024  0.8571 -0.6620 -0.4904
   50MOL   C43437772   3.245   4.746   4.073 -0.0653 -0.5086  1.2652
   50MOL   N43537773   3.277   4.666   3.953  0.4169  0.1676  0.7162
   50MOL   H43637774   3.919   5.272   3.920  2.4707 -1.1594  1.0740
   50MOL   H43737775   3.955   5.411   3.820 -0.7530 -0.3024  0.4389
   50MOL   H43837776   3.924   5.303   3.611  2.7407 -2.0555 -0.2901
   50MOL   H43937777   3.881   5.151   3.694 -1.9558  0.6511  0.5073
   50MOL   H44037778   3.714   5.414   3.712 -1.7125 -0.2193  1.4569
   50MOL   H44137779   3.698   5.279   3.815  0.6817 -1.6452 -0.9385
   50MOL   H44237780   3.651   5.120   3.614  1.5602  0.1764  1.4227
   50MOL   H44337781   3.651   5.262   3.512 -0.3276 -1.0717 -1.0734
   50MOL   H44437782   3.465   5.038   3.693  0.7495  0.9352  0.4228
   50MOL   H44537783   3.212   5.188   3.651 -2.3677  0.3869  1.3131
   50MOL   H44637784   3.246   5.027   3.708 -0.9656 -0.3474 -1.8871
   50MOL   H44737785   3.281   5.280   3.873  4.9603 -1.1488  0.7150
   50MOL   H44837786   3.153   5.157   3.892 -0.7559 -0.4113 -1.5797
   50MOL   H44937787   3.326   5.159   4.065  0.1395  2.9747 -0.8398
   50MOL   H45037788   3.450   5.158   3.950  0.2689 -0.3402  1.9509
   50MOL   H45137789   3.404   4.907   3.911  1.1005  2.2032  0.0173
   50MOL   H45237790   3.416   4.954   4.080  0.8634 -1.2751 -0.2472
   50MOL   H45337791   3.162   4.956   4.097 -0.5913  1.6549 -3.3406
   50MOL   H45437792   3.157   4.896   3.933 -0.3425  2.2755  0.1805
   50MOL   H45537793   3.155   4.707   4.122 -0.2365 -2.5330 -0.5506
   50MOL   H45637794   3.329   4.742   4.142  1.3291 -3.9915 -0.4906
   50MOL   H45737795   3.374   4.659   3.926  0.1216 -1.9254  0.1368
   50MOL   C45837796   3.189   4.595   3.884  0.4816  0.2163 -0.5748
   50MOL   O45937797   3.223   4.517   3.800 -0.1510 -0.3143  0.3259
   50MOL   C46037798   3.035   4.607   3.918 -0.0002  0.2468 -0.4867
   50MOL   C46137799   2.931   4.551   3.817 -0.2261  0.0749 -0.0552
   50MOL   C46237800   2.820   4.469   3.879  0.0534  0.3485  0.3134
   50MOL   C46337801   2.709   4.452   3.773  0.5565 -0.2400 -0.1005
   50MOL   C46437802   2.637   4.587   3.729 -0.2831 -0.2040 -0.1927
   50MOL   O46537803   2.561   4.637   3.809 -0.2550 -0.2370 -0.0816
   50MOL   N46637804   2.645   4.627   3.600  0.3105 -0.1666  1.0407
   50MOL   C46737805   2.606   4.764   3.558 -0.1859  0.0388 -0.4610
   50MOL   C46837806   2.462   4.796   3.534 -0.1819  0.2154  0.3760
   50MOL   C46937807   2.406   4.703   3.422  0.5581  0.0970  0.1617
   50MOL   C47037808   2.256   4.725   3.390  0.3162 -0.8913  0.3991
   50MOL   C47137809   2.196   4.625   3.286  0.1088  0.3002 -0.9880
   50MOL   C47237810   2.250   4.641   3.140 -0.6681  0.5196  0.2057
   50MOL   N47337811   2.205   4.525   3.067 -0.7820 -0.0905 -0.1841
   50MOL   H47437812   3.020   4.555   4.012  1.1925  0.0650 -0.3961
   50MOL   H47537813   3.005   4.710   3.934  2.0918  1.2073 -2.4229
   50MOL   H47637814   2.887   4.639   3.771 -1.4157  0.2403  1.3449
   50MOL   H47737815   2.983   4.494   3.741  0.6561  0.8605 -0.0473
   50MOL   H47837816   2.798   4.507   3.979 -3.4200 -1.3554  0.2575
   50MOL   H47937817   2.871   4.375   3.898  1.6795  0.9800 -0.7238
   50MOL   H48037818   2.640   4.374   3.804  0.0167  0.2264 -0.1150
   50MOL   H48137819   2.743   4.402   3.682 -2.4507 -1.7337 -0.4776
   50MOL   H48237820   2.700   4.572   3.535  0.7387 -0.3725  1.5668
   50MOL   H48337821   2.654   4.833   3.627 -0.5738  1.2895 -1.4184
   50MOL   H48437822   2.648   4.781   3.458  0.4365  2.6145  0.2066
   50MOL   H48537823   2.404   4.789   3.626 -1.9885 -1.5356 -0.8584
   50MOL   H48637824   2.443   4.898   3.501 -0.7927  0.1078  0.3872
   50MOL   H48737825   2.421   4.599   3.452  3.0146  0.1854 -0.6417
   50MOL   H48837826   2.464   4.721   3.332 -1.1294  0.3551 -0.9123
   50MOL   H48937827   2.192   4.740   3.478  0.7500  1.9558  0.2558
   50MOL   H49037828   2.244   4.821   3.340 -1.1020 -0.3743  1.6754
   50MOL   H49137829   2.207   4.521   3.317 -0.1054  0.4439 -0.4368
   50MOL   H49237830   2.087   4.625   3.284  0.0428  1.8885  1.1190
   50MOL   H49337831   2.358   4.654   3.147 -0.5689 -0.8648  1.3250
   50MOL   H49437832   2.216   4.730   3.086  1.7585  1.3950  0.0130
   50MOL   H49537833   2.118   4.477   3.088 -0.4344 -2.1973 -3.1967
   50MOL   C49637834   2.279   4.466   2.973 -0.6581 -0.1146 -0.3772
   50MOL   O49737835   2.395   4.507   2.954 -0.5975 -0.1574  0.3160
   50MOL   C49837836   2.215   4.349   2.900 -1.0742 -0.3790  0.3207
   50MOL   C49937837   2.185   4.396   2.756 -0.2362  0.0191  0.0665
   50MOL   C50037838   2.169   4.273   2.660  0.0087  0.3504  0.2379
   50MOL   C50137839   2.071   4.292   2.538 -0.3841 -0.2948 -0.6395
   50MOL   C50237840   2.121   4.395   2.439 -0.0877  0.7365  0.1530
   50MOL   O50337841   2.219   4.370   2.370 -0.0044  0.0815  0.3840
   50MOL   N50437842   2.059   4.514   2.434 -1.0106  0.0785  0.7645
   50MOL   C50537843   2.105   4.630   2.356  0.4731  1.1344 -0.0699
   50MOL   C50637844   2.081   4.617   2.207 -0.0014 -0.1224 -0.2300
   50MOL   C50737845   2.125   4.743   2.130 -0.3178 -0.3806 -0.2944
   50MOL   C50837846   2.065   4.740   1.994  0.1839 -0.7750  0.3819
   50MOL   C50937847   2.093   4.870   1.913  0.3644 -0.2392  0.2636
   50MOL   C51037848   2.049   4.868   1.762  0.1168  0.5859 -0.1103
   50MOL   N51137849   2.067   5.003   1.710  0.5131 -0.1566 -0.4767
   50MOL   H51237850   2.293   4.274   2.890  0.4218  1.3214 -1.4142
   50MOL   H51337851   2.123   4.312   2.944 -1.5974  1.7568  1.1070
   50MOL   H51437852   2.097   4.460   2.755  0.0415  0.4218 -2.9777
   50MOL   H51537853   2.255   4.474   2.726  0.6612 -0.5918  0.5614
   50MOL   H51637854   2.134   4.187   2.717  1.3087 -0.8455 -0.7304
   50MOL   H51737855   2.264   4.239   2.619 -0.0098  0.3584  0.1890
   50MOL   H51837856   1.976   4.325   2.580 -0.4637  1.0676 -1.8198
   50MOL   H51937857   2.069   4.200   2.480 -0.7369 -0.1375 -0.8754
   50MOL   H52037858   1.968   4.515   2.476 -1.6094  1.9734 -0.5216
   50MOL   H52137859   2.063   4.722   2.397 -1.2556  1.4275 -2.3509
   50MOL   H52237860   2.212   4.645   2.364  0.9241 -1.8803  0.0064
   50MOL   H52337861   2.147   4.536   2.178 -0.3287 -1.5045  2.6350
   50MOL   H52437862   1.977   4.589   2.188 -0.4209  1.4509 -0.3125
   50MOL   H52537863   2.233   4.740   2.124 -0.3665 -2.5474 -0.4295
   50MOL   H52637864   2.083   4.830   2.181 -0.3714 -0.9057  0.5791
   50MOL   H52737865   2.096   4.659   1.928 -1.5364  0.0826 -1.5353
   50MOL   H52837866   1.960   4.713   2.012  0.4234 -1.1488  1.2418
   50MOL   H52937867   2.050   4.956   1.964  1.6756  0.3372  0.4244
   50MOL   H53037868   2.199   4.895   1.916  0.7008 -1.5586 -0.2781
   50MOL   H53137869   1.949   4.835   1.735  0.7948  0.1479 -2.1830
   50MOL   H53237870   2.112   4.797   1.709  0.4624  1.0939 -0.3818
   50MOL   H53337871   2.135   5.058   1.761 -2.1228  2.1513  0.6290
   50MOL   C53437872   2.034   5.039   1.589 -0.3349 -0.1207 -0.4490
   50MOL   O53537873   1.985   4.963   1.510 -0.1172  0.2719 -0.1901
   50MOL   C53637874   2.075   5.185   1.560  0.3136 -0.2443 -0.2315
   50MOL   C53737875   2.200   5.213   1.478  0.0791 -0.0472  0.1008
   50MOL   C53837876   2.181   5.172   1.334 -0.2159 -0.3696 -0.0932
   50MOL   C53937877   2.312   5.116   1.263 -0.3235  0.0815  0.5850
   50MOL   C54037878   2.384   5.232   1.197 -0.4840  0.2224  0.8067
   50MOL   O54137879   2.347   5.268   1.087  0.4952 -0.1945  0.2253
   50MOL   N54237880   2.478   5.295   1.268  0.3150 -0.7951 -0.4225
   50MOL   C54337881   2.537   5.424   1.245 -0.0206  0.1375 -0.6882
   50MOL   C54437882   2.441   5.539   1.259 -0.0601  0.2754 -0.3998
   50MOL   C54537883   2.512   5.676   1.237 -0.0346 -0.0394  0.3423
   50MOL   C54637884   2.569   5.692   1.092 -0.0881  0.3860 -0.8423
   50MOL   C54737885   2.461   5.679   0.981 -0.5288  0.1215 -0.2533
   50MOL   C54837886   2.508   5.695   0.835 -0.5651  0.7176  0.1205
   50MOL   N54937887   2.609   5.795   0.818  0.0086 -0.3754 -0.0841
   50MOL   H55037888   1.996   5.241   1.510  0.2625  0.7039  0.8910
   50MOL   H55137889   2.092   5.241   1.652  0.1628  1.9835 -1.5328
   50MOL   H55237890   2.238   5.314   1.493  1.6749 -0.9579  2.5814
   50MOL   H55337891   2.281   5.158   1.526  1.3858  2.5221  0.9432
   50MOL   H55437892   2.130   5.261   1.297  1.5290  1.1021  0.9618
   50MOL   H55537893   2.100   5.099   1.332  0.9906 -1.7151 -0.3951
   50MOL   H55637894   2.280   5.050   1.182 -0.8875  0.2862  0.6374
   50MOL   H55737895   2.366   5.055   1.335  0.6874 -0.8835 -0.9573
   50MOL   H55837896   2.494   5.253   1.359  2.2181  1.0200  0.1322
   50MOL   H55937897   2.627   5.431   1.305  1.1116  1.9403 -2.5073
   50MOL   H56037898   2.584   5.413   1.147  1.5319  0.9024 -0.0487
   50MOL   H56137899   2.357   5.530   1.191  1.7460 -1.7469 -2.4432
   50MOL   H56237900   2.392   5.525   1.355  1.1320 -0.6346  0.0936
   50MOL   H56337901   2.588   5.686   1.315 -2.1046 -0.6881  2.4888
   50MOL   H56437902   2.439   5.755   1.259 -0.3891 -0.1474 -0.4374
   50MOL   H56537903   2.613   5.791   1.081 -0.4985  0.7694  0.8072
   50MOL   H56637904   2.646   5.615   1.084  3.7775  3.5556  3.5144
   50MOL   H56737905   2.398   5.591   0.993  0.1841 -0.2681  0.7698
   50MOL   H56837906   2.393   5.764   0.992  2.0280  1.9078  2.8038
   50MOL   H56937907   2.422   5.699   0.768 -0.9537  0.0340  0.5756
   50MOL   H57037908   2.563   5.612   0.791 -3.5486 -1.6469  0.6245
   50MOL   H57137909   2.700   5.764   0.786  0.5598 -1.2063  2.2323
   50MOL   C57237910   2.589   5.927   0.839  0.2751  0.1582 -0.0617
   50MOL   O57337911   2.478   5.968   0.877 -0.3998 -0.1075 -0.4820
   50MOL   C57437912   2.704   6.021   0.804 -0.4274  0.6136  0.0601
   50MOL   C57537913   2.673   6.168   0.816  0.0281 -0.1526 -0.3706
   50MOL   C57637914   2.768   6.256   0.737 -0.2445 -0.1577 -0.7201
   50MOL   C57737915   2.754   6.400   0.759 -0.6588  0.1680 -0.1656
   50MOL   C57837916   2.810   6.461   0.887  0.4616 -0.5416  0.6389
   50MOL   O57937917   2.926   6.449   0.917 -0.5048 -0.1492 -0.0774
   50MOL   N58037918   2.723   6.532   0.960  0.0884  0.6979  0.7766
   50MOL   C58137919   2.761   6.601   1.077 -0.8198 -0.4943 -0.4131
   50MOL   C58237920   2.714   6.743   1.079  0.1996 -0.4549 -0.1880
   50MOL   C58337921   2.788   6.839   0.978  0.0915  0.9578  0.3442
   50MOL   C58437922   2.789   6.990   1.012 -0.0558 -0.5077 -1.1109
   50MOL   C58537923   2.649   7.060   1.016  0.7368 -0.1026 -0.6559
   50MOL   C58637924   2.672   7.218   1.024 -0.4768 -0.2273  0.0817
   50MOL   N58737925   2.557   7.301   1.036  0.0101 -0.4668 -0.3483
   50MOL   H58837926   2.790   5.992   0.865  0.0636  0.3839 -0.7275
   50MOL   H58937927   2.728   6.005   0.699  0.9333  1.8495  0.1627
   50MOL   H59037928   2.568   6.194   0.802  0.1517  1.1324  0.8906
   50MOL   H59137929   2.670   6.200   0.921 -1.2994  1.5343 -0.8939
   50MOL   H59237930   2.761   6.216   0.636  0.4169 -1.8523 -0.1022
   50MOL   H59337931   2.871   6.224   0.754 -0.0251  1.9775  2.5138
   50MOL   H59437932   2.647   6.417   0.745 -0.5241 -0.8016 -2.5030
   50MOL   H59537933   2.799   6.449   0.674 -2.5856 -0.0304 -1.3311
   50MOL   H59637934   2.628   6.533   0.927 -0.5671  0.1755  2.5948
   50MOL   H59737935   2.735   6.534   1.159  1.4374 -0.4405  0.3670
   50MOL   H59837936   2.869   6.610   1.086 -1.0408  0.8993  1.0041
   50MOL   H59937937   2.608   6.752   1.058  0.3231 -2.8504 -2.0375
   50MOL   H60037938   2.721   6.785   1.180  1.5574 -0.2049 -0.3824
   50MOL   H60137939   2.747   6.827   0.877 -2.7481  0.6434  1.4915
   50MOL   H60237940   2.893   6.811   0.972 -0.0530  0.4505  0.1738
   50MOL   H60337941   2.831   6.991   1.113 -2.3944 -4.2719  0.0055
   50MOL   H60437942   2.864   7.040   0.952 -0.5232  1.7934  0.1723
   50MOL   H60537943   2.591   7.047   0.925 -1.3607  0.1396  0.6097
   50MOL   H60637944   2.602   7.032   1.111  2.0330  0.6070  0.2117
   50MOL   H60737945   2.739   7.248   0.944 -0.8526  1.6307  0.4365
   50MOL   H60837946   2.724   7.245   1.116 -1.5097 -0.7887  0.8490
   50MOL   H60937947   2.495   7.282   1.114  0.0135  1.0394  0.0485
   50MOL   C61037948   2.512   7.392   0.950 -0.1720 -0.2118  0.0224
   50MOL   O61137949   2.580   7.424   0.849  0.2126  0.3597  0.0742
   50MOL   C61237950   2.380   7.461   0.976  0.1415 -0.8856 -0.2508
   50MOL   C61337951   2.283   7.449   0.867  0.8005  0.0143  0.0705
   50MOL   C61437952   2.175   7.341   0.885 -0.7923  0.0849 -0.6549
   50MOL   C61537953   2.232   7.194   0.899 -0.3429 -0.3010  0.0213
   50MOL   C61637954   2.131   7.092   0.946  0.0937  0.6216 -0.2267
   50MOL   O61737955   2.019   7.087   0.893  0.2494 -0.3323 -0.5198
   50MOL   N61837956   2.169   7.005   1.035 -0.0721 -0.0417  0.0964
   50MOL   C61937957   2.086   6.920   1.116  0.4401  0.2540  0.1237
   50MOL   C62037958   2.094   6.775   1.081  0.0078  0.2379 -0.5403
   50MOL   C62137959   2.030   6.689   1.183 -0.6431 -0.1365 -0.6782
   50MOL   C62237960   2.055   6.531   1.177 -0.2369  0.4976 -0.8607
   50MOL   C62337961   1.986   6.468   1.300 -0.4090 -0.4304  0.0528
   50MOL   C62437962   1.963   6.314   1.282 -0.3153  0.0686 -0.3713
   50MOL   N62537963   2.086   6.240   1.291  0.7632 -0.2500 -0.1021
   50MOL   H62637964   2.340   7.410   1.064  1.0093 -1.0902  0.0282
   50MOL   H62737965   2.379   7.566   1.005 -0.3678 -0.9191 -0.1315
   50MOL   H62837966   2.226   7.542   0.861  0.8805  0.0406 -0.2862
   50MOL   H62937967   2.336   7.444   0.772  1.5288 -0.1700  0.4805
   50MOL   H63037968   2.108   7.354   0.800 -1.7855  1.1458  0.2820
   50MOL   H63137969   2.123   7.357   0.979  0.6600  2.5701 -0.2180
   50MOL   H63237970   2.305   7.189   0.980 -1.3869 -3.4340  0.8153
   50MOL   H63337971   2.283   7.156   0.810 -1.4974  1.2188 -1.3218
   50MOL   H63437972   2.265   7.017   1.063  1.6839  0.9535 -5.6785
   50MOL   H63537973   2.140   6.931   1.211  0.6593 -0.6795  0.1206
   50MOL   H63637974   1.983   6.954   1.119  0.6861  1.0260 -0.1757
   50MOL   H63737975   2.044   6.767   0.985 -1.7637  1.2676  0.2762
   50MOL   H63837976   2.199   6.747   1.068 -0.0938 -0.2350 -0.3387
   50MOL   H63937977   1.921   6.690   1.188 -0.5147  2.0743  2.7200
   50MOL   H64037978   2.055   6.725   1.282 -2.1202 -1.3611  0.1568
   50MOL   H64137979   2.001   6.496   1.089 -0.6454  0.1896 -0.4874
   50MOL   H64237980   2.161   6.508   1.174 -0.7513 -2.2248  0.1437
   50MOL   H64337981   2.044   6.496   1.387 -1.6908  0.9544  0.4894
   50MOL   H64437982   1.890   6.509   1.333  0.4173  1.4131  0.2193
   50MOL   H64537983   1.925   6.296   1.181 -1.6194  0.2248  0.0797
   50MOL   H64637984   1.885   6.278   1.349 -1.3748 -0.2714 -1.7516
   50MOL   H64737985   2.159   6.298   1.331 -1.7061  1.5274  2.0217
   50MOL   C64837986   2.101   6.108   1.285  0.2274  0.2004  0.0816
   50MOL   O64937987   2.003   6.031   1.270  0.1772  0.6718  0.6791
   50MOL   C65037988   2.236   6.051   1.314 -0.3811 -0.0500 -0.5379
   50MOL   C65137989   2.346   6.089   1.221 -0.2064 -0.0771  0.5908
   50MOL   C65237990   2.485   6.053   1.286 -0.7283 -0.4532  0.3884
   50MOL   C65337991   2.598   6.094   1.201 -0.0460  0.3544  0.1439
   50MOL   C65437992   2.729   6.042   1.248 -0.1286  0.2678  0.3209
   50MOL   O65537993   2.758   6.014   1.363 -0.1635  0.2975 -0.3003
   50MOL   N65637994   2.828   6.035   1.154  0.3774  0.4891 -0.1824
   50MOL   C65737995   2.950   5.949   1.172 -0.4426 -0.0732 -0.0102
   50MOL   C65837996   2.902   5.800   1.191  0.5535 -0.0779  0.3106
   50MOL   C65937997   3.015   5.701   1.209 -0.5751 -0.1462 -1.2695
   50MOL   C66037998   2.964   5.557   1.200  0.2681  0.5125  0.2760
   50MOL   C66137999   3.057   5.452   1.258 -0.9173  0.2432  0.3133
   50MOL   C66238000   2.986   5.318   1.261  0.3733  0.1162 -0.1831
   50MOL   N66338001   3.078   5.229   1.332  0.7425 -0.1524 -0.3889
   50MOL   H66438002   2.255   6.075   1.419 -0.2223 -0.8169 -0.3921
   50MOL   H66538003   2.229   5.943   1.328  2.3248 -0.3813 -1.4453
   50MOL   H66638004   2.328   6.047   1.122 -1.6369 -0.3875  0.9745
   50MOL   H66738005   2.354   6.189   1.178  2.7194 -0.0312  1.0865
   50MOL   H66838006   2.485   5.948   1.314  0.4314 -0.5826 -0.1103
   50MOL   H66938007   2.503   6.097   1.384  0.9357 -0.7745  0.2352
   50MOL   H67038008   2.611   6.202   1.198  0.8952  0.2198 -0.9495
   50MOL   H67138009   2.576   6.063   1.099  2.2540  0.4722 -0.4236
   50MOL   H67238010   2.809   6.070   1.061 -0.2450  1.2290  0.2249
   50MOL   H67338011   3.009   5.946   1.080  1.0555 -0.0434  0.9462
   50MOL   H67438012   3.003   5.981   1.261  0.7220 -1.9513 -0.0021
   50MOL   H67538013   2.843   5.794   1.283 -0.1037 -1.2129 -0.1693
   50MOL   H67638014   2.841   5.771   1.105  1.7263  1.3811 -1.0371
   50MOL   H67738015   3.051   5.712   1.312 -2.2401  1.2073 -0.8163
   50MOL   H67838016   3.098   5.713   1.139  0.2274 -0.6658 -0.4242
   50MOL   H67938017   2.877   5.553   1.266 -1.3954  0.7681 -1.8436
   50MOL   H68038018   2.918   5.536   1.104 -1.5357  0.2649  1.1600
   50MOL   H68138019   3.149   5.447   1.199 -0.1245 -3.1627  1.7365
   50MOL   H68238020   3.106   5.480   1.351  0.3703 -1.5126  0.1904
   50MOL   H68338021   2.960   5.300   1.157  0.7915  2.1019 -0.6533
   50MOL   H68438022   2.897   5.320   1.324 -0.0514  3.4353 -0.8215
   50MOL   H68538023   3.131   5.170   1.269  0.6147 -0.4213 -0.2451
   50MOL   C68638024   3.083   5.196   1.460  0.1311  0.5812 -0.2054
   50MOL   O68738025   3.015   5.254   1.546  0.5176  0.4709  0.3371
   50MOL   C68838026   3.181   5.085   1.496  0.0524 -0.2973 -0.2400
   50MOL   C68938027   3.314   5.143   1.560 -0.3376 -0.0984 -0.5390
   50MOL   C69038028   3.290   5.173   1.715 -0.7740  0.1395  0.2264
   50MOL   C69138029   3.280   5.052   1.812 -0.2808 -0.1188 -0.4990
   50MOL   C69238030   3.397   4.951   1.795  0.4012  0.4185  0.1228
   50MOL   O69338031   3.512   4.989   1.802  0.2471 -0.1750 -0.0695
   50MOL   N69438032   3.366   4.821   1.769 -0.0392  0.4724 -0.0644
   50MOL   C69538033   3.443   4.711   1.724 -0.0024  0.1462  0.3664
   50MOL   C69638034   3.432   4.685   1.573 -0.1625 -0.3652 -0.5063
   50MOL   C69738035   3.291   4.630   1.523  0.1337  0.9184  1.1549
   50MOL   C69838036   3.276   4.584   1.385  0.0773  0.5505  0.2999
   50MOL   C69938037   3.123   4.557   1.349 -0.7034 -0.2346  0.1768
   50MOL   C70038038   3.098   4.520   1.201  0.4377 -0.1590  0.7009
   50MOL   N70138039   2.955   4.509   1.179  0.3764  0.3753 -0.5352
   50MOL   H70238040   3.129   5.012   1.558  1.1726 -0.8887  0.0004
   50MOL   H70338041   3.219   5.044   1.403 -0.3025  0.2190 -0.6134
   50MOL   H70438042   3.393   5.076   1.529 -0.2027 -0.1442 -0.0962
   50MOL   H70538043   3.327   5.234   1.502 -0.7049 -0.4401 -1.1713
   50MOL   H70638044   3.206   5.241   1.727 -1.8257 -0.9014 -1.1112
   50MOL   H70738045   3.381   5.230   1.733 -1.5113  1.2529  0.4643
   50MOL   H70838046   3.192   4.992   1.789 -0.0582 -0.3336 -0.7926
   50MOL   H70938047   3.279   5.093   1.913 -0.2126 -1.7053  0.1647
   50MOL   H71038048   3.269   4.803   1.790 -0.1565  1.0394 -0.1245
   50MOL   H71138049   3.542   4.743   1.758  0.0014  0.6905 -0.1320
   50MOL   H71238050   3.428   4.618   1.778 -1.9902 -0.9025 -1.9076
   50MOL   H71338051   3.452   4.778   1.519  1.7771 -0.7510 -0.4910
   50MOL   H71438052   3.497   4.602   1.542  0.8238  0.4014 -0.5213
   50MOL   H71538053   3.221   4.712   1.532 -1.9557 -0.6159 -0.6939
   50MOL   H71638054   3.255   4.555   1.593  3.0758 -1.3210  0.3865
   50MOL   H71738055   3.316   4.656   1.314 -0.2811  0.5674  0.1168
   50MOL   H71838056   3.341   4.496   1.381 -0.4304  0.1747  0.2163
   50MOL   H71938057   3.080   4.497   1.429 -2.2911 -0.2165 -0.6413
   50MOL   H72038058   3.078   4.656   1.355 -0.2237 -0.0196  0.2363
   50MOL   H72138059   3.131   4.418   1.179  0.6820 -0.3135  1.7400
   50MOL   H72238060   3.149   4.590   1.135 -2.0028 -0.0857 -1.1669
   50MOL   H72338061   2.905   4.441   1.234  0.2735 -0.5593 -1.7423
   50MOL   C72438062   2.884   4.576   1.091  0.4315  0.5071 -0.1499
   50MOL   O72538063   2.932   4.662   1.022 -0.3880 -0.3263 -0.1904
   50MOL   C72638064   2.735   4.546   1.083 -0.2501  0.1623  0.0559
   50MOL   C72738065   2.653   4.617   0.981 -0.2224 -0.7241 -0.0530
   50MOL   C72838066   2.636   4.534   0.846 -0.1845  0.2231  0.2583
   50MOL   C72938067   2.777   4.511   0.781  0.3535 -0.0735  0.2214
   50MOL   C73038068   2.764   4.440   0.648 -0.4932 -0.2447  0.2629
   50MOL   O73138069   2.697   4.338   0.635  0.3280  0.4282  0.6372
   50MOL   N73238070   2.848   4.484   0.559 -0.5752 -0.2889  1.1544
   50MOL   C73338071   2.864   4.432   0.425  0.9498  0.9192 -0.3465
   50MOL   C73438072   2.783   4.510   0.322 -0.0615 -0.1378  0.0851
   50MOL   C73538073   2.795   4.450   0.182  0.5572 -0.0372  0.4110
   50MOL   C73638074   2.708   4.501   0.073 -0.1261  0.1213 -0.1177
   50MOL   C73738075   2.726   4.650   0.022  0.6094  0.3613  0.2139
   50MOL   C73838076   2.619   4.694   7.637  0.3843  0.6182  0.2327
   50MOL   N73938077   2.643   4.817   7.561  0.1403  0.3458 -0.2301
   50MOL   H74038078   2.728   4.438   1.076 -0.2053  0.0876  1.1195
   50MOL   H74138079   2.699   4.570   1.183  0.0471 -1.7964  0.6532
   50MOL   H74238080   2.548   4.628   1.008 -0.2034  0.2388 -0.3545
   50MOL   H74338081   2.692   4.712   0.944  0.7474  0.2033  3.1417
   50MOL   H74438082   2.573   4.592   0.779 -1.2413 -3.3118 -1.9645
   50MOL   H74538083   2.590   4.442   0.881 -0.0441 -0.7573 -2.0043
   50MOL   H74638084   2.829   4.444   0.850 -1.3867 -1.6696  0.0204
   50MOL   H74738085   2.823   4.609   0.773  2.3514 -0.9784  0.2955
   50MOL   H74838086   2.893   4.571   0.585  0.0971 -0.2165 -0.2320
   50MOL   H74938087   2.967   4.440   0.390  0.2327  0.5732 -2.6435
   50MOL   H75038088   2.849   4.324   0.434 -1.5518  1.5262  3.8082
   50MOL   H75138089   2.677   4.513   0.349  0.1320 -0.9501  0.9822
   50MOL   H75238090   2.822   4.611   0.327 -0.8410  0.1049  1.4249
   50MOL   H75338091   2.773   4.344   0.194 -1.4846  0.5884  2.6104
   50MOL   H75438092   2.897   4.436   0.145 -0.3745  2.0938 -3.2155
   50MOL   H75538093   2.722   4.437   7.694 -0.1498 -0.3396  0.2138
   50MOL   H75638094   2.603   4.487   0.098  0.2649  1.5038  2.4347
   50MOL   H75738095   2.731   4.722   0.104 -1.0719  1.3042 -0.5002
   50MOL   H75838096   2.827   4.658   7.689  0.7839  1.6208  0.8699
   50MOL   H75938097   2.530   4.710   7.697  0.4670 -1.6802  1.0392
   50MOL   H76038098   2.610   4.613   7.565  0.7582  0.0464  0.8198
   50MOL   H76138099   2.711   4.780   7.496 -0.2099  0.6469 -0.7730
   50MOL   H76238100   2.571   4.832   7.492  1.5206  1.4627 -1.4510
   51MOL     C138101   0.101   1.816   0.494  0.3204 -0.2358  0.2885
   51MOL     O238102   0.123   1.692   0.495 -0.4234 -0.1026 -0.3117
   51MOL     C338103   0.212   1.922   0.483 -0.0250 -0.2068  0.1037
   51MOL     C438104   0.221   1.981   0.343  0.1348 -0.4221 -0.1040
   51MOL     C538105   0.350   2.059   0.331  0.4602  0.4879  0.1346
   51MOL     C638106   0.357   2.133   0.197  0.5481  0.0503 -0.2160
   51MOL     C738107   0.300   2.278   0.217 -0.9053  0.3756  0.0597
   51MOL     O838108   0.181   2.305   0.207  0.5831 -0.2281 -0.0421
   51MOL     N938109   0.385   2.369   0.261  0.1798  0.8883  0.2422
   51MOL    C1038110   0.357   2.508   0.305  0.4736 -0.1877  0.0174
   51MOL    C1138111   0.479   2.596   0.309 -0.5358 -0.0826  0.1430
   51MOL    C1238112   0.564   2.608   0.189 -0.4696  0.5833  0.5326
   51MOL    C1338113   0.708   2.668   0.225 -0.1169 -0.3822  0.6240
   51MOL    C1438114   0.767   2.759   0.111 -0.2382 -0.1315 -1.2554
   51MOL    C1538115   0.913   2.802   0.139 -0.8492 -0.4706  0.6694
   51MOL    N1638116   0.934   2.873   0.262  0.6160  0.3229  0.1122
   51MOL    H1738117   0.203   2.001   0.558  2.7238  2.0410 -1.8508
   51MOL    H1838118   0.314   1.891   0.508  0.4491 -0.7500 -2.4424
   51MOL    H1938119   0.226   1.909   0.261  1.1601  0.4297 -0.7979
   51MOL    H2038120   0.141   2.052   0.320  1.7671  1.3001 -0.5950
   51MOL    H2138121   0.430   1.987   0.347 -1.0138 -1.2043  0.1081
   51MOL    H2238122   0.354   2.125   0.417 -2.1714 -0.3398  0.9412
   51MOL    H2338123   0.306   2.087   0.112 -3.7386 -2.1216  3.2851
   51MOL    H2438124   0.461   2.143   0.169  0.7502  1.9939  1.1638
   51MOL    H2538125   0.480   2.340   0.278  0.0702  0.0026 -0.5939
   51MOL    H2638126   0.297   2.555   0.227 -0.0971  0.5536  0.8982
   51MOL    H2738127   0.298   2.498   0.396 -1.6342 -1.8243 -1.4764
   51MOL    H2838128   0.432   2.691   0.333 -0.6122 -0.0453 -0.1470
   51MOL    H2938129   0.536   2.553   0.391 -0.3065 -0.6101 -0.2881
   51MOL    H3038130   0.518   2.661   0.106  0.6362 -1.9962 -1.8287
   51MOL    H3138131   0.584   2.508   0.151 -0.5474  0.8538 -0.2178
   51MOL    H3238132   0.711   2.725   0.317 -1.2555  0.2095  0.3034
   51MOL    H3338133   0.778   2.586   0.240 -0.2872 -0.9392 -1.4119
   51MOL    H3438134   0.748   2.696   0.024 -2.3467 -2.3508  0.7416
   51MOL    H3538135   0.717   2.854   0.091  1.8334  1.3308  0.2735
   51MOL    H3638136   0.958   2.863   0.061  2.2197 -1.8679  1.2480
   51MOL    H3738137   0.972   2.710   0.133 -1.2587 -0.6964  0.0987
   51MOL    H3838138   0.944   2.805   0.335 -1.6859 -1.2820 -1.0185
   51MOL    H3938139   0.000   1.855   0.505 -0.0939 -1.0337 -0.5425
   51MOL    C4038140   0.876   2.992   0.288  0.4169  0.0835  0.5626
   51MOL    O4138141   0.850   3.077   0.199  0.3490 -0.2424  0.2648
   51MOL    C4238142   0.847   3.019   0.438 -0.0941  0.3620 -0.3674
   51MOL    C4338143   0.830   3.171   0.478  0.1961 -0.1435 -0.5016
   51MOL    C4438144   0.849   3.187   0.623  0.2791 -0.0046  0.4829
   51MOL    C4538145   0.817   3.323   0.672  0.4705 -0.0679  0.5204
   51MOL    C4638146   0.807   3.328   0.827 -0.1769 -0.2408  0.6951
   51MOL    O4738147   0.793   3.228   0.894  0.2504 -0.5768 -0.1405
   51MOL    N4838148   0.830   3.444   0.886 -0.1430 -0.5546 -0.3286
   51MOL    C4938149   0.840   3.481   1.028 -0.3616 -0.1468 -0.5642
   51MOL    C5038150   0.706   3.486   1.098  0.9042  0.0052 -0.3088
   51MOL    C5138151   0.703   3.513   1.250  0.0184 -0.1896 -0.2417
   51MOL    C5238152   0.560   3.501   1.301  0.7108 -0.5376  0.2285
   51MOL    C5338153   0.469   3.624   1.279 -0.4490 -0.1919 -0.2729
   51MOL    C5438154   0.527   3.752   1.346 -0.3741  0.1782 -0.5738
   51MOL    N5538155   0.628   3.821   1.264  0.4630 -0.2289 -0.6746
   51MOL    H5638156   0.759   2.961   0.466 -1.1481  2.1699  0.1409
   51MOL    H5738157   0.928   2.977   0.498 -1.4028  0.2407  1.3729
   51MOL    H5838158   0.906   3.233   0.431  0.6582 -1.9005 -2.1277
   51MOL    H5938159   0.735   3.214   0.447 -0.1430 -1.4185 -1.2486
   51MOL    H6038160   0.950   3.150   0.638 -0.3667 -2.2496 -0.5294
   51MOL    H6138161   0.785   3.116   0.676  2.5300 -1.9083  0.7125
   51MOL    H6238162   0.724   3.356   0.625  1.2720  0.1853 -0.9219
   51MOL    H6338163   0.892   3.392   0.632  0.8088 -1.0522 -0.5686
   51MOL    H6438164   0.853   3.517   0.820 -1.5478 -0.0305 -0.2510
   51MOL    H6538165   0.919   3.422   1.075 -1.6974 -0.2366  1.6193
   51MOL    H6638166   0.888   3.579   1.031  1.4306 -0.9938 -0.4737
   51MOL    H6738167   0.651   3.564   1.046  1.0082  1.1797  1.3170
   51MOL    H6838168   0.654   3.393   1.073 -0.7179  1.6262 -3.3645
   51MOL    H6938169   0.755   3.607   1.269 -0.8984  0.3611 -0.4460
   51MOL    H7038170   0.757   3.431   1.297  0.2088 -0.7012 -1.3406
   51MOL    H7138171   0.511   3.410   1.264  1.3364 -1.0481  0.6558
   51MOL    H7238172   0.566   3.475   1.407  2.5675 -0.7153  0.0960
   51MOL    H7338173   0.451   3.633   1.172  4.1455  0.8940 -1.0824
   51MOL    H7438174   0.370   3.595   1.313 -0.3138  0.3133  0.5765
   51MOL    H7538175   0.571   3.734   1.445 -2.0493 -2.8475 -0.3103
   51MOL    H7638176   0.449   3.827   1.359 -0.2633  0.6022 -2.2977
   51MOL    H7738177   0.712   3.844   1.315 -0.0345 -1.1506  0.5683
   51MOL    C7838178   0.602   3.883   1.147  0.0516  0.1496 -0.1026
   51MOL    O7938179   0.496   3.876   1.087  0.1175 -0.1178  0.4883
   51MOL    C8038180   0.717   3.956   1.082 -0.5063  0.0545  0.6645
   51MOL    C8138181   0.681   4.094   1.027 -0.3332 -0.0495  0.4385
   51MOL    C8238182   0.772   4.141   0.913 -0.2141 -0.2597 -0.3079
   51MOL    C8338183   0.705   4.240   0.825  0.0434  0.4380  0.8613
   51MOL    C8438184   0.625   4.187   0.705 -0.3919 -0.4578  0.1141
   51MOL    O8538185   0.683   4.117   0.622 -0.6320  0.3772  0.8161
   51MOL    N8638186   0.495   4.212   0.712 -0.3384  0.0510 -0.1339
   51MOL    C8738187   0.402   4.181   0.605 -0.6615  0.0808  0.5133
   51MOL    C8838188   0.253   4.178   0.655 -0.5742  0.7705 -0.1242
   51MOL    C8938189   0.210   4.288   0.758  0.5008 -0.0283 -0.5002
   51MOL    C9038190   0.055   4.286   0.778  0.2964  0.1204  0.5646
   51MOL    C9138191   0.004   4.410   0.863 -0.2700  0.3988  0.1460
   51MOL    C9238192   0.019   4.376   1.010 -0.1268  0.4589 -0.0160
   51MOL    N9338193   7.695   4.495   1.092  0.2479 -0.0199 -0.2865
   51MOL    H9438194   0.801   3.979   1.147  2.1681 -1.0120 -2.3109
   51MOL    H9538195   0.748   3.882   1.009  1.1663  0.8554  0.5586
   51MOL    H9638196   0.581   4.095   0.983  0.1070  2.6519 -0.5940
   51MOL    H9738197   0.680   4.166   1.109 -0.8607  1.0072 -0.4760
   51MOL    H9838198   0.816   4.061   0.854 -1.4798 -1.1891 -0.0096
   51MOL    H9938199   0.863   4.185   0.955  0.4077 -1.8791  0.0890
   51MOL   H10038200   0.790   4.290   0.778 -0.0466  0.0038  0.2249
   51MOL   H10138201   0.645   4.301   0.891 -0.5018  0.6800  0.1512
   51MOL   H10238202   0.467   4.266   0.792 -1.1061 -1.4675  0.6192
   51MOL   H10338203   0.414   4.250   0.522  1.8932 -0.7799  0.1232
   51MOL   H10438204   0.439   4.087   0.565  0.7649  0.5378  0.7357
   51MOL   H10538205   0.188   4.179   0.568  1.1253  0.0555 -1.4379
   51MOL   H10638206   0.238   4.082   0.705  0.8961  0.8874  0.5695
   51MOL   H10738207   0.244   4.382   0.715  1.9209 -0.4132 -0.2467
   51MOL   H10838208   0.260   4.283   0.855  0.4082  3.5915 -0.1977
   51MOL   H10938209   0.011   4.276   0.679  0.0795 -1.7096  0.8328
   51MOL   H11038210   0.024   4.191   0.823  1.5023 -0.5974 -0.0993
   51MOL   H11138211   0.074   4.491   0.841  1.6297 -0.0789  4.0598
   51MOL   H11238212   7.610   4.442   0.843 -1.3047 -2.5182  0.5511
   51MOL   H11338213   0.123   4.348   1.026 -0.8948 -1.5813  1.6095
   51MOL   H11438214   7.678   4.290   1.056 -0.2355  0.3038 -0.4193
   51MOL   H11538215   0.039   4.579   1.073 -0.4553  1.0297  2.2315
   51MOL   C11638216   7.585   4.510   1.162  0.0102 -0.9931  0.3952
   51MOL   O11738217   7.512   4.418   1.177 -0.3380  0.2008 -0.5028
   51MOL   C11838218   7.566   4.646   1.229  0.2496  0.1716  0.8788
   51MOL   C11938219   7.564   4.642   1.385  0.1109 -0.1620 -0.2381
   51MOL   C12038220   7.499   4.767   1.451  0.8867  0.4551 -0.4650
   51MOL   C12138221   7.475   4.764   1.607 -0.2233 -0.3813 -0.7818
   51MOL   C12238222   7.600   4.759   1.691  0.2013 -0.1060 -0.0256
   51MOL   O12338223   7.685   4.848   1.690 -0.2764 -0.1415 -0.5157
   51MOL   N12438224   7.610   4.643   1.758  0.8113 -0.2549  0.0256
   51MOL   C12538225   0.007   4.629   1.863 -0.3275  0.5124 -0.8781
   51MOL   C12638226   0.135   4.586   1.816  0.1088  0.2230 -0.0276
   51MOL   C12738227   0.240   4.563   1.923  0.2449  0.1038  0.4737
   51MOL   C12838228   0.366   4.501   1.862  1.1082 -0.2260  0.2758
   51MOL   C12938229   0.469   4.456   1.966  0.6913 -0.1726  0.4320
   51MOL   C13038230   0.591   4.386   1.906 -0.2418 -0.6674 -0.1003
   51MOL   N13138231   0.693   4.345   2.000  0.5058  0.1459 -0.0052
   51MOL   H13238232   7.645   4.715   1.200  1.0655 -1.4442 -0.8998
   51MOL   H13338233   7.476   4.689   1.186  0.2500  0.7975  1.5032
   51MOL   H13438234   7.508   4.551   1.410  0.3029 -0.3772 -0.5911
   51MOL   H13538235   7.661   4.621   1.429 -0.3169 -2.9576 -0.5305
   51MOL   H13638236   7.402   4.789   1.407 -0.5562 -0.8744  1.9905
   51MOL   H13738237   7.556   4.854   1.417 -2.5676  2.6147 -0.9767
   51MOL   H13838238   7.407   4.683   1.633  0.0265 -1.2738 -2.8237
   51MOL   H13938239   7.435   4.863   1.630 -1.8235 -0.9903 -0.8848
   51MOL   H14038240   7.527   4.585   1.758 -0.2294  1.1949 -0.9325
   51MOL   H14138241   0.020   4.728   1.907  0.8428  0.2363 -0.5974
   51MOL   H14238242   7.673   4.560   1.937  1.9648  0.9949  0.9504
   51MOL   H14338243   0.125   4.494   1.759  1.0480  0.8763 -1.2762
   51MOL   H14438244   0.164   4.664   1.745 -0.8015  0.9262  0.3772
   51MOL   H14538245   0.208   4.486   1.992  0.5483 -0.6485 -0.2138
   51MOL   H14638246   0.253   4.661   1.969  1.1339  0.4039 -0.3926
   51MOL   H14738247   0.342   4.419   1.794 -0.5927 -0.2670  0.9107
   51MOL   H14838248   0.417   4.572   1.796 -0.1582 -0.1597 -0.6485
   51MOL   H14938249   0.497   4.541   2.027 -1.3829  1.6134 -1.0147
   51MOL   H15038250   0.424   4.379   2.030  0.3037 -0.3771 -0.0771
   51MOL   H15138251   0.634   4.443   1.823 -1.1108 -0.9368 -0.7508
   51MOL   H15238252   0.553   4.296   1.858 -3.2110 -0.3091  1.4698
   51MOL   H15338253   0.773   4.406   2.007 -0.6804  1.4790  2.4186
   51MOL   C15438254   0.683   4.243   2.085 -0.2786  0.7682 -0.6944
   51MOL   O15538255   0.589   4.163   2.095  0.1323 -0.1461  0.2864
   51MOL   C15638256   0.801   4.230   2.179 -0.4862  0.6374 -0.3383
   51MOL   C15738257   0.777   4.308   2.314  0.2218  0.8515 -0.6184
   51MOL   C15838258   0.815   4.221   2.435 -0.2656  0.0164  0.2110
   51MOL   C15938259   0.765   4.265   2.569 -0.1918 -0.1802  0.5335
   51MOL   C16038260   0.798   4.407   2.618 -0.7134  0.3294 -0.0803
   51MOL   O16138261   0.878   4.475   2.563 -0.1778 -0.6397  0.3398
   51MOL   N16238262   0.734   4.449   2.729 -0.2874  0.1262 -0.0678
   51MOL   C16338263   0.745   4.586   2.777  0.3281 -0.0765  0.7885
   51MOL   C16438264   0.605   4.651   2.772 -0.0884 -0.5089  0.2267
   51MOL   C16538265   0.613   4.798   2.822  0.1802  0.6042  0.0337
   51MOL   C16638266   0.485   4.874   2.812 -0.1867 -0.4390  0.3445
   51MOL   C16738267   0.488   5.023   2.847  0.3527  0.3040  0.3213
   51MOL   C16838268   0.363   5.100   2.807  1.3713 -0.0730  1.0798
   51MOL   N16938269   0.383   5.240   2.831 -0.1424 -0.2329  0.2024
   51MOL   H17038270   0.823   4.127   2.205  1.9874  1.6763  1.9622
   51MOL   H17138271   0.893   4.270   2.136  0.4912 -2.2817 -1.0600
   51MOL   H17238272   0.821   4.408   2.310 -2.7700  2.1450 -2.5810
   51MOL   H17338273   0.670   4.322   2.326  0.2727  2.5805 -2.0894
   51MOL   H17438274   0.924   4.215   2.430 -0.4033 -3.2374  0.5652
   51MOL   H17538275   0.770   4.123   2.424  1.3692 -0.7385  0.1680
   51MOL   H17638276   0.802   4.194   2.642  0.4276  0.0629  0.4543
   51MOL   H17738277   0.658   4.245   2.562 -0.1264  0.2827 -2.6474
   51MOL   H17838278   0.651   4.403   2.763 -0.1880  0.2635  0.3571
   51MOL   H17938279   0.783   4.583   2.879  0.9527  0.2291  0.5669
   51MOL   H18038280   0.807   4.653   2.718  0.0025  1.3487  2.0344
   51MOL   H18138281   0.572   4.648   2.668  0.8562 -1.1430 -0.0564
   51MOL   H18238282   0.534   4.587   2.825  1.4978 -2.8919 -0.4377
   51MOL   H18338283   0.694   4.849   2.769  2.1612 -0.4297  2.0017
   51MOL   H18438284   0.642   4.794   2.927 -1.7310 -2.2107  0.5062
   51MOL   H18538285   0.462   4.858   2.707 -0.7032  0.5439  0.3053
   51MOL   H18638286   0.406   4.824   2.868 -0.3518 -2.1045 -1.3208
   51MOL   H18738287   0.508   5.034   2.953  0.0526  0.3770  0.3699
   51MOL   H18838288   0.572   5.068   2.794  1.5697 -0.8163  1.2930
   51MOL   H18938289   0.270   5.066   2.852  0.5972  0.7703  0.1404
   51MOL   H19038290   0.348   5.089   2.699 -1.1258  3.2179  1.0191
   51MOL   H19138291   0.478   5.271   2.839 -1.2042  3.7191 -1.5242
   51MOL   C19238292   0.286   5.336   2.818 -0.4360 -0.2237 -0.0803
   51MOL   O19338293   0.168   5.317   2.786 -0.0571 -0.7994  0.5867
   51MOL   C19438294   0.332   5.477   2.851 -0.0364 -0.1876  0.0891
   51MOL   C19538295   0.208   5.563   2.875  0.0797 -0.2544 -0.3247
   51MOL   C19638296   0.235   5.713   2.898 -0.1140 -0.7520  0.5224
   51MOL   C19738297   0.108   5.788   2.959 -0.2060 -0.2510 -0.6188
   51MOL   C19838298   0.137   5.918   3.024  0.1533 -0.1043 -0.1319
   51MOL   O19938299   0.244   5.977   3.006 -0.1336  0.2318 -0.1778
   51MOL   N20038300   0.039   5.968   3.096  0.2044  0.1159  0.1950
   51MOL   C20138301   0.041   6.103   3.157  0.1222 -0.2866 -0.6460
   51MOL   C20238302   7.656   6.202   3.074 -0.2035  0.2060  0.7408
   51MOL   C20338303   7.665   6.345   3.132  0.2280 -0.6178 -0.4797
   51MOL   C20438304   7.596   6.451   3.038 -0.0176 -0.4031 -1.0160
   51MOL   C20538305   7.447   6.457   3.062 -0.2253 -0.1430 -0.1726
   51MOL   C20638306   7.382   6.536   2.954 -1.0964  0.7710 -0.9017
   51MOL   N20738307   7.238   6.545   2.966  0.5722 -0.0027 -0.7006
   51MOL   H20838308   0.392   5.484   2.942  1.5330 -0.9432 -0.8681
   51MOL   H20938309   0.375   5.524   2.763 -0.1967  2.5272  1.4162
   51MOL   H21038310   0.135   5.559   2.794 -2.6541 -0.0020  2.0107
   51MOL   H21138311   0.162   5.521   2.965  1.2147 -1.1875 -0.1847
   51MOL   H21238312   0.257   5.766   2.805 -2.4189 -0.7346 -0.0511
   51MOL   H21338313   0.310   5.713   2.976  0.5757 -1.4934 -0.1270
   51MOL   H21438314   0.062   5.728   3.037 -0.1038  1.2060  0.5763
   51MOL   H21538315   0.037   5.805   2.878 -2.6274  6.1922  2.5018
   51MOL   H21638316   7.655   5.925   3.097 -0.9363  2.3522 -1.9458
   51MOL   H21738317   7.703   6.094   3.255 -1.1596  0.0710 -1.1975
   51MOL   H21838318   0.140   6.148   3.159  1.0146 -2.2224  2.3536
   51MOL   H21938319   7.686   6.187   2.971  1.4762  1.8960  0.9440
   51MOL   H22038320   7.552   6.170   3.084 -1.2533  3.5465  1.1239
   51MOL   H22138321   0.060   6.380   3.133  0.1858 -0.5152  0.0687
   51MOL   H22238322   7.621   6.341   3.232 -1.6470 -1.4086 -1.3084
   51MOL   H22338323   7.641   6.550   3.051  0.1931 -0.6776  0.5299
   51MOL   H22438324   7.599   6.411   2.937 -2.2121  0.4372 -1.4425
   51MOL   H22538325   7.403   6.357   3.068 -2.1589  0.6552 -0.6793
   51MOL   H22638326   7.423   6.505   3.157  2.7546 -0.0262  0.5777
   51MOL   H22738327   7.405   6.502   2.852 -0.1514  2.8719 -1.4158
   51MOL   H22838328   7.429   6.634   2.941  0.0531  0.0174 -2.7247
   51MOL   H22938329   7.191   6.615   3.022  3.3568  2.4443 -1.2482
   51MOL   C23038330   7.154   6.457   2.920  0.4961 -0.1710  0.8566
   51MOL   O23138331   7.190   6.354   2.859 -0.0411 -0.2413  0.7211
   51MOL   C23238332   7.007   6.490   2.955  0.3727 -0.6120 -0.0768
   51MOL   C23338333   6.939   6.377   3.035 -0.0958 -0.3673  0.2669
   51MOL   C23438334   6.945   6.390   3.182  0.1817  0.0858  0.4138
   51MOL   C23538335   6.843   6.484   3.250 -0.0625 -0.2165 -0.3972
   51MOL   C23638336   6.873   6.485   3.403 -0.7445 -0.5959  0.1100
   51MOL   O23738337   6.831   6.390   3.471 -0.5014  0.5167  0.4362
   51MOL   N23838338   6.924   6.593   3.466 -0.1588 -0.8348 -0.2297
   51MOL   C23938339   6.942   6.608   3.612  0.2081  0.5121  0.1308
   51MOL   C24038340   6.840   6.708   3.680 -0.9622  0.1729 -0.3837
   51MOL   C24138341   6.887   6.762   3.821  0.7767  0.1612  0.3879
   51MOL   C24238342   6.996   6.868   3.829  0.6361  0.8601 -0.5434
   51MOL   C24338343   7.067   6.878   3.969  0.0087  0.9369  0.5161
   51MOL   C24438344   7.172   6.991   3.973 -0.4574  0.7403  0.3262
   51MOL   N24538345   7.211   7.019   4.110  0.0375  0.2490 -0.6808
   51MOL   H24638346   7.006   6.594   2.988  1.5762 -0.6236  0.0357
   51MOL   H24738347   6.945   6.486   2.866 -1.2411  0.1700  0.9811
   51MOL   H24838348   6.835   6.376   3.004  0.3871 -0.8171 -1.4036
   51MOL   H24938349   6.985   6.280   3.013 -3.5319 -2.4312  1.7501
   51MOL   H25038350   7.045   6.430   3.201  0.1376  1.3209 -1.8297
   51MOL   H25138351   6.948   6.293   3.232  0.4396  0.8638  1.9484
   51MOL   H25238352   6.743   6.442   3.240 -0.6364  0.4016  2.3082
   51MOL   H25338353   6.851   6.585   3.209  0.3836 -0.0408  0.1191
   51MOL   H25438354   6.951   6.679   3.422  1.6205 -0.7492  0.9864
   51MOL   H25538355   6.949   6.510   3.660 -0.1647  0.6137  0.3985
   51MOL   H25638356   7.041   6.653   3.620  0.8439 -0.6008 -1.2648
   51MOL   H25738357   6.815   6.794   3.618 -1.9217  1.1390  1.2733
   51MOL   H25838358   6.745   6.661   3.706 -1.3123  1.4124  0.6242
   51MOL   H25938359   6.932   6.673   3.864 -0.0703  0.0098  0.9803
   51MOL   H26038360   6.798   6.789   3.878  0.0259 -1.5738  0.0720
   51MOL   H26138361   7.080   6.843   3.764  1.2630 -1.1082  0.9890
   51MOL   H26238362   6.967   6.965   3.788 -2.3767 -0.0846 -0.7685
   51MOL   H26338363   6.985   6.904   4.037 -0.3324  1.4587 -0.0910
   51MOL   H26438364   7.106   6.781   4.000 -0.4876  0.5778  0.0287
   51MOL   H26538365   7.133   7.086   3.938 -3.7510 -0.8651 -0.5312
   51MOL   H26638366   7.263   6.966   3.917 -0.9476 -0.4959  0.0534
   51MOL   H26738367   7.167   6.961   4.180 -0.8876  0.5610 -1.0004
   51MOL   C26838368   7.288   7.118   4.155 -0.1429 -1.6691 -0.3099
   51MOL   O26938369   7.344   7.194   4.082  0.3294 -1.0513 -0.2560
   51MOL   C27038370   7.310   7.127   4.304 -0.5890 -0.1952 -0.0743
   51MOL   C27138371   7.297   7.264   4.362 -0.2858 -0.0297 -0.9044
   51MOL   C27238372   7.155   7.322   4.380 -0.6824 -0.0485  0.6492
   51MOL   C27338373   7.071   7.282   4.500 -0.9654 -0.1062  0.3196
   51MOL   C27438374   7.118   7.327   4.637 -0.4889  0.6498  0.0610
   51MOL   O27538375   7.144   7.444   4.658 -0.0569 -0.4770 -0.5530
   51MOL   N27638376   7.133   7.234   4.735  0.1713  0.2076  0.6955
   51MOL   C27738377   7.175   7.262   4.874 -0.1488 -0.2296  0.0090
   51MOL   C27838378   7.057   7.285   4.969  1.0882  0.0302 -0.7383
   51MOL   C27938379   7.119   7.309   5.113  0.4020 -0.3519  0.6064
   51MOL   C28038380   7.015   7.303   5.225 -0.4477 -0.3545  1.2761
   51MOL   C28138381   7.076   7.312   5.365 -0.6907  0.0053  0.3343
   51MOL   C28238382   6.970   7.301   5.471  0.6493  0.2481  1.0412
   51MOL   N28338383   7.036   7.263   5.598  0.1661  0.5605 -0.4272
   51MOL   H28438384   7.248   7.051   4.353 -0.3403  0.3691  1.1356
   51MOL   H28538385   7.416   7.100   4.311 -1.0590 -1.4210  3.6702
   51MOL   H28638386   7.355   7.273   4.454  1.2331 -0.6815 -1.7920
   51MOL   H28738387   7.354   7.336   4.303  2.6938 -0.9037  0.7999
   51MOL   H28838388   7.092   7.302   4.294 -1.8510 -0.9942  1.6989
   51MOL   H28938389   7.149   7.431   4.386 -1.8555 -0.0631 -0.1741
   51MOL   H29038390   7.068   7.174   4.484 -2.3576 -0.1385  0.7206
   51MOL   H29138391   6.970   7.322   4.493 -0.6547  0.8401  1.0793
   51MOL   H29238392   7.121   7.137   4.712 -4.5510  1.1780 -1.6433
   51MOL   H29338393   7.237   7.178   4.905  0.6822 -0.0717 -1.2000
   51MOL   H29438394   7.240   7.350   4.873 -0.8371  0.2820 -0.1200
   51MOL   H29538395   6.996   7.370   4.937  1.5432  0.6238 -0.0771
   51MOL   H29638396   6.999   7.194   4.977  0.7708  0.4865  3.3850
   51MOL   H29738397   7.169   7.406   5.116 -1.2164  0.5486 -0.7597
   51MOL   H29838398   7.201   7.242   5.140 -0.8115 -1.3925  1.7504
   51MOL   H29938399   6.944   7.384   5.212 -0.2238 -0.7504 -3.1006
   51MOL   H30038400   6.950   7.217   5.208  0.1698 -0.4704 -0.6358
   51MOL   H30138401   7.143   7.227   5.380  1.1778  1.5755  1.1285
   51MOL   H30238402   7.139   7.398   5.389  0.3641 -1.3950  2.7509
   51MOL   H30338403   6.904   7.220   5.442 -0.2269  0.7898  1.5020
   51MOL   H30438404   6.909   7.391   5.481  1.1597  0.9622 -1.7908
   51MOL   H30538405   7.059   7.340   5.660  0.1889 -0.1536  0.4589
   51MOL   C30638406   7.036   7.139   5.656 -0.0059  0.1831 -0.4983
   51MOL   O30738407   6.997   7.046   5.596  0.1304 -0.1849 -0.5779
   51MOL   C30838408   7.109   7.128   5.790  0.1167 -0.1630  0.2540
   51MOL   C30938409   7.140   6.997   5.858 -0.0854  0.2338  0.7249
   51MOL   C31038410   7.225   6.889   5.784  0.6059 -0.4291 -0.3956
   51MOL   C31138411   7.225   6.751   5.849  0.0162  0.5804  0.1826
   51MOL   C31238412   7.283   6.647   5.755  0.5661 -0.6846 -0.1812
   51MOL   O31338413   7.229   6.538   5.737  0.5190 -0.4696 -0.1431
   51MOL   N31438414   7.400   6.675   5.699 -0.5918 -0.2362  0.3606
   51MOL   C31538415   7.478   6.596   5.608 -0.3619  0.0543 -1.0375
   51MOL   C31638416   7.489   6.678   5.487  0.0577  0.0980 -0.2719
   51MOL   C31738417   7.565   6.613   5.374 -0.0691 -0.8625  0.1118
   51MOL   C31838418   0.012   6.629   5.372  0.1901 -0.6738  0.6724
   51MOL   C31938419   0.091   6.564   5.488 -0.0506 -0.1858 -0.1333
   51MOL   C32038420   0.067   6.417   5.500 -0.0391  0.1221  0.3048
   51MOL   N32138421   0.147   6.360   5.604  0.8256  0.0824  0.2260
   51MOL   H32238422   7.206   7.179   5.792 -0.0600  0.1353  1.8049
   51MOL   H32338423   7.044   7.183   5.857 -0.2628  1.0013 -1.0421
   51MOL   H32438424   7.187   7.011   5.955  0.0877  1.9558  0.4175
   51MOL   H32538425   7.044   6.948   5.873 -0.8417  2.0828  2.1810
   51MOL   H32638426   7.329   6.923   5.780  1.1001 -2.0164 -1.4229
   51MOL   H32738427   7.192   6.880   5.681 -1.0930 -0.8335  0.1638
   51MOL   H32838428   7.124   6.715   5.868  0.8468 -1.1758  1.4148
   51MOL   H32938429   7.281   6.745   5.942 -0.2894 -1.4898  0.2530
   51MOL   H33038430   7.438   6.765   5.725 -0.0703  0.4640 -2.5897
   51MOL   H33138431   7.573   6.573   5.656 -0.8592  0.3181  0.0717
   51MOL   H33238432   7.431   6.501   5.581 -2.7977  0.3584  1.8285
   51MOL   H33338433   7.391   6.715   5.456 -0.1625  0.4080  0.7950
   51MOL   H33438434   7.528   6.773   5.524  0.4722  0.6336 -2.0180
   51MOL   H33538435   7.532   6.655   5.279  2.1168  0.8789  0.0819
   51MOL   H33638436   7.540   6.507   5.363 -0.9857 -0.5486 -0.8714
   51MOL   H33738437   0.044   6.589   5.275 -2.4719  0.6269 -0.7839
   51MOL   H33838438   0.044   6.733   5.367 -0.3174 -0.5878 -1.6894
   51MOL   H33938439   0.197   6.571   5.462  0.3734  1.2969  1.8592
   51MOL   H34038440   0.073   6.608   5.586  1.0743 -0.1197  0.0483
   51MOL   H34138441   0.089   6.360   5.410 -0.1505 -0.3627  0.5820
   51MOL   H34238442   7.671   6.408   5.530  0.2022  1.4720  1.6296
   51MOL   H34338443   0.101   6.358   5.694 -0.8045 -1.8254 -0.6105
   51MOL   C34438444   0.278   6.334   5.603  0.9754  0.0965 -0.1849
   51MOL   O34538445   0.338   6.344   5.501 -0.4935  0.3051  0.0176
   51MOL   C34638446   0.336   6.279   5.729  0.1051 -0.1187  0.0565
   51MOL   C34738447   0.420   6.390   5.795  0.1017 -0.1905 -0.0943
   51MOL   C34838448   0.472   6.352   5.937 -0.5178 -0.5657 -0.0164
   51MOL   C34938449   0.563   6.225   5.935 -0.5741  0.6151 -0.2469
   51MOL   C35038450   0.637   6.185   6.065  0.2060  0.0026 -0.4221
   51MOL   O35138451   0.708   6.268   6.120  0.5405 -0.9525  0.6081
   51MOL   N35238452   0.611   6.067   6.119 -0.6424 -0.1227  0.2836
   51MOL   C35338453   0.660   6.040   6.251 -0.3598 -0.4260  0.2297
   51MOL   C35438454   0.625   5.890   6.283 -0.8320  0.2294 -0.6972
   51MOL   C35538455   0.687   5.835   6.410  0.2747 -0.7007  0.2413
   51MOL   C35638456   0.625   5.717   6.480  0.2265  0.4666 -0.0846
   51MOL   C35738457   0.704   5.657   6.597 -0.3692  0.1320  0.4128
   51MOL   C35838458   0.837   5.589   6.561 -0.1919 -0.5701 -0.0447
   51MOL   N35938459   0.893   5.545   6.684  0.2684 -0.3225 -0.1888
   51MOL   H36038460   0.259   6.243   5.798  1.8833  1.6933  3.1104
   51MOL   H36138461   0.402   6.194   5.713  1.5304  0.4221  2.7306
   51MOL   H36238462   0.499   6.411   5.723 -0.4341  0.6603 -0.4431
   51MOL   H36338463   0.360   6.481   5.803 -0.2665 -0.6105  2.2415
   51MOL   H36438464   0.385   6.330   5.999 -0.5241 -2.1570 -0.5573
   51MOL   H36538465   0.526   6.442   5.966  1.1306 -2.0999  1.8570
   51MOL   H36638466   0.634   6.239   5.853  1.5647 -1.5265  1.1652
   51MOL   H36738467   0.494   6.145   5.908  0.5114 -0.5910  0.4751
   51MOL   H36838468   0.575   5.993   6.061 -0.4170 -1.1959  1.4795
   51MOL   H36938469   0.766   6.059   6.264  0.4350 -2.6229 -2.6543
   51MOL   H37038470   0.613   6.100   6.330 -2.7207 -1.9456  0.0375
   51MOL   H37138471   0.519   5.869   6.270 -1.0670  0.8827  0.0973
   51MOL   H37238472   0.669   5.820   6.212  0.5671 -0.6945  1.0350
   51MOL   H37338473   0.686   5.922   6.476  1.1090 -1.9300  1.9190
   51MOL   H37438474   0.795   5.823   6.401  0.4828  0.2794  1.3904
   51MOL   H37538475   0.524   5.747   6.509  0.0627  0.0214 -0.2000
   51MOL   H37638476   0.622   5.639   6.404  3.1071  0.6765 -0.4513
   51MOL   H37738477   0.729   5.739   6.665  1.0437 -0.2461  0.3752
   51MOL   H37838478   0.640   5.591   6.655  0.4871 -1.0587  0.0209
   51MOL   H37938479   0.906   5.665   6.525  0.1387 -1.5142 -1.4378
   51MOL   H38038480   0.826   5.507   6.490 -0.6853  1.2675 -2.1349
   51MOL   H38138481   0.832   5.533   6.763 -1.9399 -0.3912 -1.8516
   51MOL   C38238482   1.018   5.546   6.719 -0.4095  0.1579  0.0314
   51MOL   O38338483   1.105   5.582   6.642 -0.0955  0.1223  0.5876
   51MOL   C38438484   1.054   5.496   6.857 -0.4105  0.2391 -0.5062
   51MOL   C38538485   1.169   5.581   6.921 -0.2704  0.3478 -0.1259
   51MOL   C38638486   1.314   5.558   6.867 -0.8306 -0.4014  0.0753
   51MOL   C38738487   1.404   5.657   6.945 -0.2224 -0.1344  0.3017
   51MOL   C38838488   1.532   5.685   6.873 -0.2549 -0.1766  0.4939
   51MOL   O38938489   1.560   5.639   6.762 -0.1533  0.4432 -0.5339
   51MOL   N39038490   1.610   5.773   6.940 -0.1913  0.8683 -0.8287
   51MOL   C39138491   1.743   5.804   6.902 -0.9667  0.2462 -0.3502
   51MOL   C39238492   1.815   5.902   7.009  1.2055 -1.2509 -0.1604
   51MOL   C39338493   1.731   6.034   7.039  0.5326 -0.2432 -0.1184
   51MOL   C39438494   1.753   6.147   6.937 -0.1041 -0.0888 -0.1446
   51MOL   C39538495   1.903   6.171   6.913 -0.5579 -0.1059  0.3649
   51MOL   C39638496   1.920   6.294   6.818  0.2461 -0.5728 -0.4449
   51MOL   N39738497   1.850   6.408   6.879 -0.4122  0.6164  0.3400
   51MOL   H39838498   0.976   5.493   6.933  2.8503 -1.8404  2.9430
   51MOL   H39938499   1.084   5.392   6.846 -3.0247 -0.3371 -2.6398
   51MOL   H40038500   1.144   5.684   6.896  2.8950  1.5438  1.3906
   51MOL   H40138501   1.180   5.554   7.026  0.9238 -1.1507 -0.6193
   51MOL   H40238502   1.316   5.580   6.761 -0.8427  0.7219  0.2994
   51MOL   H40338503   1.348   5.456   6.887  2.1658  0.2935 -1.2309
   51MOL   H40438504   1.436   5.607   7.036 -0.5200  0.8797  0.9656
   51MOL   H40538505   1.352   5.749   6.972  0.0258 -0.7498  2.9963
   51MOL   H40638506   1.567   5.806   7.025  0.6349 -3.2814  1.3105
   51MOL   H40738507   1.801   5.712   6.907 -2.8435 -0.9494 -0.3922
   51MOL   H40838508   1.739   5.847   6.802 -0.3124 -0.9719 -0.9158
   51MOL   H40938509   1.808   5.851   7.105 -0.4233  0.8083  0.8606
   51MOL   H41038510   1.916   5.919   6.972  0.2460 -0.4443 -2.5759
   51MOL   H41138511   1.760   6.069   7.138 -0.6642  1.3827 -0.3187
   51MOL   H41238512   1.625   6.013   7.055  0.1097  1.6525 -0.3062
   51MOL   H41338513   1.706   6.124   6.841  0.9297 -0.6094 -0.5293
   51MOL   H41438514   1.702   6.234   6.979 -1.5513 -1.9440  2.0479
   51MOL   H41538515   1.965   6.186   7.001 -0.1059 -0.2790  0.0787
   51MOL   H41638516   1.951   6.081   6.874 -0.8540 -0.8717  1.7327
   51MOL   H41738517   1.878   6.289   6.717 -0.8510  1.4502 -0.1338
   51MOL   H41838518   2.026   6.318   6.819  0.4981 -1.7087  0.7565
   51MOL   H41938519   1.765   6.442   6.837 -0.5342  0.2591  0.2954
   51MOL   C42038520   1.886   6.478   6.981 -0.3016 -0.7352  0.6110
   51MOL   O42138521   1.801   6.548   7.039 -0.5392 -0.2510  0.3905
   51MOL   C42238522   2.019   6.452   7.054 -0.0151  0.6640 -0.6646
   51MOL   C42338523   1.995   6.391   7.196 -0.2765 -0.3906 -1.0484
   51MOL   C42438524   2.120   6.411   7.288 -0.3283 -0.1180  0.3686
   51MOL   C42538525   2.143   6.305   7.400  0.6373  0.1547 -0.2038
   51MOL   C42638526   2.032   6.311   7.505 -0.1374 -0.2504 -0.0555
   51MOL   O42738527   2.008   6.421   7.563  0.3648 -0.5539 -0.3213
   51MOL   N42838528   1.965   6.201   7.523  0.7309  0.3939  0.5896
   51MOL   C42938529   1.855   6.191   7.622  0.5196 -0.5974 -0.6037
   51MOL   C43038530   1.723   6.245   7.569  0.9074 -1.0168 -0.4158
   51MOL   C43138531   1.596   6.238   7.663 -0.7865 -0.6951 -0.3006
   51MOL   C43238532   1.619   6.308   0.090 -0.1102  0.7312 -0.5352
   51MOL   C43338533   1.640   6.462   0.102  0.0165  0.0121 -0.7238
   51MOL   C43438534   1.664   6.510   0.243  0.4757 -0.4578  0.0336
   51MOL   N43538535   1.645   6.656   0.248  0.0934  0.2598  0.2914
   51MOL   H43638536   2.081   6.383   6.997 -1.2614 -0.0771 -1.1253
   51MOL   H43738537   2.084   6.540   7.055  0.3321  0.4002 -0.1162
   51MOL   H43838538   1.909   6.443   7.239 -0.2438  1.1772 -2.8302
   51MOL   H43938539   1.968   6.286   7.204 -0.0926 -0.4227 -0.8572
   51MOL   H44038540   2.139   6.515   7.316 -1.3375 -0.0550  0.8258
   51MOL   H44138541   2.199   6.383   7.218  1.4337  3.8024  0.6724
   51MOL   H44238542   2.236   6.313   7.456 -0.0367  2.4905  0.6184
   51MOL   H44338543   2.142   6.206   7.353  0.1280  0.2224 -0.3361
   51MOL   H44438544   1.989   6.121   7.466  1.0482  0.3320  0.8094
   51MOL   H44538545   1.856   6.087   7.655  1.7578 -0.5266 -0.3770
   51MOL   H44638546   1.879   6.239   0.009  0.4311  1.3600 -1.5421
   51MOL   H44738547   1.729   6.348   7.535  2.7645 -1.7831 -2.4791
   51MOL   H44838548   1.692   6.185   7.484 -1.6253 -0.5018  0.0734
   51MOL   H44938549   1.568   6.137   7.691 -1.6339  0.3014  2.5777
   51MOL   H45038550   1.512   6.282   7.609 -0.6149  1.2632  1.0047
   51MOL   H45138551   1.522   6.300   0.139  0.5056  0.8879  0.7391
   51MOL   H45238552   1.693   6.259   0.153 -2.9321 -1.2434  1.3425
   51MOL   H45338553   1.721   6.484   0.032 -1.0559 -0.4212 -2.1428
   51MOL   H45438554   1.548   6.509   0.065 -0.8939 -0.5711  0.7620
   51MOL   H45538555   1.770   6.498   0.267  0.5801  1.3040  0.5646
   51MOL   H45638556   1.604   6.453   0.313 -0.1265  0.7806  0.5471
   51MOL   H45738557   1.728   6.707   0.224  1.0798 -1.4536 -0.0039
   51MOL   C45838558   1.529   6.721   0.270  0.6493 -0.0136  0.1697
   51MOL   O45938559   1.425   6.665   0.294 -0.0925  0.2526  0.7148
   51MOL   C46038560   1.539   6.875   0.263  0.0758 -0.4485 -0.6546
   51MOL   C46138561   1.485   6.941   0.391 -0.4872  1.2079 -0.2124
   51MOL   C46238562   1.501   7.093   0.376  0.6675 -0.1913 -0.0999
   51MOL   C46338563   1.481   7.202   0.491 -0.9380  0.3930  0.5471
   51MOL   C46438564   1.460   7.338   0.438 -0.7119 -0.1713 -0.6082
   51MOL   O46538565   1.343   7.367   0.409  0.1320 -0.2082  0.0224
   51MOL   N46638566   1.569   7.421   0.430 -0.4945 -0.0367  0.7723
   51MOL   C46738567   1.562   7.551   0.376  0.0052 -0.8181 -0.7395
   51MOL   C46838568   1.698   7.631   0.382  0.2056  0.6345  0.2679
   51MOL   C46938569   1.681   0.073   0.346 -0.7797  0.2156  0.1349
   51MOL   C47038570   1.814   0.150   0.344  0.0471 -0.1644  0.0046
   51MOL   C47138571   1.791   0.298   0.304 -0.3926  0.1999 -0.3706
   51MOL   C47238572   1.902   0.391   0.365  0.7995 -0.0462  0.1523
   51MOL   N47338573   1.884   0.532   0.338  0.2084  0.1698 -0.5463
   51MOL   H47438574   1.644   6.905   0.259 -0.0564  0.2369  0.8133
   51MOL   H47538575   1.505   6.908   0.165 -1.6470 -1.6411 -0.4726
   51MOL   H47638576   1.379   6.914   0.394  0.0125 -0.8696 -0.0943
   51MOL   H47738577   1.531   6.900   0.481  3.0598  1.6107 -1.7565
   51MOL   H47838578   1.423   7.125   0.307  0.7489  1.3310  0.5050
   51MOL   H47938579   1.600   7.109   0.334 -0.5102 -0.8426 -3.3555
   51MOL   H48038580   1.564   7.207   0.561 -0.3221  0.4984 -0.1748
   51MOL   H48138581   1.394   7.160   0.542  0.2275 -1.6619  0.9199
   51MOL   H48238582   1.658   7.375   0.444  0.7587  1.4126 -1.9445
   51MOL   H48338583   1.536   7.551   0.270 -0.9574  0.9819 -0.5273
   51MOL   H48438584   1.491   7.619   0.423  2.3076  0.7754  0.5967
   51MOL   H48538585   1.736   7.633   0.484  0.5405  1.1155  0.1395
   51MOL   H48638586   1.770   7.590   0.311  0.1169  1.0832 -0.0859
   51MOL   H48738587   1.607   0.112   0.416 -1.4697  1.4606 -1.2391
   51MOL   H48838588   1.631   0.085   0.249  1.4286  1.6775 -0.8598
   51MOL   H48938589   1.859   0.150   0.443 -1.8993 -2.4083  0.9382
   51MOL   H49038590   1.884   0.098   0.278  0.1939  0.4807 -0.3522
   51MOL   H49138591   1.793   0.296   0.195  1.2236 -2.0335 -0.3288
   51MOL   H49238592   1.694   0.337   0.337 -1.2393 -1.8845 -0.2791
   51MOL   H49338593   1.999   0.346   0.344  1.4790  0.3523  2.3665
   51MOL   H49438594   1.901   0.372   0.472  0.5971 -0.6138  0.0500
   51MOL   H49538595   1.789   0.565   0.341 -1.0041 -3.3179  2.0519
   51MOL   C49638596   1.994   0.612   0.322  0.0051  0.6322  1.1579
   51MOL   O49738597   2.111   0.567   0.321  0.1089 -0.1988  0.2618
   51MOL   C49838598   1.969   0.754   0.282  0.6064  0.0141 -0.3470
   51MOL   C49938599   2.082   0.827   0.202 -0.0575 -0.3743  0.2456
   51MOL   C50038600   2.043   0.958   0.134 -0.5056 -0.0204  0.2865
   51MOL   C50138601   2.165   1.024   0.055  0.6895 -0.8485 -0.5576
   51MOL   C50238602   2.231   0.941   7.651 -0.8015 -0.2215  0.2742
   51MOL   O50338603   2.160   0.855   7.598  0.5152 -0.2617  0.0712
   51MOL   N50438604   2.362   0.952   7.632  0.7101  0.3797 -0.1144
   51MOL   C50538605   2.451   0.870   7.553  0.3751  0.3252 -0.0589
   51MOL   C50638606   2.539   0.779   7.635  0.6660 -0.1328  0.0526
   51MOL   C50738607   2.467   0.697   0.024  0.6090  0.2091  0.6162
   51MOL   C50838608   2.566   0.618   0.112 -1.0279 -1.0539  0.0250
   51MOL   C50938609   2.495   0.523   0.204 -0.2525 -0.0861  0.0698
   51MOL   C51038610   2.606   0.458   0.288  0.3831 -0.1693 -0.8876
   51MOL   N51138611   2.679   0.554   0.370  0.6748  0.2396  0.0031
   51MOL   H51238612   1.884   0.741   0.215  0.6901 -2.8144  0.0377
   51MOL   H51338613   1.927   0.811   0.365 -0.7151 -1.7562  0.2145
   51MOL   H51438614   2.174   0.844   0.259 -0.0622  1.3577 -0.2337
   51MOL   H51538615   2.119   0.760   0.125  1.4082 -1.4440  1.8427
   51MOL   H51638616   2.019   1.036   0.206  1.3351  1.2997 -0.4700
   51MOL   H51738617   1.957   0.949   0.068  0.5799  0.9345 -1.3166
   51MOL   H51838618   2.241   1.053   0.128 -0.3926 -4.6243  2.2340
   51MOL   H51938619   2.134   1.111   7.705 -1.4312 -1.6252 -0.6177
   51MOL   H52038620   2.409   1.023   7.686  1.4887 -0.8759  0.9074
   51MOL   H52138621   2.404   0.819   7.469 -1.7840  1.7286  0.2854
   51MOL   H52238622   2.505   0.944   7.494 -3.2080  2.2373 -1.0506
   51MOL   H52338623   2.589   0.712   7.564 -0.7363  0.6128 -1.6893
   51MOL   H52438624   2.606   0.835   7.700 -1.0952 -1.5462  3.2024
   51MOL   H52538625   2.397   0.623   7.693  0.0471  0.4487  1.1517
   51MOL   H52638626   2.407   0.760   0.090  0.4128  1.5087 -0.7751
   51MOL   H52738627   2.628   0.564   0.040 -1.1816  0.1725 -1.0501
   51MOL   H52838628   2.637   0.683   0.162 -1.1612 -1.3545  0.6072
   51MOL   H52938629   2.419   0.572   0.266  1.1794 -1.5092  3.0160
   51MOL   H53038630   2.440   0.446   0.150  0.9030 -1.5204  0.9472
   51MOL   H53138631   2.668   0.396   0.223  1.3911 -0.4491  0.3397
   51MOL   H53238632   2.566   0.379   0.352 -2.9015  1.4555 -0.8173
   51MOL   H53338633   2.629   0.639   0.395  2.8132  1.8746 -1.0918
   51MOL   C53438634   2.782   0.519   0.441 -0.4305 -0.5032 -0.0493
   51MOL   O53538635   2.850   0.420   0.414 -0.2551  0.4011  0.3670
   51MOL   C53638636   2.815   0.616   0.555 -0.1631  0.1634  0.2835
   51MOL   C53738637   2.950   0.592   0.625  0.1206 -0.1667  0.5741
   51MOL   C53838638   3.071   0.677   0.573  0.6920 -0.2179 -0.2137
   51MOL   C53938639   3.206   0.651   0.643  0.3636  0.7932 -0.0520
   51MOL   C54038640   3.322   0.729   0.575 -0.2131  0.6304 -0.0355
   51MOL   O54138641   3.315   0.788   0.469 -0.5155 -0.2162 -0.0827
   51MOL   N54238642   3.439   0.721   0.638  0.2190 -0.2498  0.0081
   51MOL   C54338643   3.566   0.763   0.581  0.3173 -0.0800  0.3170
   51MOL   C54438644   3.677   0.741   0.681 -0.5450  0.1104 -0.1517
   51MOL   C54538645   3.813   0.793   0.623 -0.0119  0.2195 -0.2726
   51MOL   C54638646   3.870   0.681   0.525  0.5596 -0.7695 -0.3131
   51MOL   C54738647   3.978   0.733   0.436 -0.2455 -0.1338  0.0145
   51MOL   C54838648   4.116   0.738   0.504  0.5524  0.2475  0.0116
   51MOL   N54938649   4.205   0.818   0.425 -0.4333 -0.1832  0.1177
   51MOL   H55038650   2.812   0.718   0.517 -1.5587 -0.3869 -1.1289
   51MOL   H55138651   2.737   0.615   0.631 -0.5905  3.6677 -0.0391
   51MOL   H55238652   2.930   0.616   0.730 -0.8098  1.1309  0.1121
   51MOL   H55338653   2.976   0.487   0.609 -0.7648 -0.2759 -0.1953
   51MOL   H55438654   3.041   0.782   0.571 -0.3174 -0.4930 -0.0710
   51MOL   H55538655   3.097   0.652   0.470  0.4137  2.6343 -1.0199
   51MOL   H55638656   3.227   0.546   0.624 -3.0119 -0.1665  1.1536
   51MOL   H55738657   3.209   0.668   0.750 -0.6233  0.7106 -0.0030
   51MOL   H55838658   3.442   0.675   0.728 -1.4402  3.0928  1.8755
   51MOL   H55938659   3.591   0.696   0.499 -0.8897 -1.5779  1.1387
   51MOL   H56038660   3.559   0.863   0.538  1.5878 -0.5090 -0.8941
   51MOL   H56138661   3.662   0.801   0.771  0.9550  0.3928 -0.0801
   51MOL   H56238662   3.684   0.637   0.714 -0.3926  0.4319  0.8321
   51MOL   H56338663   3.888   0.812   0.700  0.0234 -1.2357  0.0625
   51MOL   H56438664   3.786   0.889   0.579  1.7570  0.5201 -0.7417
   51MOL   H56538665   3.905   0.598   0.586  0.4891 -2.0400 -1.9518
   51MOL   H56638666   3.782   0.634   0.481 -0.0216  0.0408 -0.0244
   51MOL   H56738667   3.976   0.676   0.343 -2.6089  3.0579 -1.9866
   51MOL   H56838668   3.959   0.832   0.393 -0.6006 -1.3501 -2.7568
   51MOL   H56938669   4.155   0.639   0.529 -0.1318  0.1093  0.5696
   51MOL   H57038670   4.104   0.805   0.589 -3.1367 -0.7776  0.4007
   51MOL   H57138671   4.160   0.889   0.370 -1.1308 -0.5209  0.2456
   51MOL   C57238672   4.339   0.798   0.424  0.2286  0.0354  0.3613
   51MOL   O57338673   4.402   0.715   0.492  0.3367  0.8209 -0.5933
   51MOL   C57438674   4.405   0.895   0.327 -0.0402 -0.8516  0.0735
   51MOL   C57538675   4.417   0.846   0.180 -0.1742  0.3327 -0.6377
   51MOL   C57638676   4.515   0.725   0.164 -0.9748 -0.4441  0.3008
   51MOL   C57738677   4.545   0.708   0.011 -0.1044  0.4168 -0.4918
   51MOL   C57838678   4.622   0.829   7.651  0.0574  0.6272  1.1525
   51MOL   O57938679   4.733   0.842   7.695 -0.0469 -0.3828  0.2603
   51MOL   N58038680   4.554   0.896   7.560  0.2721 -0.0600 -0.1025
   51MOL   C58138681   4.612   1.002   7.478  0.2861 -1.1492  0.3487
   51MOL   C58238682   4.651   1.133   7.553  0.1809 -0.0021 -0.0992
   51MOL   C58338683   4.692   1.241   7.453  0.1948 -0.7111  0.2254
   51MOL   C58438684   4.832   1.228   7.400  0.3523  0.6787 -0.1012
   51MOL   C58538685   4.861   1.323   7.284 -0.3888  0.5614 -0.4480
   51MOL   C58638686   4.785   1.296   7.148 -0.0007  0.9079 -0.1621
   51MOL   N58738687   4.814   1.169   7.092 -0.7508 -0.0301 -0.0786
   51MOL   H58838688   4.357   0.992   0.344  2.0115  0.2342 -0.1361
   51MOL   H58938689   4.501   0.918   0.373 -0.6110  0.1849  0.7741
   51MOL   H59038690   4.318   0.826   0.139  0.5189 -1.2383 -1.5834
   51MOL   H59138691   4.466   0.935   0.139  0.2257  1.1229  1.4629
   51MOL   H59238692   4.464   0.644   0.215 -0.1035 -1.7224 -0.8097
   51MOL   H59338693   4.609   0.740   0.218 -1.4247 -2.6123  1.7243
   51MOL   H59438694   4.456   0.674   7.667 -0.4628  0.6264 -0.0179
   51MOL   H59538695   4.622   0.634   7.701  0.7013  0.9880  0.5230
   51MOL   H59638696   4.458   0.874   7.540  0.4416  1.1179 -2.4439
   51MOL   H59738697   4.693   0.971   7.413  1.2459  0.4407  0.7526
   51MOL   H59838698   4.529   1.017   7.408  2.2409 -0.0621 -1.8243
   51MOL   H59938699   4.572   1.166   7.621 -0.5931 -4.0304  1.0796
   51MOL   H60038700   4.732   1.109   7.621 -1.3969 -0.7544  1.5635
   51MOL   H60138701   4.677   1.344   7.487 -0.3884 -0.3390 -1.0991
   51MOL   H60238702   4.629   1.230   7.364  1.8655 -0.8983 -0.9543
   51MOL   H60338703   4.904   1.248   7.479 -0.4910  1.7158  0.4263
   51MOL   H60438704   4.860   1.128   7.370 -1.3059 -0.0138  0.6072
   51MOL   H60538705   4.827   1.416   7.329  1.3142  0.6256  0.7426
   51MOL   H60638706   4.966   1.320   7.259 -0.6895  1.4680 -1.8426
   51MOL   H60738707   4.822   1.367   7.075  0.9663 -1.0225 -1.5600
   51MOL   H60838708   4.679   1.321   7.157 -0.5009 -0.6238 -1.6485
   51MOL   H60938709   4.908   1.152   7.061 -1.1496  0.4520 -1.6137
   51MOL   C61038710   4.742   1.055   7.101  0.1470 -0.1229 -0.1713
   51MOL   O61138711   4.627   1.059   7.145  0.3016 -0.0325  0.4204
   51MOL   C61238712   4.812   0.926   7.061 -0.4788  0.0685  1.1572
   51MOL   C61338713   4.832   0.816   7.162  0.2561  0.7827 -0.4050
   51MOL   C61438714   4.931   0.713   7.115 -0.0413 -0.1514  0.3658
   51MOL   C61538715   4.909   0.580   7.192 -0.2303  0.5341 -0.0867
   51MOL   C61638716   4.956   0.587   7.339 -0.1221 -0.3442  0.5226
   51MOL   O61738717   5.052   0.660   7.374 -0.2591 -0.2837 -0.3205
   51MOL   N61838718   4.882   0.510   7.428 -0.1392 -0.1802 -0.2531
   51MOL   C61938719   4.904   0.505   7.577  0.1867 -0.4128 -0.0340
   51MOL   C62038720   4.847   0.384   7.651 -0.1493  0.1427  0.3063
   51MOL   C62138721   4.892   0.372   0.082 -0.6882 -0.2347  0.1393
   51MOL   C62238722   4.821   0.460   0.191 -0.2877  0.0030 -0.2418
   51MOL   C62338723   4.895   0.458   0.331 -0.1321  0.0348  0.0627
   51MOL   C62438724   4.843   0.561   0.431 -0.0501 -0.2790  0.4232
   51MOL   N62538725   4.878   0.691   0.383 -0.0884 -0.2401 -0.7520
   51MOL   H62638726   4.752   0.898   6.975  0.7844  2.1978 -0.4626
   51MOL   H62738727   4.913   0.955   7.031 -0.5287  1.1546  2.0104
   51MOL   H62838728   4.865   0.858   7.257 -0.6334  0.5818 -0.0037
   51MOL   H62938729   4.736   0.776   7.192 -0.5694  3.5175  0.6872
   51MOL   H63038730   5.033   0.752   7.122 -0.2393  0.6870 -1.2039
   51MOL   H63138731   4.924   0.698   7.007  0.9310  0.1770  0.2492
   51MOL   H63238732   4.960   0.491   7.155  0.5142  0.1279  1.8311
   51MOL   H63338733   4.804   0.552   7.195 -0.3586  0.9922 -0.3610
   51MOL   H63438734   4.811   0.448   7.392 -1.9851  2.0164 -0.4539
   51MOL   H63538735   5.013   0.508   7.580  0.2749 -0.1971 -2.5117
   51MOL   H63638736   4.859   0.595   7.619  0.2909 -0.2029 -0.3712
   51MOL   H63738737   4.738   0.380   7.646 -0.2874  2.7823  0.2383
   51MOL   H63838738   4.877   0.303   7.584 -1.8548  1.4340 -2.1120
   51MOL   H63938739   5.000   0.387   0.085 -0.4282 -1.7165 -0.9854
   51MOL   H64038740   4.884   0.267   0.108  2.1593 -0.4550  0.2853
   51MOL   H64138741   4.796   0.556   0.145 -1.7212 -1.3326 -2.3366
   51MOL   H64238742   4.716   0.430   0.198 -0.0545 -0.6634  0.6452
   51MOL   H64338743   4.886   0.357   0.372 -1.4442  0.8647  1.8658
   51MOL   H64438744   5.003   0.474   0.321  0.7192 -2.2596  4.1981
   51MOL   H64538745   4.894   0.525   0.520  1.8563 -1.9772 -1.2962
   51MOL   H64638746   4.737   0.563   0.457  0.5658 -0.7414  3.1301
   51MOL   H64738747   4.910   0.697   0.287  1.5532 -0.1866 -0.2112
   51MOL   C64838748   4.845   0.803   0.446 -0.4558  0.2559 -0.0108
   51MOL   O64938749   4.812   0.804   0.558 -0.2803  0.0283 -0.2618
   51MOL   C65038750   4.867   0.930   0.363 -0.2232 -0.1022  0.7310
   51MOL   C65138751   4.958   1.029   0.437 -0.0132  0.4648  0.2715
   51MOL   C65238752   4.937   1.177   0.411 -0.1765 -0.1150  0.5033
   51MOL   C65338753   4.796   1.231   0.443 -0.3172 -0.4158  0.3607
   51MOL   C65438754   4.704   1.242   0.320 -0.5749  0.0785 -0.7329
   51MOL   O65538755   4.746   1.267   0.203 -0.0332  0.5816  0.5095
   51MOL   N65638756   4.574   1.233   0.345  0.7224  0.0030 -0.3130
   51MOL   C65738757   4.468   1.290   0.259  0.3007 -0.1449  0.5070
   51MOL   C65838758   4.432   1.433   0.313 -1.2630  0.3548 -0.4279
   51MOL   C65938759   4.549   1.523   0.356  0.2024 -0.3945 -0.1534
   51MOL   C66038760   4.510   1.668   0.388  0.2581 -0.1560 -0.2245
   51MOL   C66138761   4.600   1.732   0.491  0.4768  0.4724 -0.1358
   51MOL   C66238762   4.567   1.877   0.516 -0.7978  0.0171  0.0513
   51MOL   N66338763   4.680   1.942   0.575  0.1569  0.1146 -0.0594
   51MOL   H66438764   4.909   0.922   0.263  1.5658  0.0808  1.4449
   51MOL   H66538765   4.768   0.969   0.339  0.9674  1.1125 -2.4721
   51MOL   H66638766   4.938   1.009   0.543  2.2785  2.3322  1.0924
   51MOL   H66738767   5.064   1.017   0.418  0.2661  3.4587 -0.2824
   51MOL   H66838768   4.969   1.200   0.309  0.1786 -1.1560  0.3762
   51MOL   H66938769   5.003   1.237   0.473  0.3118  0.7448 -0.8202
   51MOL   H67038770   4.817   1.337   0.453  2.5415 -0.9383  0.2566
   51MOL   H67138771   4.738   1.196   0.529  0.9778 -0.1721  1.3346
   51MOL   H67238772   4.542   1.198   0.434  1.8873 -2.1625 -0.7085
   51MOL   H67338773   4.501   1.290   0.155  0.0715 -1.2066  0.4300
   51MOL   H67438774   4.378   1.229   0.256 -0.3452  0.7914  0.7882
   51MOL   H67538775   4.377   1.489   0.237 -1.9359  1.1557  0.6359
   51MOL   H67638776   4.364   1.426   0.397 -0.1890 -0.0339  0.4242
   51MOL   H67738777   4.636   1.516   0.290  0.6607 -3.0063  0.6878
   51MOL   H67838778   4.601   1.479   0.441  1.7593  0.0163 -0.8692
   51MOL   H67938779   4.519   1.716   0.290 -0.4137  0.5910  0.0741
   51MOL   H68038780   4.405   1.686   0.409  0.8056  0.9683  1.6965
   51MOL   H68138781   4.604   1.671   0.581 -0.9383  0.9024  0.2215
   51MOL   H68238782   4.702   1.735   0.452  0.1040  2.1042 -1.0519
   51MOL   H68338783   4.484   1.876   0.587 -0.0661 -2.1795  0.9120
   51MOL   H68438784   4.548   1.925   0.420 -1.7126  1.3464  0.8813
   51MOL   H68538785   4.759   1.880   0.591  0.3080  0.3801  0.2417
   51MOL   C68638786   4.688   2.069   0.614 -0.2698 -0.7604 -0.4161
   51MOL   O68738787   4.603   2.157   0.594  0.0867  0.1934 -0.0234
   51MOL   C68838788   4.816   2.114   0.694  0.2455  1.1253 -0.0507
   51MOL   C68938789   4.770   2.198   0.809 -0.5168 -0.4955 -0.4140
   51MOL   C69038790   4.880   2.216   0.913 -0.4333  0.2138  0.6151
   51MOL   C69138791   4.835   2.289   1.043 -0.5404  0.3183 -0.1189
   51MOL   C69238792   4.817   2.438   1.020 -0.2257 -0.6754 -0.5029
   51MOL   O69338793   4.874   2.491   0.927  0.3919 -0.4044  0.4314
   51MOL   N69438794   4.731   2.499   1.106 -0.2415 -0.0479  0.4101
   51MOL   C69538795   4.686   2.642   1.090  0.0243 -0.1363 -0.2569
   51MOL   C69638796   4.770   2.744   1.157 -0.2296 -0.4826 -0.0198
   51MOL   C69738797   4.717   2.885   1.139 -0.1267 -0.0097  0.1410
   51MOL   C69838798   4.823   2.995   1.165  0.0706 -0.2411 -0.4978
   51MOL   C69938799   4.849   3.020   1.315 -0.1353  0.6499  0.4055
   51MOL   C70038800   4.937   3.146   1.332 -0.4027  0.1063  0.1141
   51MOL   N70138801   5.070   3.128   1.269  0.1758  0.3613  0.2197
   51MOL   H70238802   4.860   2.019   0.725  1.1432  1.3855 -0.4970
   51MOL   H70338803   4.887   2.160   0.626 -0.8357  0.1573 -1.8643
   51MOL   H70438804   4.739   2.294   0.769 -1.3444 -1.7814 -2.9934
   51MOL   H70538805   4.685   2.155   0.862 -1.6954  1.1804 -0.9218
   51MOL   H70638806   4.969   2.254   0.862 -1.9108  3.3596  0.2376
   51MOL   H70738807   4.917   2.117   0.939  0.4160  0.1524 -0.7616
   51MOL   H70838808   4.911   2.271   1.120 -0.0362 -1.4161 -0.9970
   51MOL   H70938809   4.739   2.247   1.073 -0.7326  0.3425 -0.7058
   51MOL   H71038810   4.699   2.447   1.186 -1.6889 -0.5424 -0.4790
   51MOL   H71138811   4.674   2.670   0.985  3.1047  0.6830 -0.4349
   51MOL   H71238812   4.586   2.655   1.131  0.3638  0.3952  0.4112
   51MOL   H71338813   4.780   2.723   1.263  1.1508 -2.0754 -0.4264
   51MOL   H71438814   4.871   2.748   1.115 -1.9195  1.5622 -4.2177
   51MOL   H71538815   4.626   2.902   1.197 -0.3645  0.6691 -0.4171
   51MOL   H71638816   4.678   2.893   1.037  1.4421 -2.2208 -0.6724
   51MOL   H71738817   4.914   2.970   1.110  1.0242  0.4873  0.7236
   51MOL   H71838818   4.780   3.089   1.129  0.5223 -1.1530 -3.5626
   51MOL   H71938819   4.752   3.024   1.364 -1.1341 -2.0019 -1.2564
   51MOL   H72038820   4.888   2.931   1.365 -1.2773  0.6270  1.2828
   51MOL   H72138821   4.947   3.174   1.436 -0.1692 -1.2607  0.4689
   51MOL   H72238822   4.884   3.220   1.273  0.2528  0.7354  0.3104
   51MOL   H72338823   5.112   3.036   1.267 -0.4220  0.0868  0.2437
   51MOL   C72438824   5.134   3.217   1.195 -0.5560  0.0464  0.2088
   51MOL   O72538825   5.107   3.338   1.200  0.1879  0.2028  0.1332
   51MOL   C72638826   5.246   3.168   1.097  0.2287  0.0809 -0.1958
   51MOL   C72738827   5.373   3.249   1.098 -0.5232 -0.0250 -0.2328
   51MOL   C72838828   5.444   3.237   1.231  0.1569 -0.4291  0.0959
   51MOL   C72938829   5.558   3.337   1.248 -0.2777  0.0055 -0.2451
   51MOL   C73038830   5.519   3.481   1.282  0.2837 -0.4289  0.0043
   51MOL   O73138831   5.456   3.500   1.389 -0.2230  1.0229 -0.4475
   51MOL   N73238832   5.545   3.580   1.194 -0.4075 -0.0906  0.3074
   51MOL   C73338833   5.479   3.707   1.202  0.2801 -0.0624  0.2484
   51MOL   C73438834   5.343   3.705   1.134 -0.0009  0.5394  0.5687
   51MOL   C73538835   5.262   3.833   1.161  0.3954  0.5554 -0.1087
   51MOL   C73638836   5.142   3.844   1.063 -0.0991  0.0114  0.2001
   51MOL   C73738837   5.084   3.991   1.082  0.0848  0.5926  0.0238
   51MOL   C73838838   4.948   3.989   1.009  0.0299  0.2578 -0.1110
   51MOL   N73938839   4.904   4.125   1.017 -0.0418  0.4788 -0.2501
   51MOL   H74038840   5.264   3.065   1.129  2.9523  0.4438 -0.4415
   51MOL   H74138841   5.206   3.153   0.997 -0.6946 -0.4057  0.2422
   51MOL   H74238842   5.439   3.229   1.014  1.4300  2.6294  0.5944
   51MOL   H74338843   5.350   3.356   1.093 -0.3992  0.0016 -0.2375
   51MOL   H74438844   5.492   3.140   1.240  1.1731  0.0395 -0.2727
   51MOL   H74538845   5.372   3.261   1.310  0.4068  1.0613 -0.1279
   51MOL   H74638846   5.626   3.330   1.163  2.5257  0.3031  1.9179
   51MOL   H74738847   5.626   3.304   1.327  1.4103 -0.5509 -1.8833
   51MOL   H74838848   5.600   3.561   1.111 -1.8218  0.4280 -0.7611
   51MOL   H74938849   5.470   3.738   1.306 -0.4773 -2.2391  0.8555
   51MOL   H75038850   5.534   3.791   1.159 -0.7245  0.4347 -0.0734
   51MOL   H75138851   5.348   3.706   1.025  0.3880 -0.8899  0.5667
   51MOL   H75238852   5.282   3.620   1.163 -0.9579  1.5371  1.5378
   51MOL   H75338853   5.319   3.923   1.136  1.5147  0.9305  3.5076
   51MOL   H75438854   5.227   3.847   1.263 -1.2209  0.6144 -0.6598
   51MOL   H75538855   5.167   3.815   0.961 -1.7996 -2.7390  0.5319
   51MOL   H75638856   5.065   3.772   1.090 -0.8281  0.3091 -1.0634
   51MOL   H75738857   5.079   4.023   1.186  2.4328 -0.7769  0.5796
   51MOL   H75838858   5.144   4.068   1.033  2.1938  0.0089  1.6569
   51MOL   H75938859   4.888   3.923   1.072  0.0863  0.4414  0.1398
   51MOL   H76038860   4.956   3.961   0.904  3.0465 -1.1097  0.4326
   51MOL   H76138861   4.815   4.131   0.971 -0.1455  0.5684 -0.0384
   51MOL   H76238862   4.879   4.127   1.115  0.9007  1.0688 -0.0125
   52MOL     C138863   7.157   3.448   6.574 -1.1838 -0.1284  0.0996
   52MOL     O238864   7.236   3.500   6.657 -0.0846  0.1117  0.3143
   52MOL     C338865   7.165   3.504   6.428 -0.1380  0.3106  0.2599
   52MOL     C438866   7.231   3.645   6.396  0.2759  0.2042  0.3834
   52MOL     C538867   7.381   3.630   6.403  0.0723  0.2195 -0.0408
   52MOL     C638868   7.468   3.738   6.357 -0.9109  0.3382 -0.5520
   52MOL     C738869   7.508   3.831   6.469 -0.2981 -0.1537 -0.1782
   52MOL     O838870   7.440   3.848   6.563 -0.4058 -0.5137 -0.5667
   52MOL     N938871   7.632   3.889   6.466  0.3558 -0.3358  0.5873
   52MOL    C1038872   7.698   3.953   6.581 -0.0297  0.5385  0.1327
   52MOL    C1138873   7.662   4.101   6.609  0.1154 -0.5475  0.5675
   52MOL    C1238874   7.677   4.177   6.479  0.2778  0.4378 -0.2290
   52MOL    C1338875   0.008   4.324   6.488  0.2819  0.3251  0.6993
   52MOL    C1438876   0.025   4.400   6.356  0.2259 -0.2700 -0.1744
   52MOL    C1538877   0.043   4.549   6.371  0.1824 -0.1289 -0.5774
   52MOL    N1638878   0.179   4.580   6.416 -0.2811 -1.8685  0.3175
   52MOL    H1738879   7.202   3.424   6.363 -0.9771 -0.0776  0.2554
   52MOL    H1838880   7.063   3.522   6.395 -0.2520  0.4613  0.6977
   52MOL    H1938881   7.195   3.684   6.300  0.1161  0.3958  0.5223
   52MOL    H2038882   7.189   3.712   6.471  0.1396  0.8624 -0.2762
   52MOL    H2138883   7.406   3.549   6.334  1.7828  2.9297 -2.7673
   52MOL    H2238884   7.421   3.583   6.492  2.6597 -0.2021 -1.3729
   52MOL    H2338885   7.419   3.790   6.275 -1.1267  1.2258  0.1314
   52MOL    H2438886   7.559   3.685   6.327  0.7716  3.2094 -0.7560
   52MOL    H2538887   7.700   3.861   6.397 -2.3395 -3.0697 -1.1036
   52MOL    H2638888   7.682   3.903   6.676 -0.5884  0.4534 -0.0052
   52MOL    H2738889   0.091   3.950   6.540 -0.5019 -1.1598 -0.9354
   52MOL    H2838890   7.564   4.106   6.656  0.1337  0.8526  0.4972
   52MOL    H2938891   0.023   4.136   6.686  0.0041 -1.6848  1.1887
   52MOL    H3038892   7.587   4.150   6.424  0.0624 -0.7898  0.7253
   52MOL    H3138893   0.045   4.137   6.411 -0.0244  0.0642 -0.3477
   52MOL    H3238894   7.650   4.380   6.554  1.0415 -0.5836  2.2485
   52MOL    H3338895   0.107   4.323   6.533  0.8933 -2.9747 -0.5651
   52MOL    H3438896   0.111   4.355   6.307 -0.9073 -2.4062 -0.2954
   52MOL    H3538897   7.647   4.369   6.295 -0.2934  0.7525  0.0247
   52MOL    H3638898   7.682   4.582   6.449  1.0514 -0.7203  0.4607
   52MOL    H3738899   0.005   4.606   6.286  1.2714  0.0831 -0.9364
   52MOL    H3838900   0.253   4.512   6.415  3.1076  1.5899  0.9834
   52MOL    H3938901   7.095   3.363   6.601  0.5500 -0.9855  1.5272
   52MOL    C4038902   0.229   4.702   6.436 -0.8327 -0.0216 -0.6112
   52MOL    O4138903   0.156   4.801   6.452  0.4179  0.0886  0.0143
   52MOL    C4238904   0.382   4.720   6.434 -0.4019 -0.0373  0.1771
   52MOL    C4338905   0.426   4.820   6.551 -0.1758  0.3133  0.3450
   52MOL    C4438906   0.433   4.743   6.694  0.1612 -1.0610  0.2081
   52MOL    C4538907   0.490   4.840   6.795 -0.3939 -0.4986  0.2943
   52MOL    C4638908   0.493   4.783   6.937  0.0992 -0.4763 -0.2728
   52MOL    O4738909   0.391   4.787   7.006  0.0876 -0.1997 -0.7836
   52MOL    N4838910   0.602   4.723   6.980 -0.2859  0.1391  0.3258
   52MOL    C4938911   0.616   4.656   7.105  0.1790 -0.7612 -0.2576
   52MOL    C5038912   0.657   4.506   7.076 -0.4247 -0.2249  0.2360
   52MOL    C5138913   0.661   4.415   7.199  0.3250 -0.1899 -0.2880
   52MOL    C5238914   0.653   4.261   7.168 -0.1461  0.6280  0.8283
   52MOL    C5338915   0.524   4.219   7.090 -0.3752  0.0672  0.0837
   52MOL    C5438916   0.531   4.073   7.054 -0.1206 -0.2302 -0.2315
   52MOL    N5538917   0.404   4.028   6.992 -0.5021 -0.5791 -0.7659
   52MOL    H5638918   0.435   4.625   6.428  0.2543  0.3225  0.1614
   52MOL    H5738919   0.395   4.769   6.338 -1.9807 -2.0019 -1.0630
   52MOL    H5838920   0.525   4.861   6.532  0.6835 -1.0633  1.7766
   52MOL    H5938921   0.360   4.907   6.556  0.0911  0.4981  0.6592
   52MOL    H6038922   0.506   4.663   6.681  1.7831  0.9427 -3.8341
   52MOL    H6138923   0.331   4.719   6.724  0.1217 -1.1562  0.0001
   52MOL    H6238924   0.425   4.927   6.807  1.2601  0.9526 -1.0604
   52MOL    H6338925   0.593   4.872   6.777 -0.8625  0.4152 -0.8178
   52MOL    H6438926   0.683   4.745   6.924 -0.5603 -1.5935 -0.7992
   52MOL    H6538927   0.686   4.715   7.165 -1.3479 -1.2170  2.0369
   52MOL    H6638928   0.521   4.655   7.158  0.4051  0.0204  0.1707
   52MOL    H6738929   0.596   4.473   6.991  0.0776 -0.5307 -0.0085
   52MOL    H6838930   0.757   4.493   7.034 -0.1879 -0.0210  0.7420
   52MOL    H6938931   0.571   4.441   7.254  1.7380  0.1513  1.9280
   52MOL    H7038932   0.742   4.445   7.266  0.1508  1.8952 -0.9825
   52MOL    H7138933   0.747   4.232   7.121 -0.9295 -0.0961 -0.3313
   52MOL    H7238934   0.661   4.208   7.263  0.9955 -2.0606 -0.7035
   52MOL    H7338935   0.434   4.246   7.146  0.1579 -1.0845  1.5130
   52MOL    H7438936   0.512   4.264   6.991  1.9159 -1.3082 -0.8613
   52MOL    H7538937   0.564   4.007   7.135  0.1952 -0.6759 -0.7242
   52MOL    H7638938   0.617   4.053   6.990  1.1031 -1.0993  1.6033
   52MOL    H7738939   0.329   3.997   7.053  0.4092  0.0850  0.7267
   52MOL    C7838940   0.392   4.016   6.861  0.7495  1.2419 -0.5946
   52MOL    O7938941   0.486   4.056   6.787  0.6758  0.5188  0.4210
   52MOL    C8038942   0.269   3.948   6.794 -0.0298  0.0518  1.0787
   52MOL    C8138943   0.299   3.809   6.740 -0.4165  0.0885  0.5153
   52MOL    C8238944   0.395   3.798   6.619 -0.0163 -0.2660  1.0370
   52MOL    C8338945   0.393   3.663   6.550 -0.7366 -0.0292  0.1745
   52MOL    C8438946   0.288   3.642   6.448  0.0106 -0.2922 -0.0916
   52MOL    O8538947   0.218   3.734   6.403  0.6386 -0.2295 -0.3720
   52MOL    N8638948   0.271   3.520   6.397  0.6090 -0.5186  0.2441
   52MOL    C8738949   0.182   3.486   6.287  0.1598 -0.2327  0.2051
   52MOL    C8838950   0.240   3.517   6.141 -0.3967  0.5431 -0.6950
   52MOL    C8938951   0.371   3.447   6.107  0.3740 -0.9886  0.4125
   52MOL    C9038952   0.439   3.498   5.974  0.7025 -0.1030 -0.1623
   52MOL    C9138953   0.531   3.400   5.901 -0.5126  0.2431  0.2483
   52MOL    C9238954   0.602   3.469   5.784  0.7839  0.2633 -0.3084
   52MOL    N9338955   0.696   3.380   5.713 -0.1462 -0.7188 -0.0600
   52MOL    H9438956   0.182   3.942   6.859 -1.7738 -2.5474 -1.3298
   52MOL    H9538957   0.244   4.013   6.710  1.5495 -0.4471  0.2071
   52MOL    H9638958   0.316   3.724   6.806  0.4658 -1.0791 -1.1892
   52MOL    H9738959   0.197   3.796   6.704  0.1996 -0.8480 -0.9227
   52MOL    H9838960   0.494   3.808   6.662  0.9342  3.0158 -1.6457
   52MOL    H9938961   0.382   3.876   6.543  1.1617 -0.8223  0.2676
   52MOL   H10038962   0.384   3.592   6.632  0.5272 -0.9250 -0.4406
   52MOL   H10138963   0.486   3.647   6.495 -1.0758 -1.7601  0.0744
   52MOL   H10238964   0.323   3.448   6.443  0.1037  1.2881  3.8453
   52MOL   H10338965   0.167   3.378   6.282 -1.8825  0.0359  0.1092
   52MOL   H10438966   0.083   3.529   6.301  0.3136  0.2501 -0.1644
   52MOL   H10538967   0.168   3.498   6.062  0.1782 -0.2110 -1.0520
   52MOL   H10638968   0.266   3.622   6.151  0.9119 -0.0770  3.3912
   52MOL   H10738969   0.350   3.340   6.102  3.2162 -1.6402  1.3092
   52MOL   H10838970   0.440   3.466   6.189 -0.5137 -1.0216  1.1760
   52MOL   H10938971   0.363   3.521   5.899 -1.1840 -0.0599  1.7366
   52MOL   H11038972   0.495   3.589   5.993 -0.3852 -0.1938  3.8381
   52MOL   H11138973   0.603   3.352   5.968  0.9063  2.3230  0.2655
   52MOL   H11238974   0.465   3.326   5.856 -1.6599  1.5827 -0.2943
   52MOL   H11338975   0.644   3.568   5.805  1.9720 -0.4936  0.9454
   52MOL   H11438976   0.528   3.490   5.707  1.0792  0.2607 -0.5955
   52MOL   H11538977   0.708   3.288   5.753  0.3536 -0.2500  0.8806
   52MOL   C11638978   0.768   3.415   5.608 -0.7108  0.3209  0.4685
   52MOL   O11738979   0.757   3.524   5.554  0.4351  0.4670  0.9334
   52MOL   C11838980   0.861   3.310   5.544  0.0826  0.0517  0.4668
   52MOL   C11938981   0.812   3.277   5.402 -0.6466  0.2777 -0.4634
   52MOL   C12038982   0.832   3.132   5.354  0.0519  0.2366  0.0536
   52MOL   C12138983   0.763   3.021   5.429  0.8268  0.3585  0.0952
   52MOL   C12238984   0.606   3.017   5.405  0.1335 -0.2628  0.1010
   52MOL   O12338985   0.567   3.057   5.298 -0.1316 -0.5450  0.7609
   52MOL   N12438986   0.531   2.985   5.516  0.1274 -0.1319 -0.1720
   52MOL   C12538987   0.385   3.007   5.536 -0.8362  0.1155  0.1275
   52MOL   C12638988   0.355   3.134   5.603 -0.0146  0.0110 -0.2747
   52MOL   C12738989   0.380   3.266   5.525 -0.2387  1.2986  0.8981
   52MOL   C12838990   0.312   3.279   5.390  0.5945 -0.2869  0.2405
   52MOL   C12938991   0.363   3.398   5.301  0.2715 -0.2146 -0.3437
   52MOL   C13038992   0.268   3.419   5.176 -0.1570 -1.0092  0.2096
   52MOL   N13138993   0.333   3.500   5.076 -0.0000 -0.3637 -0.4196
   52MOL   H13238994   0.967   3.335   5.540 -0.5789  2.9746 -0.8060
   52MOL   H13338995   0.862   3.225   5.611 -1.6203 -0.5490 -0.2275
   52MOL   H13438996   0.709   3.310   5.388 -1.3417 -0.3515  2.8638
   52MOL   H13538997   0.875   3.333   5.332  2.2137 -0.1835  1.6716
   52MOL   H13638998   0.939   3.114   5.345 -0.2252 -1.4742  0.0519
   52MOL   H13738999   0.814   3.130   5.246  0.3412  1.9415 -0.0395
   52MOL   H13839000   0.784   3.035   5.535  0.1532  0.4248  0.2250
   52MOL   H13939001   0.796   2.919   5.415 -0.8631 -0.2923  0.6874
   52MOL   H14039002   0.584   2.941   5.590 -0.4508  0.7217  0.7598
   52MOL   H14139003   0.323   2.997   5.446  0.4062 -1.6518 -0.5623
   52MOL   H14239004   0.355   2.925   5.601  1.5709  1.3128  2.8097
   52MOL   H14339005   0.256   3.127   5.649  0.5814 -1.2755  0.8872
   52MOL   H14439006   0.410   3.149   5.696 -0.0695 -1.3064 -0.0181
   52MOL   H14539007   0.487   3.267   5.503 -0.1863 -2.6773  0.7767
   52MOL   H14639008   0.346   3.355   5.578 -0.7823  1.0698  0.9371
   52MOL   H14739009   0.327   3.186   5.334 -0.6049  0.9193 -2.1089
   52MOL   H14839010   0.205   3.286   5.405  0.6341 -3.1399  2.4325
   52MOL   H14939011   0.341   3.485   5.363 -0.7127 -1.4277  1.0573
   52MOL   H15039012   0.469   3.378   5.292  0.6477  0.9768  1.1633
   52MOL   H15139013   0.172   3.465   5.200  0.6389  0.8104 -0.0475
   52MOL   H15239014   0.247   3.322   5.131 -0.8058 -0.1699 -1.3259
   52MOL   H15339015   0.396   3.450   5.015  2.2303 -1.2462  2.4859
   52MOL   C15439016   0.354   3.635   5.075 -0.8770 -0.4921  0.5249
   52MOL   O15539017   0.295   3.718   5.151 -0.4116  0.4899 -0.2158
   52MOL   C15639018   0.452   3.693   4.972 -0.4056  0.1215  0.1245
   52MOL   C15739019   0.486   3.841   4.996  0.3491  0.0367  0.3634
   52MOL   C15839020   0.598   3.857   5.084  0.4918 -0.1666 -0.4348
   52MOL   C15939021   0.651   4.002   5.103 -0.0618  0.0818  0.2733
   52MOL   C16039022   0.787   4.020   5.170  0.5209  0.9735  0.2518
   52MOL   O16139023   0.804   4.090   5.273  0.2379  0.2734 -0.3605
   52MOL   N16239024   0.893   3.977   5.101 -0.3332 -0.0166 -0.3077
   52MOL   C16339025   1.035   3.968   5.155  0.0573  0.7630 -0.5134
   52MOL   C16439026   1.144   3.967   5.053 -0.1822  0.0935  1.0599
   52MOL   C16539027   1.157   4.099   4.981  0.8883  0.6770  0.2668
   52MOL   C16639028   1.280   4.116   4.881 -0.2273  0.7566  0.7189
   52MOL   C16739029   1.280   4.251   4.796 -0.5831 -0.1543 -0.3012
   52MOL   C16839030   1.400   4.262   4.700 -0.2430 -0.6789 -0.9038
   52MOL   N16939031   1.521   4.312   4.772 -0.5489  0.0790  0.0832
   52MOL   H17039032   0.536   3.623   4.980 -0.3295  0.4160  2.0382
   52MOL   H17139033   0.416   3.692   4.869 -0.2873 -0.5964  0.0804
   52MOL   H17239034   0.519   3.901   4.912  1.4746  0.2452  0.9495
   52MOL   H17339035   0.404   3.899   5.038  0.1134 -1.1329  1.5617
   52MOL   H17439036   0.676   3.789   5.052  0.6121 -0.4013  0.3417
   52MOL   H17539037   0.573   3.813   5.180  2.6949 -1.5385 -0.4668
   52MOL   H17639038   0.580   4.066   5.156 -0.0540  0.5253 -0.2531
   52MOL   H17739039   0.659   4.055   5.009  0.5852  1.1193  0.9105
   52MOL   H17839040   0.874   3.915   5.023  0.2609 -1.3588  0.6113
   52MOL   H17939041   1.056   4.065   5.199 -2.1200  0.2759  1.7659
   52MOL   H18039042   1.040   3.890   5.232 -1.1285 -1.1975 -2.3524
   52MOL   H18139043   1.233   3.940   5.110 -0.4027  0.5960  1.6514
   52MOL   H18239044   1.128   3.888   4.979  2.2725  0.0602  0.5317
   52MOL   H18339045   1.167   4.178   5.055  0.3035  1.0690 -0.0630
   52MOL   H18439046   1.060   4.110   4.931  0.0776  0.6429  1.8025
   52MOL   H18539047   1.372   4.102   4.938  0.2773 -0.9466 -0.4777
   52MOL   H18639048   1.269   4.028   4.818 -0.2173  0.7955  0.6647
   52MOL   H18739049   1.186   4.267   4.743 -2.0487  0.5207  2.3786
   52MOL   H18839050   1.288   4.336   4.865 -1.6931 -0.4052  0.1471
   52MOL   H18939051   1.368   4.323   4.616 -0.2405 -1.0321 -1.1624
   52MOL   H19039052   1.427   4.164   4.661  1.7965 -1.2381  1.7681
   52MOL   H19139053   1.547   4.253   4.849 -1.7464 -1.0240 -0.3363
   52MOL   C19239054   1.566   4.434   4.764 -0.2412 -0.3358 -0.2582
   52MOL   O19339055   1.529   4.507   4.676  0.3532  0.5221  0.3726
   52MOL   C19439056   1.672   4.486   4.859  0.1029 -0.2203 -0.6805
   52MOL   C19539057   1.705   4.632   4.835  0.4802 -0.0578  0.4827
   52MOL   C19639058   1.784   4.707   4.948  0.3211  0.2004  0.1580
   52MOL   C19739059   1.828   4.838   4.881 -1.2701 -0.1088 -0.0098
   52MOL   C19839060   1.913   4.920   4.979  0.1813  0.5579  0.3112
   52MOL   O19939061   2.020   4.873   5.024  0.0825  0.2129 -0.1359
   52MOL   N20039062   1.861   5.039   5.010  0.3731  0.0494 -0.2703
   52MOL   C20139063   1.940   5.131   5.081 -0.0711 -0.3452 -0.2262
   52MOL   C20239064   1.862   5.261   5.104  0.9768  0.4470 -0.5902
   52MOL   C20339065   1.948   5.378   5.144  0.0495 -0.2518 -0.1538
   52MOL   C20439066   1.871   5.510   5.143 -0.4724  0.0591 -0.0879
   52MOL   C20539067   1.942   5.641   5.185  0.5340  0.3485 -0.1501
   52MOL   C20639068   1.840   5.748   5.227  0.2479  0.0643  0.2509
   52MOL   N20739069   1.903   5.880   5.262 -0.0056  1.0583 -0.2946
   52MOL   H20839070   1.631   4.482   4.959  0.6030  0.3284 -0.4500
   52MOL   H20939071   1.768   4.435   4.858  0.2241  0.0072 -1.0762
   52MOL   H21039072   1.755   4.641   4.738 -1.3052 -1.7106 -0.6267
   52MOL   H21139073   1.614   4.690   4.832  1.3447  1.2348 -2.4221
   52MOL   H21239074   1.868   4.646   4.981 -0.8481 -2.5612 -1.8127
   52MOL   H21339075   1.722   4.734   5.034  1.7627 -1.3774  1.7509
   52MOL   H21439076   1.738   4.885   4.841 -3.3256 -1.2766  3.0109
   52MOL   H21539077   1.895   4.805   4.802 -0.9609 -0.3694  0.3644
   52MOL   H21639078   1.763   5.063   4.999  0.1433 -0.2765  0.9586
   52MOL   H21739079   1.961   5.098   5.183  3.2378  0.1941 -0.6682
   52MOL   H21839080   2.035   5.151   5.030  0.3920 -0.8657  0.4218
   52MOL   H21939081   1.800   5.281   5.017  2.6238 -0.4267 -1.9989
   52MOL   H22039082   1.787   5.231   5.177 -0.2980  1.2658 -1.5513
   52MOL   H22139083   2.036   5.389   5.081  0.4794 -0.6203  0.3782
   52MOL   H22239084   1.979   5.370   5.248  1.3580  1.5145 -0.3741
   52MOL   H22339085   1.823   5.528   5.047 -0.2181 -0.5610 -0.3374
   52MOL   H22439086   1.794   5.499   5.220 -2.0895 -0.2637 -1.6932
   52MOL   H22539087   1.991   5.625   5.280  0.1999 -0.9106 -0.1688
   52MOL   H22639088   2.012   5.687   5.115  1.7338  0.7016  1.2770
   52MOL   H22739089   1.785   5.716   5.315  0.3146 -2.5025 -0.5837
   52MOL   H22839090   1.761   5.746   5.152  0.2127 -0.4801  0.2948
   52MOL   H22939091   1.975   5.871   5.331 -1.6763 -0.1594  1.3361
   52MOL   C23039092   1.870   5.993   5.208  0.1080 -0.4951  0.0256
   52MOL   O23139093   1.784   5.993   5.115  0.1282  0.6334 -0.4120
   52MOL   C23239094   1.928   6.123   5.262 -0.2243 -0.0529  0.3165
   52MOL   C23339095   1.939   6.124   5.424 -0.0463 -0.4518 -0.3344
   52MOL   C23439096   2.068   6.054   5.475 -0.3510 -0.1532 -0.7600
   52MOL   C23539097   2.208   6.124   5.437 -0.4836  0.1697 -0.8595
   52MOL   C23639098   2.330   6.074   5.522 -0.7388 -0.3134  0.0912
   52MOL   O23739099   2.329   5.972   5.590 -0.2818  0.3408  0.5604
   52MOL   N23839100   2.441   6.148   5.520  0.1063  0.1198  0.6213
   52MOL   C23939101   2.476   6.253   5.424 -0.1628 -0.8676 -0.7943
   52MOL   C24039102   2.610   6.316   5.465 -0.0400 -0.0498  0.3914
   52MOL   C24139103   2.662   6.411   5.345  0.1316  0.4105  0.4936
   52MOL   C24239104   2.769   6.492   5.403  0.6680 -0.5403 -0.0132
   52MOL   C24339105   2.827   6.574   5.287 -0.0826  0.2669  0.8029
   52MOL   C24439106   2.876   6.721   5.323  0.0201 -0.3734 -0.3354
   52MOL   N24539107   3.009   6.712   5.383  0.0997  0.2344  0.3197
   52MOL   H24639108   2.023   6.134   5.210 -0.1441 -1.4592  0.1508
   52MOL   H24739109   1.862   6.199   5.222  0.4317  0.1573 -0.3815
   52MOL   H24839110   1.961   6.227   5.452  1.6037 -1.0251  0.5359
   52MOL   H24939111   1.848   6.085   5.469 -0.1870 -0.1789 -0.3787
   52MOL   H25039112   2.063   5.951   5.440 -2.7117 -0.6602  0.9727
   52MOL   H25139113   2.068   6.044   5.583 -0.4924  0.6462 -0.6844
   52MOL   H25239114   2.210   6.233   5.442 -0.6137  0.0820  2.1215
   52MOL   H25339115   2.239   6.098   5.336  0.7788 -0.6929 -0.2595
   52MOL   H25439116   2.515   6.137   5.588 -1.9270  0.4467  2.9459
   52MOL   H25539117   2.469   6.229   5.318 -1.3576  0.3437 -0.9993
   52MOL   H25639118   2.401   6.332   5.417 -0.4990 -1.4001 -4.2054
   52MOL   H25739119   2.608   6.368   5.561  4.0412 -0.7945  0.9689
   52MOL   H25839120   2.672   6.228   5.481 -1.7156 -1.3610 -0.1053
   52MOL   H25939121   2.577   6.466   5.304 -0.5087 -1.7420 -1.1599
   52MOL   H26039122   2.681   6.345   5.260  0.2009  0.4404  0.4854
   52MOL   H26139123   2.724   6.568   5.467  1.5373 -0.8087  0.9248
   52MOL   H26239124   2.846   6.435   5.454 -1.3232 -2.8792  0.4610
   52MOL   H26339125   2.889   6.511   5.223 -1.3059 -0.6346  0.4972
   52MOL   H26439126   2.742   6.599   5.224 -0.2140  0.9026  1.2272
   52MOL   H26539127   2.812   6.764   5.400 -0.8904  3.7354 -3.2240
   52MOL   H26639128   2.870   6.778   5.230  0.6064  0.5024  0.1466
   52MOL   H26739129   3.049   6.621   5.401 -0.8472 -0.2403  0.0453
   52MOL   C26839130   3.101   6.812   5.407  0.3752 -0.4926 -0.1975
   52MOL   O26939131   3.083   6.931   5.372  0.1098  0.4922 -0.6336
   52MOL   C27039132   3.227   6.769   5.485  0.0091  0.4015  0.0730
   52MOL   C27139133   3.345   6.759   5.386  0.4793 -0.3697 -0.2952
   52MOL   C27239134   3.321   6.635   5.289 -0.0609 -0.2034 -0.6638
   52MOL   C27339135   3.354   6.495   5.348  0.2250 -0.0588 -0.2584
   52MOL   C27439136   3.235   6.410   5.386 -0.3426 -0.3213 -0.1684
   52MOL   O27539137   3.124   6.447   5.355  0.0346  0.2527  0.0936
   52MOL   N27639138   3.265   6.291   5.438  0.6661 -0.1112  0.2629
   52MOL   C27739139   3.165   6.189   5.474 -0.5169 -0.7996  0.7176
   52MOL   C27839140   3.114   6.194   5.618  0.1960  0.0826  0.5385
   52MOL   C27939141   3.013   6.076   5.651  0.1259 -0.2845 -0.1668
   52MOL   C28039142   2.998   6.052   5.805 -0.0685  0.4178 -0.1411
   52MOL   C28139143   2.907   5.933   5.826 -0.3731 -0.3183  0.2547
   52MOL   C28239144   2.906   5.881   5.976  0.2007  0.0355 -0.0177
   52MOL   N28339145   2.806   5.783   5.997  0.6320  0.5850 -0.0818
   52MOL   H28439146   3.237   6.849   5.559 -0.8206  0.0097  0.6212
   52MOL   H28539147   3.198   6.676   5.534 -0.2182 -0.0817 -0.9715
   52MOL   H28639148   3.351   6.850   5.326 -0.4819 -1.0688 -1.4909
   52MOL   H28739149   3.444   6.764   5.429  1.1164 -0.4149 -1.7191
   52MOL   H28839150   3.395   6.647   5.210 -0.5419  1.0094 -0.9417
   52MOL   H28939151   3.227   6.632   5.235 -0.0658 -0.4621 -0.6438
   52MOL   H29039152   3.439   6.485   5.415  0.4137 -1.3153 -0.6829
   52MOL   H29139153   3.375   6.439   5.257 -0.0591 -2.9944  1.4145
   52MOL   H29239154   3.362   6.264   5.448  0.5903  0.1217  1.7760
   52MOL   H29339155   3.074   6.212   5.418 -0.5669 -1.0550  0.6939
   52MOL   H29439156   3.196   6.092   5.434 -2.4316 -0.5332 -1.5294
   52MOL   H29539157   3.201   6.191   5.685  0.5892 -2.5128 -0.0563
   52MOL   H29639158   3.072   6.291   5.644  2.6360  1.5194 -0.6979
   52MOL   H29739159   3.046   5.983   5.604 -0.1199  0.1707 -1.2610
   52MOL   H29839160   2.913   6.094   5.610 -1.1435 -0.5518  2.7410
   52MOL   H29939161   3.093   6.027   5.852 -0.6919 -0.2073  0.8148
   52MOL   H30039162   2.949   6.143   5.839  1.1714  0.4726  1.5638
   52MOL   H30139163   2.808   5.970   5.798 -0.0006  0.3735 -0.1620
   52MOL   H30239164   2.941   5.858   5.755 -0.7953  1.5201 -1.9772
   52MOL   H30339165   2.872   5.960   6.042 -0.4048  0.3894 -0.7484
   52MOL   H30439166   3.007   5.843   5.994  0.1952 -0.6041 -1.3034
   52MOL   H30539167   2.738   5.788   5.923 -0.6062 -0.6833  0.9511
   52MOL   C30639168   2.798   5.694   6.097 -0.3760  0.1783 -0.0988
   52MOL   O30739169   2.889   5.682   6.177  0.1105  0.0120 -0.0419
   52MOL   C30839170   2.687   5.592   6.095  0.2159 -0.8860  0.1894
   52MOL   C30939171   2.640   5.554   6.242  0.1101  0.0492  0.2213
   52MOL   C31039172   2.530   5.650   6.299 -0.4559 -0.4650  0.5781
   52MOL   C31139173   2.582   5.794   6.339  0.8412  0.4811 -0.1367
   52MOL   C31239174   2.470   5.886   6.407 -0.2446  0.2153 -0.0747
   52MOL   O31339175   2.362   5.844   6.416 -0.7666 -0.6904  0.2819
   52MOL   N31439176   2.502   6.011   6.445 -0.0832  0.6042 -0.4510
   52MOL   C31539177   2.626   6.080   6.430  0.3385  0.2892 -0.0339
   52MOL   C31639178   2.731   6.065   6.542 -0.1140  0.5794 -0.5908
   52MOL   C31739179   2.871   6.143   6.524  0.5999  0.7713  0.1127
   52MOL   C31839180   2.971   6.111   6.633  0.3999 -0.0269  0.3334
   52MOL   C31939181   3.103   6.186   6.612 -0.5854 -0.6482  0.3465
   52MOL   C32039182   3.208   6.168   6.725  0.0202  0.1631  0.0149
   52MOL   N32139183   3.334   6.234   6.693 -0.1655 -0.3573 -0.4758
   52MOL   H32239184   2.604   5.629   6.034  0.1489  0.3584  1.0244
   52MOL   H32339185   2.724   5.506   6.040  1.0776  0.3885 -1.2827
   52MOL   H32439186   2.599   5.453   6.241  0.1674  0.0257 -0.6503
   52MOL   H32539187   2.727   5.552   6.307  0.7431  1.3642 -0.5518
   52MOL   H32639188   2.502   5.602   6.393 -2.4754  2.0860  1.3395
   52MOL   H32739189   2.436   5.649   6.244 -1.1829  1.8725  1.7189
   52MOL   H32839190   2.615   5.852   6.253  0.7388 -1.6580 -1.6477
   52MOL   H32939191   2.663   5.776   6.409  0.4378 -3.0621 -0.5109
   52MOL   H33039192   2.424   6.071   6.466  0.4029  1.9523 -2.3625
   52MOL   H33139193   2.678   6.059   6.337 -0.4828 -1.4466 -0.1267
   52MOL   H33239194   2.608   6.187   6.431  1.1699  0.4363 -0.7297
   52MOL   H33339195   2.699   6.104   6.638 -0.7327  1.0685 -0.9876
   52MOL   H33439196   2.756   5.959   6.551 -1.5304  0.4324  1.7788
   52MOL   H33539197   2.854   6.250   6.521 -0.4616  0.6085 -0.0219
   52MOL   H33639198   2.908   6.115   6.426 -3.4272 -1.0275 -1.0238
   52MOL   H33739199   2.926   6.130   6.730  0.4682  1.3932  0.0951
   52MOL   H33839200   2.990   6.004   6.628  0.3956  0.0326 -1.2763
   52MOL   H33939201   3.157   6.159   6.521  2.1837  0.0900  1.7230
   52MOL   H34039202   3.078   6.292   6.599  0.8640 -0.4657 -1.1021
   52MOL   H34139203   3.226   6.063   6.748  0.1736 -0.4665 -2.8587
   52MOL   H34239204   3.187   6.210   6.824 -0.5732 -0.8865  0.3417
   52MOL   H34339205   3.347   6.328   6.728  0.1637 -0.5040 -0.1937
   52MOL   C34439206   3.442   6.190   6.628  0.2289 -0.5031  0.0338
   52MOL   O34539207   3.443   6.085   6.564 -0.9798 -0.0587 -0.4636
   52MOL   C34639208   3.559   6.288   6.626 -0.5114  0.0293  0.1743
   52MOL   C34739209   3.639   6.291   6.752 -0.5159 -0.6818 -1.2787
   52MOL   C34839210   3.577   6.370   6.874  0.1130 -0.7509  0.3686
   52MOL   C34939211   3.673   6.392   6.995  0.6113 -0.4995 -0.2705
   52MOL   C35039212   3.696   6.276   7.083  0.3591 -0.2073  0.0964
   52MOL   O35139213   3.603   6.244   7.154  0.4170  0.6352  0.2432
   52MOL   N35239214   3.816   6.209   7.069  0.3377 -0.5110  0.5024
   52MOL   C35339215   3.850   6.087   7.144  0.2203 -0.3243  0.4793
   52MOL   C35439216   3.981   6.104   7.219  0.2684 -0.4021 -0.9706
   52MOL   C35539217   4.032   5.964   7.261  0.2008 -0.2855  0.7028
   52MOL   C35639218   4.179   5.948   7.294 -0.4295  0.1273  0.6944
   52MOL   C35739219   4.222   6.011   7.424  0.0007  0.2016 -0.0841
   52MOL   C35839220   4.362   5.972   7.458 -0.1468  0.0697  0.2757
   52MOL   N35939221   4.416   6.043   7.578  0.3872 -0.0112  0.2399
   52MOL   H36039222   3.622   6.251   6.546  0.3036  0.1400  0.7622
   52MOL   H36139223   3.517   6.379   6.584  0.4775  0.7287  0.6814
   52MOL   H36239224   3.657   6.188   6.782  0.1337 -0.6055 -1.3841
   52MOL   H36339225   3.736   6.337   6.730 -0.1855  0.7443  2.7944
   52MOL   H36439226   3.488   6.324   6.917 -0.2527  0.5119  0.9951
   52MOL   H36539227   3.540   6.467   6.842 -3.0940 -1.8374  0.5808
   52MOL   H36639228   3.627   6.470   7.056 -0.1229 -1.7337  0.7992
   52MOL   H36739229   3.775   6.420   6.971  1.2541  0.3733  3.1920
   52MOL   H36839230   3.885   6.241   7.004 -0.2532 -0.7708 -0.2594
   52MOL   H36939231   3.773   6.045   7.209 -0.3920  0.5066  0.2945
   52MOL   H37039232   3.850   6.020   7.058  0.1163 -0.8343  0.8746
   52MOL   H37139233   4.048   6.146   7.144 -0.1539  0.0190 -1.1127
   52MOL   H37239234   3.960   6.172   7.302 -1.0201 -2.7886  0.7406
   52MOL   H37339235   4.011   5.896   7.178 -0.4379  0.1803  0.4795
   52MOL   H37439236   3.979   5.924   7.347 -0.4423  0.4606  0.6599
   52MOL   H37539237   4.204   5.843   7.307 -0.5086  0.2621  1.9784
   52MOL   H37639238   4.244   5.971   7.210 -0.8346 -1.6917 -0.1573
   52MOL   H37739239   4.198   6.115   7.402  0.5187 -0.1343 -2.3553
   52MOL   H37839240   4.164   5.973   7.509  2.9769  0.0688  1.9634
   52MOL   H37939241   4.426   5.985   7.371  0.4098 -0.1211  0.6507
   52MOL   H38039242   4.353   5.868   7.488  0.9413  0.2160  1.1679
   52MOL   H38139243   4.346   6.079   7.641 -0.6186 -0.3531 -0.6609
   52MOL   C38239244   4.541   6.039   7.622 -1.0483 -0.1142  0.0908
   52MOL   O38339245   4.628   5.975   7.563  0.4963  0.1146 -0.2325
   52MOL   C38439246   4.567   6.121   0.044 -0.4523  0.0275  0.3524
   52MOL   C38539247   4.712   6.099   0.096 -0.2605  0.1923 -0.6586
   52MOL   C38639248   4.733   6.161   0.228  0.8936  0.1581 -0.4989
   52MOL   C38739249   4.876   6.149   0.283 -0.3515  0.4195 -0.1026
   52MOL   C38839250   4.897   6.233   0.400  0.4397  0.4147  0.2632
   52MOL   O38939251   4.836   6.210   0.503  0.7535  0.2731  0.2082
   52MOL   N39039252   4.978   6.339   0.387 -0.0422 -0.0008  0.9454
   52MOL   C39139253   5.014   6.423   0.505  0.6963  0.5284  0.3292
   52MOL   C39239254   5.149   6.490   0.485 -0.2136  0.1773  0.0641
   52MOL   C39339255   5.194   6.580   0.601  0.0732  1.0268 -0.1524
   52MOL   C39439256   5.339   6.619   0.582  0.4715  0.0285 -0.2276
   52MOL   C39539257   5.405   6.714   0.692 -0.0504 -0.4465 -0.0812
   52MOL   C39639258   5.371   6.855   0.690  0.6540  0.0522 -0.6472
   52MOL   N39739259   5.411   6.926   0.813 -0.1953  0.7838 -0.2383
   52MOL   H39839260   4.551   6.226   0.019  0.9414  0.0329 -0.5368
   52MOL   H39939261   4.502   6.084   0.124 -1.1142 -0.1668 -0.2643
   52MOL   H40039262   4.715   5.993   0.122 -1.7257  0.9296  2.7924
   52MOL   H40139263   4.790   6.117   0.023 -0.0958  0.0801 -0.5109
   52MOL   H40239264   4.660   6.120   0.298 -1.2765  1.4632 -1.9476
   52MOL   H40339265   4.708   6.267   0.222 -2.8922 -0.6657 -0.9702
   52MOL   H40439266   4.946   6.175   0.203 -0.2313  1.1968  0.2464
   52MOL   H40539267   4.896   6.044   0.305  2.2244  0.0924 -3.4724
   52MOL   H40639268   5.035   6.354   0.305 -1.4391  3.7753  0.5415
   52MOL   H40739269   4.933   6.493   0.523 -0.8178 -1.8459  3.3073
   52MOL   H40839270   5.018   6.361   0.595  0.9421 -0.5336 -0.3961
   52MOL   H40939271   5.219   6.408   0.467  0.0937  0.1422  1.3869
   52MOL   H41039272   5.144   6.559   0.401 -1.5453 -1.3941 -1.1915
   52MOL   H41139273   5.190   6.516   0.689 -1.1605  0.2523 -0.7551
   52MOL   H41239274   5.124   6.663   0.615 -0.2629  0.9596 -1.3513
   52MOL   H41339275   5.408   6.534   0.582  1.9625  1.2137 -1.6113
   52MOL   H41439276   5.362   6.667   0.487  0.6257 -1.6639 -1.0742
   52MOL   H41539277   5.369   6.664   0.782  1.4949 -1.8887 -0.2255
   52MOL   H41639278   5.514   6.702   0.694  0.0224  0.2815  1.7077
   52MOL   H41739279   5.265   6.877   0.685  0.6828  1.0714  2.4244
   52MOL   H41839280   5.417   6.913   0.609  0.2890 -0.7555 -1.4386
   52MOL   H41939281   5.494   6.983   0.806  1.1032 -1.1568 -1.0513
   52MOL   C42039282   5.340   6.938   0.929  0.4613  0.8400  0.0034
   52MOL   O42139283   5.235   6.877   0.945  0.6191 -0.2143  0.1868
   52MOL   C42239284   5.382   7.034   1.036 -0.5230 -0.2314  0.0696
   52MOL   C42339285   5.437   6.965   1.161  0.5867  0.4348 -0.6310
   52MOL   C42439286   5.554   7.050   1.218  0.3947  0.3028  0.0161
   52MOL   C42539287   5.681   7.065   1.119 -0.2418  0.4707 -0.6835
   52MOL   C42639288   5.738   6.929   1.079  0.1726 -0.2759  0.1500
   52MOL   O42739289   5.761   6.848   1.172  0.4219  0.3282 -0.4288
   52MOL   N42839290   5.764   6.901   0.945 -0.0730  0.0502  0.3303
   52MOL   C42939291   5.799   6.770   0.896  0.6581  0.2238 -0.3362
   52MOL   C43039292   5.941   6.763   0.837  0.1389  0.0804  0.4337
   52MOL   C43139293   5.981   6.624   0.784  0.0328 -0.3019 -0.5212
   52MOL   C43239294   6.126   6.620   0.724  1.0482 -0.6451 -0.1640
   52MOL   C43339295   6.174   6.476   0.723  0.2521  0.6321  0.7896
   52MOL   C43439296   6.326   6.464   0.677 -0.0688 -0.2102  0.4915
   52MOL   N43539297   6.379   6.330   0.654  0.0556 -0.3118  0.0046
   52MOL   H43639298   5.456   7.092   0.982 -0.4003 -1.0375 -0.6444
   52MOL   H43739299   5.292   7.090   1.060  0.0353  1.2322 -1.2034
   52MOL   H43839300   5.359   6.948   1.236  1.9804  0.6556  0.9008
   52MOL   H43939301   5.477   6.868   1.134  0.2958 -0.1872  1.0864
   52MOL   H44039302   5.584   7.013   1.316  2.0389 -0.8423 -0.8824
   52MOL   H44139303   5.527   7.155   1.231  0.0546  0.1004  0.9676
   52MOL   H44239304   5.754   7.118   1.180 -0.3909 -0.4290  0.3043
   52MOL   H44339305   5.670   7.138   1.039 -1.3547  1.1988  0.1198
   52MOL   H44439306   5.741   6.971   0.875  2.4303  0.5028 -0.0935
   52MOL   H44539307   5.774   6.688   0.963  0.7101 -0.2571 -0.8989
   52MOL   H44639308   5.728   6.760   0.813 -0.7449  1.2523  0.7084
   52MOL   H44739309   5.944   6.834   0.755  0.4348 -0.8879 -0.3994
   52MOL   H44839310   6.008   6.789   0.920 -0.3706  0.8871  0.5906
   52MOL   H44939311   5.916   6.594   0.702 -0.6382  0.1931 -0.1733
   52MOL   H45039312   5.965   6.557   0.868  0.5263 -0.8592 -0.8694
   52MOL   H45139313   6.146   6.672   0.630  0.7297 -0.2303 -0.0047
   52MOL   H45239314   6.185   6.672   0.799 -1.2541 -1.3755  2.2153
   52MOL   H45339315   6.162   6.447   0.827  0.8873 -0.6162  0.5168
   52MOL   H45439316   6.109   6.409   0.667 -0.1844  1.0042  0.8513
   52MOL   H45539317   6.386   6.517   0.752 -2.2174 -1.0403  2.8909
   52MOL   H45639318   6.346   6.502   0.577  2.1469 -3.1402 -0.2634
   52MOL   H45739319   6.371   6.294   0.560 -2.2102  0.6675 -0.2068
   52MOL   C45839320   6.419   6.248   0.749 -0.2525 -0.3708 -0.3393
   52MOL   O45939321   6.439   6.290   0.860 -0.2225 -0.1487  0.0741
   52MOL   C46039322   6.445   6.097   0.716  0.6900  0.4078 -0.5524
   52MOL   C46139323   6.572   6.043   0.788 -0.2279  0.1150 -0.6141
   52MOL   C46239324   6.712   6.084   0.734 -0.2479 -0.0326 -0.1310
   52MOL   C46339325   6.809   6.074   0.853  0.1064 -1.0134 -0.0025
   52MOL   C46439326   6.917   6.183   0.854  0.5543  0.1563 -0.9134
   52MOL   O46539327   6.996   6.190   0.756 -0.3001 -0.2147  0.0400
   52MOL   N46639328   6.917   6.261   0.970 -0.2010 -0.1576  0.2141
   52MOL   C46739329   7.004   6.374   0.994 -0.2668 -0.9416  0.3298
   52MOL   C46839330   7.136   6.325   1.045 -0.3401  0.1485 -0.8972
   52MOL   C46939331   7.227   6.438   1.093  0.5270  0.3895  0.3946
   52MOL   C47039332   7.375   6.403   1.120 -0.2891  0.2556  0.1368
   52MOL   C47139333   7.460   6.529   1.158 -0.5242 -0.0459  0.1576
   52MOL   C47239334   7.609   6.504   1.143 -0.1894 -0.2227  0.2653
   52MOL   N47339335   7.658   6.518   1.006 -0.7159  0.1877 -0.2206
   52MOL   H47439336   6.355   6.043   0.746  0.9719  0.4009  0.2988
   52MOL   H47539337   6.435   6.084   0.608  0.9963  2.4973 -0.8545
   52MOL   H47639338   6.554   6.053   0.895 -0.5803  0.6009 -0.7213
   52MOL   H47739339   6.556   5.935   0.784  0.3794  0.0248 -0.7153
   52MOL   H47839340   6.706   6.186   0.695 -1.7229  0.2399  0.7687
   52MOL   H47939341   6.748   6.031   0.646  0.7460  0.4735 -0.0365
   52MOL   H48039342   6.872   5.985   0.844 -0.6592 -1.5604 -0.0614
   52MOL   H48139343   6.750   6.066   0.945  2.0189 -1.4335  1.2042
   52MOL   H48239344   6.845   6.244   1.038 -0.7032  1.3693  0.0712
   52MOL   H48339345   7.014   6.440   0.907  0.4289 -0.1578  0.9968
   52MOL   H48439346   6.960   6.450   1.058 -0.8429  0.7740 -2.0203
   52MOL   H48539347   7.125   6.246   1.118 -0.6461 -1.3994 -2.5911
   52MOL   H48639348   7.185   6.279   0.959  0.1110  0.3596 -0.7595
   52MOL   H48739349   7.193   6.468   1.192  0.8381  1.0914  0.2969
   52MOL   H48839350   7.224   6.523   1.024  1.2513 -0.9274 -1.2964
   52MOL   H48939351   7.387   6.319   1.188 -1.7966 -0.7048 -0.7407
   52MOL   H49039352   7.404   6.371   1.020  0.1891 -0.7659  0.5947
   52MOL   H49139353   7.440   6.622   1.106 -1.4055 -1.0242 -1.2860
   52MOL   H49239354   7.437   6.544   1.264 -3.4534 -1.5499 -0.1973
   52MOL   H49339355   7.632   6.401   1.169  0.0808 -0.1761  0.2166
   52MOL   H49439356   7.660   6.576   1.207  0.6328 -1.6958  1.3088
   52MOL   H49539357   7.596   6.530   0.927  1.1629  0.6076 -1.6668
   52MOL   C49639358   0.080   6.517   0.963  0.5216 -0.9092 -0.6349
   52MOL   O49739359   0.178   6.511   1.039 -0.2062 -0.6843 -0.1214
   52MOL   C49839360   0.092   6.525   0.807  0.0891 -0.4828 -0.1043
   52MOL   C49939361   0.029   6.649   0.738 -0.1850 -0.0756  0.1212
   52MOL   C50039362   7.588   6.632   0.710  0.2949  0.7359 -0.2389
   52MOL   C50139363   7.512   6.758   0.713 -0.0899 -1.2715 -0.3616
   52MOL   C50239364   7.362   6.759   0.724  0.3888  0.1834  0.0188
   52MOL   O50339365   7.293   6.723   0.626 -0.2994  0.1241  0.0017
   52MOL   N50439366   7.311   6.814   0.833  0.2408 -0.1678  0.3817
   52MOL   C50539367   7.169   6.814   0.871 -0.1744  0.0974 -0.6071
   52MOL   C50639368   7.090   6.946   0.842  0.1725 -0.0474 -0.1244
   52MOL   C50739369   6.959   6.943   0.918  0.2814 -0.2609  0.7286
   52MOL   C50839370   6.850   7.041   0.877 -0.0478 -0.3442 -0.4960
   52MOL   C50939371   6.736   7.026   0.984 -0.1763 -0.5724  0.2766
   52MOL   C51039372   6.612   7.111   0.964  0.0546  0.0292  0.8478
   52MOL   N51139373   6.651   7.251   0.993  0.1528 -0.1290 -0.7270
   52MOL   H51239374   0.200   6.535   0.796  0.0030  2.0190  1.1471
   52MOL   H51339375   0.070   6.436   0.747 -0.9837  0.5674 -1.3046
   52MOL   H51439376   0.032   6.722   0.819 -2.9476  1.9908 -1.5411
   52MOL   H51539377   0.086   6.682   0.650 -0.6415 -1.2152 -0.6159
   52MOL   H51639378   7.537   6.561   0.776  0.2337 -0.5708 -1.6533
   52MOL   H51739379   7.570   6.578   0.617  1.2921 -1.9246  1.0385
   52MOL   H51839380   7.520   6.802   0.614 -0.5678  1.0485  0.5788
   52MOL   H51939381   7.551   6.833   0.782 -0.3053  1.0128 -2.6361
   52MOL   H52039382   7.375   6.849   0.904  1.4107 -0.0054 -0.7391
   52MOL   H52139383   7.116   6.732   0.824  1.1695 -2.6309  2.4284
   52MOL   H52239384   7.164   6.789   0.977  2.2879  1.2798 -0.1661
   52MOL   H52339385   7.146   7.036   0.864  2.3346 -0.9131 -1.9355
   52MOL   H52439386   7.080   6.953   0.734  2.3838  0.3080 -0.3213
   52MOL   H52539387   6.981   6.967   1.023  0.2396 -1.2667  0.9684
   52MOL   H52639388   6.914   6.844   0.923 -3.7928  1.1129 -4.4667
   52MOL   H52739389   6.891   7.141   0.866 -0.6481 -0.0632 -0.2111
   52MOL   H52839390   6.816   7.009   0.778 -0.4819  0.1822 -0.5184
   52MOL   H52939391   6.706   6.923   0.965 -1.4417 -0.3347  0.9332
   52MOL   H53039392   6.775   7.030   1.086 -0.8191  0.9695  0.4615
   52MOL   H53139393   6.545   7.076   1.042 -0.5535 -2.0325 -0.5414
   52MOL   H53239394   6.570   7.110   0.863 -3.4438 -0.3597  2.2319
   52MOL   H53339395   6.672   7.302   0.909  1.0478 -0.9972 -1.0350
   52MOL   C53439396   6.618   7.326   1.103 -0.4911  0.5194 -0.1075
   52MOL   O53539397   6.573   7.268   1.201  0.6710 -0.1179 -0.1535
   52MOL   C53639398   6.656   7.476   1.106  0.1602  0.3408 -0.3013
   52MOL   C53739399   6.736   7.523   1.234 -0.6091  0.2821 -0.2907
   52MOL   C53839400   6.882   7.559   1.203 -0.0691  0.0275 -0.9159
   52MOL   C53939401   6.970   7.602   1.322  0.4238  0.2896 -0.5446
   52MOL   C54039402   7.110   7.542   1.330  0.1374  0.4650 -0.1842
   52MOL   O54139403   7.124   7.444   1.409 -0.9644 -0.5268  0.3313
   52MOL   N54239404   7.210   7.603   1.264  0.1249  0.1127 -0.4651
   52MOL   C54339405   7.350   7.577   1.270  0.5489  0.5226  0.5525
   52MOL   C54439406   7.419   7.653   1.386  0.9356  0.5486 -0.0909
   52MOL   C54539407   7.392   0.090   1.384  0.3439 -0.4405  0.8847
   52MOL   C54639408   7.477   0.158   1.489 -0.3478 -0.3389 -0.9314
   52MOL   C54739409   7.474   0.313   1.476 -0.2819 -0.1188  0.1152
   52MOL   C54839410   7.536   0.376   1.598 -0.2632  0.1257  0.0251
   52MOL   N54939411   7.542   0.515   1.580 -0.5896 -0.4995  0.0493
   52MOL   H55039412   6.708   7.505   1.015 -0.4392  0.8012 -0.4978
   52MOL   H55139413   6.566   7.536   1.094  0.5958  1.0745  0.1159
   52MOL   H55239414   6.683   7.610   1.273 -1.3181  0.6812 -2.1176
   52MOL   H55339415   6.741   7.438   1.303  0.5761 -0.7887 -1.6525
   52MOL   H55439416   6.894   7.638   1.129 -3.1412 -0.2875 -1.7905
   52MOL   H55539417   6.928   7.470   1.159  1.5532  1.3796 -2.0476
   52MOL   H55639418   6.918   7.586   1.416  0.3438  2.9787 -0.0962
   52MOL   H55739419   6.983   0.002   1.321 -0.4208  0.3940 -0.5121
   52MOL   H55839420   7.189   7.674   1.194 -0.6231  0.2474 -0.1169
   52MOL   H55939421   7.370   7.470   1.262 -0.2975  0.4754 -1.1234
   52MOL   H56039422   7.384   7.620   1.176  0.5897 -0.3964  0.1375
   52MOL   H56139423   7.377   7.610   1.477  0.0027  1.1720 -0.2239
   52MOL   H56239424   7.526   7.630   1.386  0.6115 -0.9930 -0.4004
   52MOL   H56339425   7.287   0.118   1.375  0.4023 -0.1856  0.9982
   52MOL   H56439426   7.442   0.126   1.294  0.9813  0.4006  1.5672
   52MOL   H56539427   7.437   0.115   1.582  0.0046 -1.0398 -1.1024
   52MOL   H56639428   7.583   0.140   1.473  0.9627  4.4236  1.3129
   52MOL   H56739429   7.539   0.354   1.399 -0.5295 -0.0991 -0.0843
   52MOL   H56839430   7.370   0.344   1.465 -0.1149  1.0619  1.7174
   52MOL   H56939431   7.635   0.335   1.616 -0.3313  0.0834  0.3008
   52MOL   H57039432   7.476   0.345   1.684 -0.0529 -0.6696 -0.1196
   52MOL   H57139433   7.565   0.553   1.490  2.1939 -1.4659  0.3347
   52MOL   C57239434   7.534   0.605   1.677 -0.6458  0.1070  0.1668
   52MOL   O57339435   7.518   0.585   1.794 -0.0565  0.7137 -0.2036
   52MOL   C57439436   7.543   0.754   1.633 -0.0761 -0.2848  0.3710
   52MOL   C57539437   7.677   0.814   1.670 -0.0797  0.3189 -0.2673
   52MOL   C57639438   7.666   0.963   1.665 -0.1317 -0.1747 -0.0059
   52MOL   C57739439   7.589   1.031   1.783 -0.4057  0.7313 -0.3309
   52MOL   C57839440   7.667   1.053   1.914  0.5337 -0.7433  0.2943
   52MOL   O57939441   0.053   1.133   1.917 -0.3035 -0.2631 -0.0348
   52MOL   N58039442   7.647   0.965   2.013  0.6183  0.4109 -0.5619
   52MOL   C58139443   0.035   0.946   2.123 -0.6713  0.3757 -0.0526
   52MOL   C58239444   7.672   0.925   2.262  0.2288 -0.2920  0.0412
   52MOL   C58339445   7.628   1.062   2.313  0.3615 -0.6190 -1.2407
   52MOL   C58439446   7.566   1.054   2.451  0.1130 -0.0157 -0.5676
   52MOL   C58539447   7.515   1.194   2.500 -0.0272  0.1732  0.2279
   52MOL   C58639448   7.388   1.246   2.425 -0.0271  0.2800  0.0866
   52MOL   N58739449   7.352   1.371   2.487  0.1940 -0.9984  0.4943
   52MOL   H58839450   7.516   0.765   1.527 -0.5312  0.3280  0.5447
   52MOL   H58939451   7.456   0.794   1.684  0.1763  0.5508  0.1457
   52MOL   H59039452   0.001   0.777   1.768 -0.1790 -0.5604 -0.5670
   52MOL   H59139453   0.035   0.770   1.596  0.3658  2.0171 -0.8952
   52MOL   H59239454   7.615   0.998   1.575 -2.3214 -0.6759  1.0093
   52MOL   H59339455   0.062   0.993   1.682 -0.6879  1.8231 -0.0127
   52MOL   H59439456   7.491   0.990   1.805  0.1449  0.0157  0.8748
   52MOL   H59539457   7.558   1.133   1.759 -0.1486  1.1323  0.9562
   52MOL   H59639458   7.570   0.900   2.003  1.5696 -0.8476  0.1930
   52MOL   H59739459   0.094   0.858   2.097  1.4568  2.0269 -0.9137
   52MOL   H59839460   0.110   1.025   2.124 -1.7119  1.3972  1.9284
   52MOL   H59939461   7.591   0.855   2.244 -0.0017  0.0854 -0.4156
   52MOL   H60039462   0.041   0.878   2.323  1.7291 -0.6270 -2.0637
   52MOL   H60139463   7.570   1.119   2.240 -1.4966  1.6183  1.8678
   52MOL   H60239464   0.012   1.121   2.317  0.2468 -0.4673 -0.8139
   52MOL   H60339465   7.487   0.979   2.447  1.1885 -1.1030 -1.9096
   52MOL   H60439466   7.629   1.006   2.526  0.7502  0.4781 -0.7817
   52MOL   H60539467   7.490   1.191   2.606 -0.3029  1.2849  0.1956
   52MOL   H60639468   7.600   1.262   2.500  0.6350 -0.6319 -0.5738
   52MOL   H60739469   7.305   1.177   2.434 -1.4450  2.1794  2.2496
   52MOL   H60839470   7.413   1.268   2.321 -0.4800  0.4703  0.0189
   52MOL   H60939471   7.293   1.362   2.568  1.8215 -2.2496  1.5575
   52MOL   C61039472   7.378   1.500   2.458  0.1714 -0.7436  0.2102
   52MOL   O61139473   7.440   1.543   2.356  0.2932 -0.4903 -0.0252
   52MOL   C61239474   7.327   1.593   2.561  0.3458  0.8307  0.2374
   52MOL   C61339475   7.254   1.709   2.511  0.1691 -0.0585 -0.7738
   52MOL   C61439476   7.114   1.672   2.444 -0.4255  0.3386 -0.1351
   52MOL   C61539477   7.004   1.781   2.445  0.5190 -0.0656  0.3064
   52MOL   C61639478   7.037   1.900   2.358 -0.4775 -0.1999  0.0078
   52MOL   O61739479   7.068   1.892   2.240  0.0703  0.9547 -0.1932
   52MOL   N61839480   7.037   2.018   2.415 -0.0381  0.0390  0.5219
   52MOL   C61939481   7.091   2.134   2.353 -0.0490 -0.1230  0.0312
   52MOL   C62039482   7.235   2.162   2.405  1.0517 -0.5597  0.0558
   52MOL   C62139483   7.260   2.143   2.554  0.0878 -0.3430 -0.5911
   52MOL   C62239484   7.392   2.086   2.595 -0.2731 -1.1265 -0.2016
   52MOL   C62339485   7.432   2.103   2.738  0.2816 -0.1251 -0.0007
   52MOL   C62439486   7.354   2.008   2.834  0.1937 -0.2339  0.4394
   52MOL   N62539487   7.370   2.048   2.975  0.1070 -0.6736 -0.5389
   52MOL   H62639488   7.267   1.540   2.635  3.1764  2.3672  3.8421
   52MOL   H62739489   7.416   1.619   2.618 -0.6407  0.3307  2.0552
   52MOL   H62839490   7.232   1.765   2.603  2.0850  1.0675 -0.9632
   52MOL   H62939491   7.299   1.780   2.442 -1.9305  1.3330 -0.7607
   52MOL   H63039492   7.081   1.576   2.483  1.6105 -0.6655 -0.8162
   52MOL   H63139493   7.126   1.658   2.336 -0.0345 -0.3077 -0.0138
   52MOL   H63239494   6.980   1.806   2.549 -0.7004  1.7824 -0.3955
   52MOL   H63339495   6.905   1.747   2.412  0.0655  1.0591  0.4956
   52MOL   H63439496   7.022   2.018   2.515 -0.9545  3.3314  0.4495
   52MOL   H63539497   7.084   2.130   2.244 -0.8322 -2.3706  0.1368
   52MOL   H63639498   7.030   2.218   2.385 -0.1252 -0.2054  0.1021
   52MOL   H63739499   7.304   2.098   2.349  1.6827  2.4442 -2.7447
   52MOL   H63839500   7.260   2.262   2.369 -0.5300  0.0196  0.5352
   52MOL   H63939501   7.181   2.084   2.600  0.0831  0.3367  0.2780
   52MOL   H64039502   7.251   2.231   2.618  2.6446 -1.5669  1.5607
   52MOL   H64139503   7.401   1.986   2.555 -0.7200 -1.3803  0.3266
   52MOL   H64239504   7.455   2.145   2.528 -0.6757 -1.3439 -0.7765
   52MOL   H64339505   7.535   2.071   2.754  0.9372  1.5274 -0.7780
   52MOL   H64439506   7.425   2.208   2.768 -1.1848 -0.6721  1.6485
   52MOL   H64539507   7.399   1.909   2.829  0.6756 -0.0112  0.3697
   52MOL   H64639508   7.247   2.001   2.813  0.3158  0.6197 -0.5226
   52MOL   H64739509   7.453   2.100   2.997 -0.0371 -0.7570  0.2195
   52MOL   C64839510   7.284   2.022   3.079  0.6431 -0.9516  0.6159
   52MOL   O64939511   7.178   1.967   3.057 -0.5548 -0.6948  0.1930
   52MOL   C65039512   7.327   2.068   3.218  0.0848  0.2876  0.1910
   52MOL   C65139513   7.227   2.166   3.279 -0.1191  1.0769 -0.1608
   52MOL   C65239514   7.182   2.285   3.190  0.9930 -0.2805 -0.4791
   52MOL   C65339515   7.285   2.398   3.150  0.2005 -0.3557 -0.0518
   52MOL   C65439516   7.374   2.433   3.266  0.5769 -0.1945 -0.2492
   52MOL   O65539517   7.331   2.507   3.352  0.4082 -0.7522 -0.0360
   52MOL   N65639518   7.492   2.379   3.260  0.3084  0.4165 -0.2072
   52MOL   C65739519   7.596   2.376   3.360  0.5665 -0.5349 -0.1157
   52MOL   C65839520   7.696   2.499   3.352  0.3201 -0.1341  0.1451
   52MOL   C65939521   0.091   2.497   3.469  0.1835  0.1924  0.3568
   52MOL   C66039522   0.194   2.606   3.448 -0.3738  0.8346  0.4918
   52MOL   C66139523   0.299   2.575   3.335 -0.3603  0.2888  0.8170
   52MOL   C66239524   0.424   2.663   3.320 -0.1649 -0.3763  0.4242
   52MOL   N66339525   0.464   2.698   3.460 -0.2804  0.0847 -0.2585
   52MOL   H66439526   7.349   1.978   3.276  0.3253  0.7094  0.7535
   52MOL   H66539527   7.426   2.112   3.211 -0.4519  1.4773 -0.0056
   52MOL   H66639528   7.138   2.108   3.304 -0.8073  1.2603 -2.0713
   52MOL   H66739529   7.253   2.204   3.377  2.1216 -0.7342 -0.0056
   52MOL   H66839530   7.098   2.343   3.229 -1.2260 -3.1558 -0.8997
   52MOL   H66939531   7.147   2.238   3.099 -3.7997 -0.1865  1.1759
   52MOL   H67039532   7.227   2.486   3.120 -1.4562 -1.2904  0.3316
   52MOL   H67139533   7.335   2.366   3.059 -1.3348 -2.0928 -0.3299
   52MOL   H67239534   7.513   2.328   3.175  4.2278 -0.6075  1.2512
   52MOL   H67339535   7.558   2.373   3.462  0.8194 -0.7312 -0.0255
   52MOL   H67439536   7.657   2.288   3.337 -0.1981 -0.7673 -1.2482
   52MOL   H67539537   0.040   2.489   3.256 -0.1670 -0.6830 -0.0674
   52MOL   H67639538   7.643   2.594   3.356  2.0552  0.7937  2.0198
   52MOL   H67739539   0.129   2.395   3.470  1.7882  0.7830  1.2920
   52MOL   H67839540   0.031   2.504   3.560 -0.6182  1.8992 -0.2675
   52MOL   H67939541   0.139   2.690   3.407  1.3791  1.4266 -0.7206
   52MOL   H68039542   0.228   2.638   3.546 -1.6763  0.4417  1.0877
   52MOL   H68139543   0.326   2.470   3.348 -0.2104  0.4936  2.2820
   52MOL   H68239544   0.255   2.585   3.236  0.3740  3.0620  0.7311
   52MOL   H68339545   0.397   2.752   3.264 -2.2457 -1.3030 -0.0715
   52MOL   H68439546   0.500   2.616   3.258 -1.4375 -2.3479  0.3231
   52MOL   H68539547   0.419   2.780   3.499  0.4493  0.1958  0.3813
   52MOL   C68639548   0.530   2.610   3.541  0.0084 -0.1787 -0.5148
   52MOL   O68739549   0.574   2.507   3.497  0.2989 -0.4674 -0.8289
   52MOL   C68839550   0.562   2.647   3.683  0.5299 -0.4124  0.2212
   52MOL   C68939551   0.666   2.560   3.758 -0.0926  1.2042  0.0894
   52MOL   C69039552   0.666   2.593   3.914  0.0109  0.3192  0.3069
   52MOL   C69139553   0.749   2.718   3.938 -0.1183 -0.1814 -0.4567
   52MOL   C69239554   0.710   2.784   4.074 -0.0486 -0.0714  0.3735
   52MOL   O69339555   0.637   2.729   4.154 -0.0092 -0.0461  0.3193
   52MOL   N69439556   0.760   2.901   4.098 -0.1841  0.4222 -0.1933
   52MOL   C69539557   0.731   2.992   4.214 -0.2189  0.1093  0.5417
   52MOL   C69639558   0.743   3.145   4.175  0.2315 -0.2678  0.8742
   52MOL   C69739559   0.677   3.226   4.293 -0.9413  0.0057  0.0532
   52MOL   C69839560   0.688   3.376   4.271  0.4338  0.1393 -0.1477
   52MOL   C69939561   0.808   3.439   4.341 -0.1357 -0.0935 -0.4768
   52MOL   C70039562   0.814   3.585   4.314  0.3144  0.5849  0.2733
   52MOL   N70139563   0.845   3.595   4.174 -0.0684 -0.3914  0.4853
   52MOL   H70239564   0.598   2.750   3.682 -0.0612 -0.1938  1.1669
   52MOL   H70339565   0.468   2.646   3.737 -0.7401 -0.6031 -1.9271
   52MOL   H70439566   0.641   2.454   3.755 -1.2291  1.4824 -0.5506
   52MOL   H70539567   0.766   2.570   3.715  0.4527 -1.0559  0.7416
   52MOL   H70639568   0.700   2.507   3.971  0.1380 -1.5404 -2.4690
   52MOL   H70739569   0.565   2.603   3.952 -0.3343 -1.2376 -0.1814
   52MOL   H70839570   0.727   2.795   3.865 -0.7405 -0.3762 -0.4723
   52MOL   H70939571   0.856   2.696   3.927  0.2889  0.3727  2.0773
   52MOL   H71039572   0.821   2.938   4.027  0.1975 -0.6379 -0.4271
   52MOL   H71139573   0.626   2.980   4.239 -0.4424 -0.2212 -0.5409
   52MOL   H71239574   0.799   2.967   4.296  1.3358  0.1314 -0.7149
   52MOL   H71339575   0.845   3.182   4.157 -0.9115  2.1321 -1.0543
   52MOL   H71439576   0.678   3.171   4.091  0.3714  0.2885  0.9326
   52MOL   H71539577   0.708   3.205   4.396 -2.4277  0.4714  0.6013
   52MOL   H71639578   0.574   3.194   4.307 -1.4142  1.2800 -0.4595
   52MOL   H71739579   0.707   3.398   4.167 -1.8767  0.3573 -0.5564
   52MOL   H71839580   0.591   3.422   4.292 -1.5386 -3.2551 -1.4306
   52MOL   H71939581   0.776   3.431   4.445  1.8520  0.3365  0.1848
   52MOL   H72039582   0.893   3.374   4.322 -0.2804 -0.3390 -0.2802
   52MOL   H72139583   0.890   3.636   4.372 -0.4568  0.8235  1.0809
   52MOL   H72239584   0.721   3.638   4.334  0.5722  0.5631  1.5453
   52MOL   H72339585   0.856   3.512   4.118  1.3920  1.0522 -1.4336
   52MOL   C72439586   0.894   3.699   4.115 -0.7014 -0.9865  0.4119
   52MOL   O72539587   0.889   3.806   4.173  0.3377  0.2754  0.1731
   52MOL   C72639588   0.954   3.691   3.978  0.0981  0.5119  0.9481
   52MOL   C72739589   1.056   3.796   3.936 -0.2569 -1.1281  0.2744
   52MOL   C72839590   0.997   3.933   3.884  0.8991 -0.0905 -0.6423
   52MOL   C72939591   0.915   3.914   3.752  0.0838 -0.0590  0.3230
   52MOL   C73039592   0.884   4.041   3.668  0.2211 -0.3727 -0.3085
   52MOL   O73139593   0.888   4.153   3.714 -0.4628  0.4357 -0.2045
   52MOL   N73239594   0.870   4.018   3.535 -0.0998  0.9543  0.5554
   52MOL   C73339595   0.852   4.121   3.433 -0.2415 -0.2770  0.7025
   52MOL   C73439596   0.748   4.086   3.320 -0.3399 -0.8180  0.7970
   52MOL   C73539597   0.754   4.177   3.191 -0.6760  0.2815 -0.5775
   52MOL   C73639598   0.659   4.140   3.077  0.7203  0.2830  0.3340
   52MOL   C73739599   0.670   4.235   2.955  0.4076 -0.5187 -0.6569
   52MOL   C73839600   0.566   4.185   2.858  0.3497 -0.1460 -0.1818
   52MOL   N73939601   0.501   4.300   2.799 -0.1890 -0.2934  0.0807
   52MOL   H74039602   0.999   3.592   3.982 -4.4540 -1.6797  1.0018
   52MOL   H74139603   0.886   3.688   3.893 -0.1562  1.1012  1.1275
   52MOL   H74239604   1.121   3.821   4.020 -0.1686  0.0647 -0.1331
   52MOL   H74339605   1.129   3.768   3.861 -0.5145 -1.7796  0.2615
   52MOL   H74439606   1.074   4.009   3.877  1.7796 -0.9678 -0.5898
   52MOL   H74539607   0.938   3.978   3.965  3.5699 -1.5447  2.2436
   52MOL   H74639608   0.825   3.852   3.760 -1.5129  2.1592  0.0276
   52MOL   H74739609   0.969   3.845   3.686  1.9909  0.7007  1.0799
   52MOL   H74839610   0.857   3.922   3.504 -2.0002  0.8069  1.7095
   52MOL   H74939611   0.822   4.216   3.476 -1.1868  0.4350 -1.4385
   52MOL   H75039612   0.940   4.118   3.369  0.7460  0.7231  1.9899
   52MOL   H75139613   0.758   3.983   3.288 -2.8155 -1.1408  0.9869
   52MOL   H75239614   0.653   4.092   3.373  0.2359 -1.9165  1.9609
   52MOL   H75339615   0.856   4.173   3.152 -0.4204  0.5706  0.0399
   52MOL   H75439616   0.742   4.281   3.224  0.3532 -0.0163  0.7726
   52MOL   H75539617   0.671   4.037   3.043  0.9115  0.8266 -1.2907
   52MOL   H75639618   0.557   4.139   3.116 -0.1892 -2.0202 -1.9867
   52MOL   H75739619   0.654   4.334   2.998  0.8412 -0.0784 -1.5066
   52MOL   H75839620   0.760   4.232   2.894 -0.1544 -1.7559 -1.4507
   52MOL   H75939621   0.502   4.113   2.909  0.7046  0.1238  0.6424
   52MOL   H76039622   0.611   4.125   2.779 -0.3178  1.2641 -1.6774
   52MOL   H76139623   0.453   4.269   2.716 -1.7230  0.4665  0.6693
   52MOL   H76239624   0.429   4.311   2.869  1.5206 -0.3133  1.8889
   53MOL     C139625   0.256   0.269   4.795  0.6073  0.3449  0.9278
   53MOL     O239626   0.241   0.144   4.810 -0.6485 -0.0009 -0.5489
   53MOL     C339627   0.127   0.359   4.772  0.3529  0.1663 -0.8857
   53MOL     C439628   0.004   0.274   4.713 -0.0028 -0.3163 -0.5817
   53MOL     C539629   7.578   0.359   4.717 -0.1629 -0.0279 -0.3746
   53MOL     C639630   7.584   0.509   4.681  0.0029 -0.0187 -0.0749
   53MOL     C739631   7.635   0.607   4.784  0.1319 -0.3408 -1.2335
   53MOL     O839632   7.596   0.603   4.902 -0.3764 -0.3432  0.0426
   53MOL     N939633   0.004   0.706   4.737 -0.0786 -0.8481  0.0216
   53MOL    C1039634   0.062   0.826   4.809  0.3954  0.2337  0.2446
   53MOL    C1139635   0.041   0.947   4.714 -0.1264  0.2348 -0.4134
   53MOL    C1239636   7.607   0.977   4.686  0.5453  0.1200 -0.2583
   53MOL    C1339637   7.600   1.069   4.563  0.1029 -0.0622 -0.1875
   53MOL    C1439638   7.452   1.116   4.531 -0.0834  0.8504  0.0846
   53MOL    C1539639   7.446   1.226   4.417  0.9950  0.0593 -1.4067
   53MOL    N1639640   7.311   1.290   4.415 -0.4922  0.4308  0.1144
   53MOL    H1739641   0.104   0.420   4.859 -1.2210  0.2960 -1.3614
   53MOL    H1839642   0.147   0.425   4.688 -2.7152  0.5552 -1.3892
   53MOL    H1939643   0.024   0.250   4.609 -1.1184  0.2071 -0.9308
   53MOL    H2039644   7.690   0.183   4.768 -1.9525  0.1371 -0.5855
   53MOL    H2139645   7.552   0.350   4.822  0.2473 -1.5009 -0.3891
   53MOL    H2239646   7.496   0.314   4.661 -0.4199  1.4012 -1.1682
   53MOL    H2339647   7.480   0.532   4.657 -0.1633  0.4999  1.1054
   53MOL    H2439648   7.631   0.528   4.584  1.8039  0.5712  0.8983
   53MOL    H2539649   0.035   0.699   4.642  0.2195  3.1446 -0.2672
   53MOL    H2639650   0.032   0.844   4.912  0.4154 -1.6999  0.6053
   53MOL    H2739651   0.170   0.814   4.814  0.7570  2.4006 -1.6867
   53MOL    H2839652   0.095   1.036   4.745  1.1112 -0.8321  0.5369
   53MOL    H2939653   0.088   0.921   4.619  1.4869  1.0938  0.1354
   53MOL    H3039654   7.559   1.021   4.773  2.1655 -0.3181  0.8785
   53MOL    H3139655   7.545   0.891   4.660 -1.2108  1.5238 -0.7770
   53MOL    H3239656   7.653   1.162   4.581  0.4176  0.1015 -1.8788
   53MOL    H3339657   7.631   1.030   4.465  0.1394  0.4081 -0.3624
   53MOL    H3439658   7.385   1.032   4.512  2.0730 -1.1190  0.9738
   53MOL    H3539659   7.407   1.152   4.624 -1.0710  0.2546 -0.1512
   53MOL    H3639660   7.459   1.188   4.316 -2.7936 -0.6942 -1.6609
   53MOL    H3739661   7.521   1.303   4.434  1.7763 -1.1562  0.9646
   53MOL    H3839662   7.238   1.246   4.469  2.1458 -2.4575  1.4895
   53MOL    H3939663   0.352   0.320   4.786  0.6204 -0.0809 -2.0066
   53MOL    C4039664   7.281   1.403   4.349  0.5421  0.3580 -0.4180
   53MOL    O4139665   7.358   1.458   4.268 -0.3524  0.7908  0.1253
   53MOL    C4239666   7.135   1.448   4.370  0.2890 -0.5580 -0.3709
   53MOL    C4339667   7.145   1.568   4.462 -0.0310 -0.2951  0.1038
   53MOL    C4439668   7.183   1.531   4.607  0.5651 -0.1390  0.4370
   53MOL    C4539669   7.092   1.424   4.690  0.5139  0.5271 -0.6486
   53MOL    C4639670   7.133   1.415   4.834 -0.0823 -0.0546 -1.0372
   53MOL    O4739671   7.095   1.503   4.918  0.2593  0.9077  0.3411
   53MOL    N4839672   7.195   1.302   4.870 -0.5537 -0.4080 -0.0706
   53MOL    C4939673   7.254   1.283   5.003  0.6799 -0.5420 -0.2017
   53MOL    C5039674   7.383   1.203   4.975 -0.4858 -0.7036 -0.1025
   53MOL    C5139675   7.469   1.198   5.100  0.3863 -0.3401 -0.2956
   53MOL    C5239676   7.588   1.113   5.085  0.4257  0.5064  0.0986
   53MOL    C5339677   7.697   1.131   5.191 -0.2901  0.3379 -0.1422
   53MOL    C5439678   0.109   1.042   5.158 -1.0671  0.7848  0.0265
   53MOL    N5539679   0.227   1.066   5.242  0.6327  0.0108 -0.0579
   53MOL    H5639680   7.113   1.486   4.270  1.4152  2.0443  0.3236
   53MOL    H5739681   7.061   1.374   4.400 -0.0978  0.6841  1.8571
   53MOL    H5839682   7.221   1.636   4.425  0.3940 -1.5951 -1.4407
   53MOL    H5939683   7.054   1.627   4.453 -0.4696 -1.0115 -0.1871
   53MOL    H6039684   7.202   1.626   4.658 -0.0774 -0.3175  1.0206
   53MOL    H6139685   7.283   1.488   4.603  1.0449  1.0112 -0.1562
   53MOL    H6239686   7.085   1.325   4.645  0.3228  1.4534 -2.7282
   53MOL    H6339687   6.991   1.458   4.668  0.3456 -0.2299 -1.0646
   53MOL    H6439688   7.195   1.229   4.801 -0.7624  0.3287 -0.8619
   53MOL    H6539689   7.276   1.380   5.049  0.7848 -0.4284 -0.4938
   53MOL    H6639690   7.182   1.223   5.059  0.5716  0.4931  0.7953
   53MOL    H6739691   7.365   1.102   4.941 -2.4388 -0.7143  0.8630
   53MOL    H6839692   7.447   1.252   4.901  1.2602  2.4426  3.2800
   53MOL    H6939693   7.410   1.156   5.182  0.3231  0.4375  0.0565
   53MOL    H7039694   7.490   1.299   5.134 -1.0401  0.0726 -0.5824
   53MOL    H7139695   7.554   1.012   5.105  0.1606  0.5341 -0.2073
   53MOL    H7239696   7.636   1.113   4.987  0.0576 -2.0269 -0.1108
   53MOL    H7339697   0.039   1.225   5.167  0.9648 -0.4227 -0.5478
   53MOL    H7439698   7.661   1.124   5.294 -0.9244  2.9425 -0.1401
   53MOL    H7539699   0.136   1.048   5.052  3.3583  1.4146  1.0857
   53MOL    H7639700   0.093   0.934   5.169  0.4840  0.7614  2.5539
   53MOL    H7739701   0.312   1.094   5.195  0.3106 -2.5437 -2.2705
   53MOL    C7839702   0.242   1.026   5.367  0.1134 -0.2147  0.2975
   53MOL    O7939703   0.146   0.990   5.434 -0.2809  0.6793 -0.2809
   53MOL    C8039704   0.379   1.019   5.425 -0.9155  0.0839 -0.0905
   53MOL    C8139705   0.429   0.872   5.454 -0.6146  0.1709 -0.1507
   53MOL    C8239706   0.373   0.819   5.593 -0.1764  0.2049  0.0981
   53MOL    C8339707   0.432   0.675   5.627 -0.2684  0.0925  0.4424
   53MOL    C8439708   0.354   0.573   5.544 -0.3148  0.3061  0.7342
   53MOL    O8539709   0.356   0.580   5.422 -0.2173  0.1383 -0.1212
   53MOL    N8639710   0.298   0.462   5.598 -0.0767 -0.1398  0.4515
   53MOL    C8739711   0.213   0.369   5.521  0.2158  0.4511 -0.0881
   53MOL    C8839712   0.149   0.270   5.613 -0.3854 -0.6131  0.2072
   53MOL    C8939713   0.025   0.214   5.546  0.0562 -0.5257 -0.0693
   53MOL    C9039714   7.630   0.161   5.648  0.3670 -0.6203  0.0418
   53MOL    C9139715   7.680   0.035   5.722  0.1470 -0.2444  0.0781
   53MOL    C9239716   7.597   7.702   5.850  0.1445 -0.1934  0.2800
   53MOL    N9339717   7.661   7.572   5.903  0.4787  0.3821 -0.6372
   53MOL    H9439718   0.451   1.053   5.350 -0.6310 -2.4104 -0.9859
   53MOL    H9539719   0.390   1.080   5.515  0.6426 -0.5365  0.1501
   53MOL    H9639720   0.397   0.811   5.369 -1.8836  0.1284  0.3576
   53MOL    H9739721   0.538   0.885   5.457 -0.5423 -0.7473  1.3192
   53MOL    H9839722   0.265   0.808   5.587 -0.1690 -0.6065  1.1868
   53MOL    H9939723   0.383   0.890   5.676  4.3660 -1.0170  0.7467
   53MOL   H10039724   0.407   0.648   5.730  0.1272 -2.3056 -0.0472
   53MOL   H10139725   0.541   0.671   5.617 -0.4933  0.1429 -2.3759
   53MOL   H10239726   0.304   0.438   5.696 -2.7009  2.8892  1.4205
   53MOL   H10339727   0.138   0.420   5.461  0.2409  0.3219 -0.2276
   53MOL   H10439728   0.262   0.318   5.439  0.0733  0.4043 -0.1428
   53MOL   H10539729   0.226   0.194   5.629 -1.0662 -1.0662  1.3680
   53MOL   H10639730   0.139   0.308   5.714  0.8931 -0.5932  0.3402
   53MOL   H10739731   0.051   0.129   5.481 -2.9674 -0.4659 -1.4418
   53MOL   H10839732   7.695   0.277   5.465  2.5721  0.0685 -0.8487
   53MOL   H10939733   7.599   0.238   5.720  3.4108  2.6325 -1.9970
   53MOL   H11039734   7.537   0.154   5.591  0.1242  0.4900  0.2714
   53MOL   H11139735   7.684   7.668   5.643 -0.8883  0.7285 -0.9139
   53MOL   H11239736   0.074   0.032   5.759  0.5589 -1.9061 -1.1202
   53MOL   H11339737   7.493   7.680   5.822 -0.6028 -0.0625  2.8403
   53MOL   H11439738   7.619   0.066   5.928  1.8779  0.8249 -1.1370
   53MOL   H11539739   7.647   7.485   5.853  2.8156 -0.1417 -0.4163
   53MOL   C11639740   0.030   7.569   6.013 -1.0355 -0.1605 -0.4348
   53MOL   O11739741   0.052   7.673   6.072 -0.2993 -0.3306 -0.0524
   53MOL   C11839742   0.072   7.431   6.069  0.2186 -0.2569  0.1616
   53MOL   C11939743   7.684   7.387   6.176  0.8565 -0.2216 -0.5054
   53MOL   C12039744   7.674   7.483   6.291 -0.1707 -0.0845 -0.7334
   53MOL   C12139745   7.595   7.429   6.422  0.5113  0.8739  0.3748
   53MOL   C12239746   7.678   7.330   6.512 -0.1055  0.1080  0.3078
   53MOL   O12339747   0.091   7.338   6.497  0.0213  0.0860 -0.0878
   53MOL   N12439748   7.611   7.244   6.591  0.1749 -0.2285 -0.8250
   53MOL   C12539749   7.666   7.138   6.674 -0.1714 -0.4823 -0.0180
   53MOL   C12639750   0.015   7.027   6.582 -0.5003 -0.4380 -0.0632
   53MOL   C12739751   0.041   6.906   6.666  0.2011 -0.4762  0.2206
   53MOL   C12839752   0.141   6.808   6.601 -1.0570  0.4423  0.0061
   53MOL   C12939753   0.170   6.695   6.701 -0.3474 -0.0204  1.0293
   53MOL   C13039754   0.067   6.584   6.727  0.3530 -0.3445 -0.2932
   53MOL   N13139755   0.094   6.529   6.857 -0.3856 -0.4352  0.5083
   53MOL   H13239756   0.069   7.361   5.985 -1.0324 -0.8176  0.6549
   53MOL   H13339757   0.178   7.437   6.092  0.6524 -0.5243 -1.6730
   53MOL   H13439758   7.585   7.375   6.130  0.8323  0.6642 -0.6933
   53MOL   H13539759   0.004   7.290   6.216  0.9257  0.3483  0.8598
   53MOL   H13639760   7.631   7.578   6.258 -1.7350 -0.5097  0.0064
   53MOL   H13739761   0.064   7.509   6.329 -0.0995 -1.8210  0.3091
   53MOL   H13839762   7.496   7.385   6.409  1.2608 -0.3875 -1.3843
   53MOL   H13939763   7.586   7.516   6.487 -1.1337  1.1963 -0.2647
   53MOL   H14039764   7.511   7.258   6.592 -0.1548 -2.4395  0.5985
   53MOL   H14139765   0.033   7.174   6.745  1.6222 -1.7678 -1.2150
   53MOL   H14239766   7.582   7.097   6.731  1.7552 -3.3644  0.8484
   53MOL   H14339767   7.659   7.001   6.498  0.9930 -1.7879 -0.8391
   53MOL   H14439768   0.103   7.072   6.537  0.5110 -0.3773  1.9115
   53MOL   H14539769   7.666   6.849   6.706 -2.1428  1.0673 -2.3144
   53MOL   H14639770   0.100   6.952   6.746  1.3085 -0.4335 -0.6024
   53MOL   H14739771   0.110   6.771   6.503  1.3677  2.8854 -1.7840
   53MOL   H14839772   0.229   6.869   6.580  0.3430 -0.7107  2.3032
   53MOL   H14939773   0.267   6.647   6.682  0.2472  1.5637 -0.0642
   53MOL   H15039774   0.185   6.748   6.794  0.2302  1.7605 -0.0565
   53MOL   H15139775   0.076   6.506   6.651  0.3724 -2.6735  2.0593
   53MOL   H15239776   7.670   6.611   6.725  0.3982 -0.0972  0.6668
   53MOL   H15339777   0.047   6.574   6.934 -2.4931 -0.0027 -0.9713
   53MOL   C15439778   0.155   6.412   6.884 -0.3310  0.9778 -0.4345
   53MOL   O15539779   0.198   6.340   6.800  0.4009  0.5348  0.0275
   53MOL   C15639780   0.157   6.378   7.035 -0.5040  0.6260 -0.1337
   53MOL   C15739781   0.222   6.238   7.063 -0.3053  0.6354  0.1817
   53MOL   C15839782   0.203   6.182   7.207  0.4394 -0.7507  0.4120
   53MOL   C15939783   0.281   6.054   7.248 -0.0741  0.3600  0.7381
   53MOL   C16039784   0.409   6.053   7.339 -0.0033  0.3526  1.1522
   53MOL   O16139785   0.518   6.054   7.284  0.0933  0.1192 -0.3688
   53MOL   N16239786   0.384   6.065   7.469  0.2850 -0.2667 -0.7115
   53MOL   C16339787   0.485   6.084   7.567 -0.0942  1.3530  0.6144
   53MOL   C16439788   0.429   6.077   7.708 -0.1832 -0.2561  0.1610
   53MOL   C16539789   0.371   5.940   0.037 -1.1335  0.0323 -0.1538
   53MOL   C16639790   0.465   5.829   0.090  0.1856  0.3658 -0.4736
   53MOL   C16739791   0.398   5.692   0.129  0.9929  0.4504  0.9249
   53MOL   C16839792   0.491   5.600   0.215  0.6025  0.6104  1.0463
   53MOL   N16939793   0.553   5.666   0.322  0.2838  0.5608  0.1745
   53MOL   H17039794   0.210   6.452   7.094 -0.4885 -0.1411  0.8402
   53MOL   H17139795   0.056   6.365   7.074 -1.4755  3.3908 -1.6208
   53MOL   H17239796   0.185   6.156   7.002  0.6251 -1.1376  1.9472
   53MOL   H17339797   0.329   6.249   7.046  0.0996  0.3982  2.4787
   53MOL   H17439798   0.096   6.183   7.230 -0.1523 -0.2537 -2.2281
   53MOL   H17539799   0.242   6.251   7.282  2.4038 -1.8685  0.4493
   53MOL   H17639800   0.320   6.029   7.150  1.3042  2.2162  0.7867
   53MOL   H17739801   0.224   5.966   7.278  0.6391 -0.7839 -1.1422
   53MOL   H17839802   0.291   6.081   7.504  0.4490 -1.6808  0.4473
   53MOL   H17939803   0.560   6.009   7.543 -2.0861 -0.9414  1.3143
   53MOL   H18039804   0.533   6.178   7.540  1.1330  0.3085 -0.9799
   53MOL   H18139805   0.517   6.101   0.060  0.5315  0.6486 -1.2133
   53MOL   H18239806   0.355   6.156   0.008 -0.8122 -1.0046  1.7797
   53MOL   H18339807   0.306   5.903   7.667  0.8604  1.3786 -2.5352
   53MOL   H18439808   0.301   5.952   0.120  1.0085  1.1577  1.5545
   53MOL   H18539809   0.543   5.820   0.014 -0.5390  0.5653 -1.2536
   53MOL   H18639810   0.518   5.870   0.176  0.3667 -2.8450  0.9999
   53MOL   H18739811   0.302   5.714   0.176 -0.2041 -0.2405 -1.1331
   53MOL   H18839812   0.369   5.641   0.038  0.2398  0.8513  0.9362
   53MOL   H18939813   0.568   5.560   0.148  0.0480  2.6901 -0.8925
   53MOL   H19039814   0.439   5.508   0.244 -1.6825  1.5335  0.0568
   53MOL   H19139815   0.529   5.761   0.344  1.4837  0.5849  1.3894
   53MOL   C19239816   0.657   5.617   0.391  0.5686 -0.4348  0.3952
   53MOL   O19339817   0.700   5.507   0.375 -0.4285 -0.1322 -0.0094
   53MOL   C19439818   0.726   5.705   0.491 -0.0976 -0.2386 -0.4752
   53MOL   C19539819   0.822   5.803   0.426 -0.2989  0.6169 -0.2519
   53MOL   C19639820   0.766   5.914   0.339  0.2851  0.8700 -0.3502
   53MOL   C19739821   0.868   6.009   0.286  0.6075  0.2387  0.9212
   53MOL   C19839822   0.813   6.086   0.167  0.5945 -0.7439  0.1719
   53MOL   O19939823   0.804   6.036   0.054  0.1744  0.3660 -0.9171
   53MOL   N20039824   0.788   6.216   0.186 -0.0050  0.0736  0.0166
   53MOL   C20139825   0.773   6.328   0.094 -0.1656 -1.0128 -1.1959
   53MOL   C20239826   0.642   6.397   0.145 -0.0950 -0.3109  0.4853
   53MOL   C20339827   0.617   6.536   0.088 -0.7006  0.2446  0.5037
   53MOL   C20439828   0.498   6.616   0.143 -0.1406  0.5993  0.0497
   53MOL   C20539829   0.485   6.749   0.074 -0.1958 -0.1416  0.2061
   53MOL   C20639830   0.340   6.816   0.094  0.2800 -0.2354  0.9866
   53MOL   N20739831   0.318   6.947   0.034  0.4033  0.1418  0.3006
   53MOL   H20839832   0.648   5.758   0.546  0.6732  2.2220 -1.7040
   53MOL   H20939833   0.774   5.639   0.564  0.1026 -1.2382 -1.4924
   53MOL   H21039834   0.875   5.863   0.500 -1.9148  1.2335  0.4149
   53MOL   H21139835   0.902   5.750   0.374 -0.6131  0.5295 -0.6473
   53MOL   H21239836   0.690   5.974   0.389 -1.9772 -4.1782  2.7462
   53MOL   H21339837   0.719   5.868   0.252  1.2684  1.4917 -1.2127
   53MOL   H21439838   0.942   5.948   0.234 -0.9999  1.2187 -2.6975
   53MOL   H21539839   0.916   6.058   0.371 -0.3560  0.8763  1.1106
   53MOL   H21639840   0.815   6.236   0.281  0.0591 -0.9383  0.2152
   53MOL   H21739841   0.853   6.400   0.104  0.7986 -2.1154 -0.7990
   53MOL   H21839842   0.748   6.301   7.699 -0.3043  1.2206 -1.7631
   53MOL   H21939843   0.560   6.329   0.127  0.7061 -1.4525  1.0744
   53MOL   H22039844   0.630   6.417   0.251 -1.4513 -0.2629  0.3311
   53MOL   H22139845   0.605   6.523   7.689  1.5980 -0.4303  0.2971
   53MOL   H22239846   0.704   6.595   0.115 -1.1561  1.2959 -0.3073
   53MOL   H22339847   0.406   6.561   0.124  0.4944 -0.2871 -0.4812
   53MOL   H22439848   0.510   6.627   0.251  0.8570  0.7132 -0.0700
   53MOL   H22539849   0.559   6.820   0.112  1.1554 -0.4390 -1.8139
   53MOL   H22639850   0.498   6.734   7.675 -2.0224 -1.1181  0.0983
   53MOL   H22739851   0.344   6.831   0.201  1.4493  0.5765  0.8420
   53MOL   H22839852   0.259   6.753   0.056 -0.2624  2.3286 -2.4048
   53MOL   H22939853   0.341   7.025   0.094  0.6154  0.0118  0.3897
   53MOL   C23039854   0.283   6.962   7.614  0.0997 -0.5910  0.3182
   53MOL   O23139855   0.241   6.870   7.536  0.2590 -0.0688 -0.7503
   53MOL   C23239856   0.285   7.111   7.566  0.3088 -0.0813 -0.1616
   53MOL   C23339857   0.144   7.183   7.580 -0.1469 -0.1672 -0.1310
   53MOL   C23439858   0.056   7.155   7.471  0.5561  0.1854  0.0355
   53MOL   C23539859   7.628   7.228   7.485 -0.0147 -0.6514  0.5056
   53MOL   C23639860   7.624   7.380   7.479 -0.5546  0.2993  0.1057
   53MOL   O23739861   0.015   7.445   7.463 -0.0340  0.2642  0.7437
   53MOL   N23839862   7.505   7.434   7.480  0.6287 -0.0764  0.7993
   53MOL   C23939863   7.458   7.567   7.441 -0.5205  0.1318  0.0331
   53MOL   C24039864   7.382   7.580   7.316 -0.3458  0.8373  0.6658
   53MOL   C24139865   7.317   0.011   7.288 -0.2679  0.0595 -0.0283
   53MOL   C24239866   7.211   0.001   7.180 -0.1230 -0.1868  0.5765
   53MOL   C24339867   7.152   0.135   7.130 -0.0141 -0.2368  0.1685
   53MOL   C24439868   7.058   0.207   7.226  0.1751  0.0223 -0.5419
   53MOL   N24539869   7.062   0.353   7.218 -0.0692  0.3584  0.6367
   53MOL   H24639870   0.368   7.168   7.607  0.0778 -1.0369  1.6796
   53MOL   H24739871   0.318   7.107   7.462 -2.3437 -0.7039 -1.0311
   53MOL   H24839872   0.098   7.148   7.673 -1.6762 -1.3349 -1.3157
   53MOL   H24939873   0.157   7.291   7.591 -1.4950  0.1718 -1.6449
   53MOL   H25039874   0.055   7.050   7.440 -3.1880  0.2086 -0.1564
   53MOL   H25139875   0.091   7.208   7.382 -2.4123  1.4051 -0.4398
   53MOL   H25239876   7.587   7.208   7.584 -0.9941 -2.0644 -0.1562
   53MOL   H25339877   7.561   7.187   7.409 -1.5346  1.9704  0.3830
   53MOL   H25439878   7.431   7.365   7.485  1.0604 -0.4721  1.8765
   53MOL   H25539879   7.393   7.602   7.522 -3.1408 -1.6269 -1.2355
   53MOL   H25639880   7.545   7.632   7.443 -2.0068  2.2641 -1.8630
   53MOL   H25739881   7.434   7.530   7.234 -1.3763  0.3729  0.2873
   53MOL   H25839882   7.294   7.516   7.321 -1.1187  1.5823 -2.1933
   53MOL   H25939883   7.395   0.084   7.269  0.4008 -0.7166 -0.3228
   53MOL   H26039884   7.266   0.042   7.380  1.6642  0.3715  0.9675
   53MOL   H26139885   7.249   7.643   7.102  0.5391 -2.5634  2.8587
   53MOL   H26239886   7.122   7.650   7.204 -0.8525 -0.0964 -1.7637
   53MOL   H26339887   7.233   0.201   7.101  1.0306 -1.3834  0.4311
   53MOL   H26439888   7.100   0.118   7.036  3.2233 -2.8922 -1.2549
   53MOL   H26539889   7.073   0.182   7.331 -1.1293  0.6528 -0.1834
   53MOL   H26639890   6.959   0.166   7.204  0.9211 -2.0323 -0.1539
   53MOL   H26739891   7.139   0.391   7.164 -0.7081  1.5028  0.5287
   53MOL   C26839892   6.962   0.429   7.258 -0.5606 -0.3558 -0.2316
   53MOL   O26939893   6.859   0.384   7.307  0.0548 -0.0736  0.1658
   53MOL   C27039894   6.993   0.577   7.264  0.0416 -0.0317  0.4420
   53MOL   C27139895   7.034   0.638   7.398  0.0319  0.4456  0.3925
   53MOL   C27239896   7.173   0.594   7.443  0.6574 -0.2612 -0.2267
   53MOL   C27339897   7.230   0.675   7.551  0.5192 -0.4038 -0.5261
   53MOL   C27439898   7.163   0.664   7.684  0.2473 -0.2076  0.2692
   53MOL   O27539899   7.193   0.572   0.053  0.1240 -0.1048  0.4748
   53MOL   N27639900   7.076   0.764   0.006 -0.5106 -0.2336 -0.2796
   53MOL   C27739901   7.014   0.764   0.136  0.4290  0.3025 -0.4283
   53MOL   C27839902   7.105   0.830   0.246 -0.1982 -0.9366 -0.1216
   53MOL   C27939903   7.035   0.864   0.379 -0.6874 -0.3480  0.1078
   53MOL   C28039904   7.052   0.743   0.466 -0.5471  0.0899 -0.1305
   53MOL   C28139905   6.996   0.758   0.603 -0.5946  0.1137 -0.4851
   53MOL   C28239906   6.992   0.629   0.684 -0.0157 -0.1032  0.5832
   53MOL   N28339907   6.890   0.531   0.624 -0.3736 -0.2415  0.7920
   53MOL   H28439908   7.059   0.600   7.180  1.7522 -2.3924  1.0709
   53MOL   H28539909   6.897   0.613   7.227 -0.0454 -1.9942 -1.3193
   53MOL   H28639910   7.023   0.745   7.381 -0.3722 -0.0454 -2.5957
   53MOL   H28739911   6.956   0.611   7.470 -0.7134  3.1446  0.6609
   53MOL   H28839912   7.240   0.592   7.357  0.7390  0.9697 -0.2015
   53MOL   H28939913   7.164   0.488   7.466 -2.4229  0.0384  0.0972
   53MOL   H29039914   7.226   0.777   7.512  2.7487 -0.0030  0.2249
   53MOL   H29139915   7.335   0.652   7.569  0.2042 -0.3119  1.5544
   53MOL   H29239916   7.060   0.841   7.651  2.7389  1.6378  1.0396
   53MOL   H29339917   6.923   0.823   0.121 -0.7505 -1.7324 -1.4695
   53MOL   H29439918   6.981   0.666   0.170  2.5339  0.3392  1.7748
   53MOL   H29539919   7.198   0.775   0.258  1.4595  1.3742 -1.9055
   53MOL   H29639920   7.125   0.930   0.208 -2.0721 -0.2045  0.7493
   53MOL   H29739921   6.934   0.892   0.350 -0.4673 -0.0427 -0.3784
   53MOL   H29839922   7.093   0.950   0.412 -1.2759 -0.4574  1.5050
   53MOL   H29939923   7.015   0.652   0.418 -1.9345  0.0518  0.9915
   53MOL   H30039924   7.157   0.715   0.463 -0.7831 -0.7932 -0.2405
   53MOL   H30139925   7.033   0.837   0.668 -2.0293  0.7829 -0.4645
   53MOL   H30239926   6.891   0.780   0.584 -0.8450 -1.6319 -1.2533
   53MOL   H30339927   6.956   0.655   0.783 -0.1541 -2.3822  1.1580
   53MOL   H30439928   7.091   0.584   0.689  0.0924 -0.4989 -3.1553
   53MOL   H30539929   6.813   0.566   0.568 -0.8733 -1.0529  0.9650
   53MOL   C30639930   6.911   0.404   0.637 -0.2898 -0.3979 -0.4500
   53MOL   O30739931   7.005   0.357   0.698  0.1524  0.5408 -0.1768
   53MOL   C30839932   6.812   0.320   0.567  0.1949 -0.1598  0.5538
   53MOL   C30939933   6.835   0.174   0.578  0.3087  0.2296  0.2801
   53MOL   C31039934   6.737   0.090   0.495  0.2415  0.2105 -0.6732
   53MOL   C31139935   6.587   0.105   0.535  0.6033  0.0629 -0.5245
   53MOL   C31239936   6.559   0.061   0.680 -0.3510  0.0044 -0.2658
   53MOL   O31339937   6.561   7.655   0.714 -0.0948 -0.4939 -0.6039
   53MOL   N31439938   6.521   0.162   0.756 -0.2952  0.1200  0.7500
   53MOL   C31539939   6.467   0.151   0.894 -0.0915 -0.4705  0.0390
   53MOL   C31639940   6.580   0.189   0.988 -0.6718 -0.2894 -0.3301
   53MOL   C31739941   6.556   0.178   1.143  0.3365  0.9644  0.6601
   53MOL   C31839942   6.688   0.209   1.222 -0.1457 -0.6313  0.1147
   53MOL   C31939943   6.671   0.182   1.378 -0.4091 -0.0750  0.3290
   53MOL   C32039944   6.801   0.206   1.442  0.1654  0.2758 -0.2649
   53MOL   N32139945   6.803   0.179   1.584  0.2391 -0.7079 -0.8093
   53MOL   H32239946   6.714   0.336   0.610 -0.5158 -2.4138 -0.1565
   53MOL   H32339947   6.795   0.350   0.464 -2.3733  0.0888  1.0279
   53MOL   H32439948   6.937   0.147   0.553 -0.5645 -1.4040 -1.5872
   53MOL   H32539949   6.846   0.146   0.683 -0.9103  0.7123  0.5492
   53MOL   H32639950   6.763   7.695   0.520 -1.8114 -0.7321 -2.2640
   53MOL   H32739951   6.761   0.102   0.390 -2.0614 -0.2692 -1.2756
   53MOL   H32839952   6.523   0.048   0.468 -0.3065  0.8495 -0.3379
   53MOL   H32939953   6.566   0.212   0.538  1.6346  0.2274  2.9156
   53MOL   H33039954   6.502   0.249   0.708 -0.0149 -0.9527 -1.3706
   53MOL   H33139955   6.386   0.220   0.913 -1.3617 -1.8050 -0.4253
   53MOL   H33239956   6.425   0.053   0.919 -1.7856  0.8418  2.4652
   53MOL   H33339957   6.662   0.122   0.962 -0.3822 -0.5876  1.3205
   53MOL   H33439958   6.619   0.290   0.971  0.3373 -0.8940 -1.6819
   53MOL   H33539959   6.516   0.079   1.168 -2.0623  2.1283  1.6410
   53MOL   H33639960   6.480   0.249   1.176 -0.5692  1.1426 -1.6603
   53MOL   H33739961   6.767   0.148   1.179  0.1220  0.0829 -0.4210
   53MOL   H33839962   6.715   0.311   1.194  0.5050 -1.3085 -1.7903
   53MOL   H33939963   6.598   0.251   1.422  1.0195  0.5248  1.8262
   53MOL   H34039964   6.634   0.082   1.400  1.9805 -0.5077  2.5700
   53MOL   H34139965   6.808   0.315   1.448  2.7205  0.1145  0.2574
   53MOL   H34239966   6.887   0.159   1.396  0.0871  0.0086 -0.1415
   53MOL   H34339967   6.723   0.209   1.638  1.6043  2.5908 -0.5214
   53MOL   C34439968   6.906   0.130   1.659 -0.6965 -0.0212 -0.0034
   53MOL   O34539969   7.023   0.105   1.621 -0.2474 -0.3732 -0.3726
   53MOL   C34639970   6.880   0.104   1.807 -0.4571  0.5890  0.0786
   53MOL   C34739971   6.953   7.676   1.848 -0.3063  0.6219  0.3435
   53MOL   C34839972   6.929   7.630   1.996  0.3522  0.2624  0.2244
   53MOL   C34939973   7.023   7.528   2.054 -0.1186  0.6888 -0.2409
   53MOL   C35039974   7.011   7.496   2.198 -0.2672  0.2104 -0.3347
   53MOL   O35139975   6.961   7.579   2.277 -0.0714 -0.0519  0.0595
   53MOL   N35239976   7.056   7.377   2.242  0.3600  0.1582 -0.0731
   53MOL   C35339977   7.016   7.328   2.374 -0.0267  0.0139 -0.2291
   53MOL   C35439978   6.988   7.174   2.384  0.0103 -0.0395  0.1875
   53MOL   C35539979   7.107   7.085   2.343  0.1003 -0.0299  0.1778
   53MOL   C35639980   7.235   7.104   2.430 -0.3356 -0.1396  0.5368
   53MOL   C35739981   7.365   7.042   2.375  0.0966 -0.1794  0.1206
   53MOL   C35839982   7.487   7.083   2.455  0.4432  0.5690 -0.6512
   53MOL   N35939983   7.611   7.055   2.381 -0.0277  0.2757  0.1225
   53MOL   H36039984   6.902   0.192   1.867  0.1628 -0.7659  1.9091
   53MOL   H36139985   6.774   0.086   1.826 -0.8661 -1.4072 -3.5964
   53MOL   H36239986   6.926   7.595   1.781 -1.4245  1.0073  0.3162
   53MOL   H36339987   7.058   7.684   1.821 -0.3111 -1.8894 -0.5600
   53MOL   H36439988   6.830   7.585   1.986  0.7565 -0.0158 -3.1092
   53MOL   H36539989   6.925   0.006   2.065  1.0408  2.2642 -2.1305
   53MOL   H36639990   7.123   7.569   2.042  0.1937 -0.6530 -2.5509
   53MOL   H36739991   7.015   7.433   2.000  2.9977  2.3048 -3.8155
   53MOL   H36839992   7.116   7.322   2.182 -1.1901 -0.7053 -0.8426
   53MOL   H36939993   7.088   7.364   2.448  0.1971  0.8282 -0.8261
   53MOL   H37039994   6.921   7.370   2.405  0.1828  1.2834 -1.2439
   53MOL   H37139995   6.970   7.158   2.490  1.9219 -0.4362  0.4768
   53MOL   H37239996   6.890   7.156   2.341  1.2409  1.0732 -3.2421
   53MOL   H37339997   7.127   7.095   2.236  0.9442 -3.3538 -0.0269
   53MOL   H37439998   7.072   6.983   2.356 -0.2138  0.1702  0.9764
   53MOL   H37539999   7.254   7.211   2.444 -0.6340 -0.1601  1.0829
   53MOL   H37640000   7.223   7.057   2.527  1.1565 -1.6495  0.0210
   53MOL   H37740001   7.334   6.938   2.382  0.3191 -0.3866 -1.7424
   53MOL   H37840002   7.388   7.066   2.271  2.3133 -0.3955  0.5249
   53MOL   H37940003   7.485   7.041   2.556 -0.3156 -1.3457 -1.4350
   53MOL   H38040004   7.484   7.190   2.478  1.6592  0.6165 -0.6611
   53MOL   H38140005   7.611   7.050   2.280  0.3656 -4.5453  0.2230
   53MOL   C38240006   0.021   7.035   2.435  0.0953 -0.3246  0.2983
   53MOL   O38340007   0.043   7.036   2.559 -0.2370  0.6028  0.4135
   53MOL   C38440008   0.138   7.024   2.343  0.7349 -0.4936 -0.0715
   53MOL   C38540009   0.220   7.150   2.360  0.5137  0.2472  0.5808
   53MOL   C38640010   0.368   7.120   2.393  0.1455  0.4302 -0.0185
   53MOL   C38740011   0.385   7.061   2.534  0.9325  0.3895  0.0043
   53MOL   C38840012   0.375   7.167   2.645  0.3697  0.1441  0.6283
   53MOL   O38940013   0.457   7.256   2.663 -0.0314 -0.6335  0.2440
   53MOL   N39040014   0.269   7.152   2.726 -0.0311  0.5261  0.2922
   53MOL   C39140015   0.257   7.212   2.859  0.4249 -0.0124 -0.7472
   53MOL   C39240016   0.122   7.282   2.891  0.0960  0.8170 -0.2674
   53MOL   C39340017   0.061   7.353   2.773  0.1858  0.0020  0.3392
   53MOL   C39440018   7.661   7.443   2.812  0.1557 -0.2263  0.0754
   53MOL   C39540019   7.602   7.519   2.695  0.3089 -0.3463 -0.2989
   53MOL   C39640020   7.467   7.587   2.724 -0.2534 -0.1861 -0.0259
   53MOL   N39740021   7.412   7.659   2.615  0.0506 -0.3407  0.2309
   53MOL   H39840022   0.200   6.944   2.382  1.7273  0.6410  0.7174
   53MOL   H39940023   0.109   7.013   2.238  1.2106  0.1229 -0.2717
   53MOL   H40040024   0.212   7.201   2.264 -0.8969 -2.3420 -0.7282
   53MOL   H40140025   0.178   7.223   2.429 -0.5942  1.0166 -0.9077
   53MOL   H40240026   0.431   7.208   2.377  2.8981 -0.9066  2.7967
   53MOL   H40340027   0.407   7.044   2.325 -0.0827  1.6452 -1.5230
   53MOL   H40440028   0.486   7.023   2.548  0.3075 -0.6045  2.0175
   53MOL   H40540029   0.319   6.977   2.554 -1.8213  2.3488 -0.5914
   53MOL   H40640030   0.195   7.088   2.702 -0.9700  1.8182 -0.3698
   53MOL   H40740031   0.265   7.129   2.930 -1.7900  0.3334 -0.0696
   53MOL   H40840032   0.330   7.291   2.872 -0.1620  0.4261 -0.0823
   53MOL   H40940033   0.049   7.210   2.928  0.6759 -0.1397 -0.9458
   53MOL   H41040034   0.133   7.363   2.963  3.6068  0.7559 -0.6635
   53MOL   H41140035   0.024   7.285   2.696  0.5226  0.5968 -0.3466
   53MOL   H41240036   0.140   7.419   2.739  0.5677  0.3735  1.9138
   53MOL   H41340037   7.584   7.386   2.864 -0.7509  0.9501  0.0627
   53MOL   H41440038   7.687   7.511   2.893 -0.8477  1.7997 -1.2633
   53MOL   H41540039   7.671   7.598   2.666  0.0183 -0.2637 -0.7605
   53MOL   H41640040   7.607   7.450   2.611  0.0993  1.3750 -1.7404
   53MOL   H41740041   7.487   7.665   2.797  0.6583 -0.9037  0.5155
   53MOL   H41840042   7.395   7.511   2.755 -1.8682  0.0047 -3.1668
   53MOL   H41940043   7.472   7.668   2.534  1.0712 -0.2597  0.9774
   53MOL   C42040044   7.300   0.027   2.615  0.9514 -0.3527  0.5367
   53MOL   O42140045   7.225   0.048   2.711 -0.0399 -0.0150  0.4890
   53MOL   C42240046   7.269   0.101   2.482 -0.4633 -0.3022 -0.1971
   53MOL   C42340047   7.358   0.223   2.464 -0.0363 -0.2082 -0.0660
   53MOL   C42440048   7.331   0.323   2.585  0.2789  0.4848 -0.3916
   53MOL   C42540049   7.413   0.450   2.559  0.1133  0.3924  0.4365
   53MOL   C42640050   7.327   0.568   2.513 -0.1685  0.5874 -0.2198
   53MOL   O42740051   7.253   0.621   2.597  0.0972  0.1994 -0.2526
   53MOL   N42840052   7.330   0.610   2.389  0.2410 -1.0139  0.6892
   53MOL   C42940053   7.243   0.713   2.338  0.2540  0.1974  0.0939
   53MOL   C43040054   7.288   0.746   2.192 -0.2181 -0.4217 -0.1996
   53MOL   C43140055   7.209   0.847   2.103 -0.6865 -0.5971 -0.4487
   53MOL   C43240056   7.294   0.900   1.986  0.3209  0.6259 -0.1809
   53MOL   C43340057   7.204   0.931   1.863 -0.1633  0.0258  0.4086
   53MOL   C43440058   7.114   1.056   1.881 -0.2024 -0.5158  0.3185
   53MOL   N43540059   7.187   1.188   1.893 -0.0416 -0.4308  0.2483
   53MOL   H43640060   7.283   0.034   2.397 -0.3458 -2.0419  1.1556
   53MOL   H43740061   7.170   0.147   2.474 -0.7011 -0.4649  1.6220
   53MOL   H43840062   7.464   0.197   2.463 -0.2968 -1.7527  3.7048
   53MOL   H43940063   7.334   0.272   2.370 -2.3570  0.0522  0.6400
   53MOL   H44040064   7.369   0.275   2.675 -1.2585  0.0204  0.0344
   53MOL   H44140065   7.224   0.336   2.604 -0.1569 -2.7320 -0.3310
   53MOL   H44240066   7.498   0.428   2.495  1.4709  0.9721  2.0222
   53MOL   H44340067   7.464   0.476   2.651  1.0238  1.4506 -0.3512
   53MOL   H44440068   7.396   0.571   2.323 -1.0759  0.1070 -1.3148
   53MOL   H44540069   7.139   0.680   2.330 -0.0098  1.0711 -0.1206
   53MOL   H44640070   7.246   0.801   2.403  0.6228  0.9122 -0.8878
   53MOL   H44740071   7.388   0.788   2.201 -0.7588  0.5355  1.4139
   53MOL   H44840072   7.304   0.656   2.133  0.4206 -1.2196  1.1803
   53MOL   H44940073   7.187   0.933   2.167 -0.3111  0.2054 -1.3893
   53MOL   H45040074   7.116   0.801   2.070 -0.7161  1.4999 -3.4663
   53MOL   H45140075   7.338   0.995   2.017 -0.1866  0.0374  2.5108
   53MOL   H45240076   7.371   0.831   1.953 -1.2662 -0.3484 -1.9067
   53MOL   H45340077   7.262   0.947   1.773  0.9309 -0.1035  1.0820
   53MOL   H45440078   7.134   0.853   1.836  1.0647 -1.8428  2.4614
   53MOL   H45540079   7.053   1.041   1.970  0.6321  0.8194  1.1365
   53MOL   H45640080   7.050   1.065   1.794 -0.2719  1.2954  0.5340
   53MOL   H45740081   7.222   1.238   1.813  0.8829 -3.8219 -1.5541
   53MOL   C45840082   7.187   1.264   2.006 -0.8583  1.0168 -0.1075
   53MOL   O45940083   7.130   1.234   2.110 -0.1612  0.2544 -0.4068
   53MOL   C46040084   7.280   1.388   2.004  0.3810  0.2750 -1.0762
   53MOL   C46140085   7.208   1.520   2.023 -0.0267 -0.3279 -0.0762
   53MOL   C46240086   7.095   1.549   1.925  0.1084 -0.1539 -0.0538
   53MOL   C46340087   7.042   1.697   1.934 -0.6462 -0.2465 -0.2051
   53MOL   C46440088   6.911   1.729   1.862 -0.5080 -0.7138 -0.0649
   53MOL   O46540089   6.809   1.686   1.907 -0.1411  0.1324 -0.1134
   53MOL   N46640090   6.920   1.803   1.746 -0.4682 -0.1912  0.1365
   53MOL   C46740091   6.801   1.849   1.674  0.3728  0.0151  0.2841
   53MOL   C46840092   6.777   1.771   1.543  1.2245 -0.1012  0.5158
   53MOL   C46940093   6.651   1.803   1.459 -0.2001 -0.1658 -0.3326
   53MOL   C47040094   6.644   1.711   1.334 -0.3278  0.3075 -0.1436
   53MOL   C47140095   6.517   1.720   1.246 -0.6618 -0.6550  0.2013
   53MOL   C47240096   6.499   1.845   1.154  0.3781 -0.1893 -0.5089
   53MOL   N47340097   6.602   1.859   1.049  0.3789 -0.1039  0.1911
   53MOL   H47440098   7.347   1.370   2.088 -0.3856 -0.2008 -0.5554
   53MOL   H47540099   7.326   1.393   1.905  0.1520 -0.0456 -1.1973
   53MOL   H47640100   7.182   1.530   2.129 -0.0571  0.4211 -0.1510
   53MOL   H47740101   7.284   1.596   2.003 -0.8371  0.4372 -0.2822
   53MOL   H47840102   7.015   1.476   1.942  0.4148 -0.2251  1.1323
   53MOL   H47940103   7.146   1.528   1.832 -3.6944  1.2955 -2.5715
   53MOL   H48040104   7.126   1.759   1.904 -0.2129 -1.3662 -1.3181
   53MOL   H48140105   7.027   1.712   2.041  2.9390  0.6758  0.2235
   53MOL   H48240106   7.008   1.850   1.732 -0.3670 -0.2267  0.6480
   53MOL   H48340107   6.711   1.834   1.734  1.1847 -1.7217  1.1068
   53MOL   H48440108   6.803   1.955   1.648  0.4182 -0.4031 -1.4885
   53MOL   H48540109   6.867   1.798   1.489  0.3826 -1.6589 -1.7096
   53MOL   H48640110   6.794   1.664   1.554 -2.2662 -0.8294 -0.6302
   53MOL   H48740111   6.656   1.906   1.423 -1.0713  0.5155  1.4504
   53MOL   H48840112   6.561   1.795   1.520  0.9185  0.8761  1.5025
   53MOL   H48940113   6.736   1.734   1.282  0.7513 -0.6292  1.2836
   53MOL   H49040114   6.659   1.606   1.362 -0.4611 -0.1182 -1.6467
   53MOL   H49140115   6.501   1.625   1.194 -0.5464  0.7212 -2.4342
   53MOL   H49240116   6.430   1.732   1.310 -1.1628 -0.8704 -0.4380
   53MOL   H49340117   6.500   1.930   1.221  0.5232 -1.7360  1.4904
   53MOL   H49440118   6.399   1.835   1.111 -0.1368 -1.8795  1.0430
   53MOL   H49540119   6.689   1.903   1.074 -0.4080  1.5236  0.1181
   53MOL   C49640120   6.580   1.829   0.919 -0.7420  0.5086  0.4061
   53MOL   O49740121   6.482   1.767   0.885 -0.2741  0.0203  0.3288
   53MOL   C49840122   6.693   1.856   0.817 -0.2154  0.6272 -0.0533
   53MOL   C49940123   6.654   1.870   0.669 -0.3630 -0.1783  0.3191
   53MOL   C50040124   6.787   1.876   0.590  0.3920  0.3652  0.6896
   53MOL   C50140125   6.794   1.906   0.440 -0.3696 -0.2608 -0.1822
   53MOL   C50240126   6.720   1.811   0.342  0.0951 -0.5114 -0.5457
   53MOL   O50340127   6.594   1.798   0.350 -0.1276 -0.1527  0.5771
   53MOL   N50440128   6.800   1.754   0.249 -0.1797  0.0051 -0.4338
   53MOL   C50540129   6.760   1.644   0.160 -0.3506 -0.1773 -0.2519
   53MOL   C50640130   6.883   1.564   0.102  0.6982  0.7377  0.3372
   53MOL   C50740131   6.983   1.658   0.034  0.0648  0.4642 -0.1555
   53MOL   C50840132   7.083   1.598   7.650 -0.1004 -0.0628  0.5139
   53MOL   C50940133   7.043   1.497   7.541  0.1397  0.2982  0.4410
   53MOL   C51040134   6.960   1.565   7.428  0.0166  0.0830 -0.1094
   53MOL   N51140135   6.929   1.474   7.317  0.3395 -0.0632 -0.3720
   53MOL   H51240136   6.735   1.951   0.852 -0.2217  1.2189 -1.5988
   53MOL   H51340137   6.777   1.787   0.821 -0.6040 -0.1113 -3.3490
   53MOL   H51440138   6.585   1.793   0.634 -1.0447  0.4109  0.3439
   53MOL   H51540139   6.608   1.967   0.650  0.9777 -0.3077 -4.2152
   53MOL   H51640140   6.829   1.776   0.596 -1.7575 -0.6133 -0.1969
   53MOL   H51740141   6.852   1.940   0.651  3.0997 -0.7536 -0.9743
   53MOL   H51840142   6.899   1.907   0.410  0.5023  0.8392  2.7813
   53MOL   H51940143   6.768   2.011   0.426 -0.6942 -0.7775 -3.8944
   53MOL   H52040144   6.895   1.785   0.259 -1.0954  2.3576  1.4346
   53MOL   H52140145   6.707   1.574   0.224  0.9216 -1.3893 -0.4810
   53MOL   H52240146   6.673   1.663   0.096 -1.0946  0.0419  0.8205
   53MOL   H52340147   6.933   1.518   0.188  0.1176  0.7613  0.6894
   53MOL   H52440148   6.843   1.485   0.039  0.6543  0.6222  0.5096
   53MOL   H52540149   7.024   1.728   0.107  1.0124  0.3621 -0.5702
   53MOL   H52640150   6.936   1.738   7.684 -0.8962 -0.5081 -0.7344
   53MOL   H52740151   7.151   1.674   7.613 -1.6821  1.0999 -0.0516
   53MOL   H52840152   7.138   1.522   7.706  1.0530  0.2762 -0.1513
   53MOL   H52940153   7.128   1.448   7.494  1.0010 -0.9177  3.1439
   53MOL   H53040154   6.990   1.413   7.584  0.5011 -0.7280 -1.0892
   53MOL   H53140155   7.021   1.644   7.384  2.5741 -1.8250 -0.0636
   53MOL   H53240156   6.871   1.609   7.473 -1.5826 -1.2751 -1.8889
   53MOL   H53340157   7.008   1.427   7.277  1.4815  1.1735  0.3886
   53MOL   C53440158   6.806   1.434   7.276 -0.2404 -0.5692  0.0812
   53MOL   O53540159   6.702   1.490   7.319 -0.0396  0.0047  0.2298
   53MOL   C53640160   6.800   1.310   7.185  0.1684 -0.4811  0.1426
   53MOL   C53740161   6.750   1.181   7.247 -0.0820  0.4498 -1.2289
   53MOL   C53840162   6.825   1.138   7.377  0.0932 -0.2394  0.6878
   53MOL   C53940163   6.968   1.093   7.349  0.8049 -0.3283 -0.0975
   53MOL   C54040164   7.054   1.067   7.475 -0.1964 -0.1860  0.3999
   53MOL   O54140165   7.005   0.993   7.562 -0.6676  0.0184  0.0451
   53MOL   N54240166   7.173   1.129   7.483 -0.4377  0.0572 -0.4281
   53MOL   C54340167   7.282   1.105   7.582 -1.0733  0.1623 -0.1667
   53MOL   C54440168   7.248   1.166   0.006  0.2579 -0.2749  0.3379
   53MOL   C54540169   7.359   1.165   0.110 -0.7286 -0.1407  0.1801
   53MOL   C54640170   7.313   1.244   0.235 -0.3343  0.3232 -0.4379
   53MOL   C54740171   7.421   1.255   0.349  0.2492 -0.5181  0.2401
   53MOL   C54840172   7.386   1.342   0.474  0.1943  0.5924 -0.3106
   53MOL   N54940173   7.494   1.374   0.558  0.4610  0.7147 -0.0063
   53MOL   H55040174   6.745   1.324   7.092 -2.2802 -0.2225  1.5803
   53MOL   H55140175   6.902   1.308   7.147 -0.0483 -0.8201 -0.4281
   53MOL   H55240176   6.645   1.197   7.273 -0.1745 -0.7594 -0.8195
   53MOL   H55340177   6.753   1.095   7.180  1.6269 -0.5733  0.1398
   53MOL   H55440178   6.766   1.065   7.433 -0.0617  1.0113  2.1784
   53MOL   H55540179   6.825   1.216   7.452  0.8523 -0.5222  0.9842
   53MOL   H55640180   7.014   1.167   7.283 -1.0330  0.2257 -0.7786
   53MOL   H55740181   6.958   1.001   7.292  0.6796  0.3576 -1.2141
   53MOL   H55840182   7.204   1.182   7.403 -0.8246  1.7714  0.5316
   53MOL   H55940183   7.285   1.000   7.611 -1.6288  0.0191 -0.6176
   53MOL   H56040184   7.378   1.138   7.542  0.4856 -0.6963  2.7593
   53MOL   H56140185   7.204   1.266   0.003  0.2738 -0.2732  0.1792
   53MOL   H56240186   7.168   1.106   0.048 -0.8364  0.8757 -0.0821
   53MOL   H56340187   7.449   1.208   0.065 -1.3449  1.4228  0.4107
   53MOL   H56440188   7.390   1.065   0.142 -0.8061 -0.3046 -0.2417
   53MOL   H56540189   7.289   1.348   0.212 -2.6701 -0.0404  0.1486
   53MOL   H56640190   7.219   1.196   0.265  1.0345 -1.9083  0.3903
   53MOL   H56740191   7.459   1.158   0.380  1.4304  0.4636  1.9767
   53MOL   H56840192   7.512   1.296   0.305  1.6498 -3.0725  0.6708
   53MOL   H56940193   7.322   1.290   0.546  2.0186 -0.7202  0.3921
   53MOL   H57040194   7.327   1.428   0.443  1.4190  0.8160 -2.1143
   53MOL   H57140195   7.557   1.296   0.567  0.5399  0.5541 -1.9381
   53MOL   C57240196   7.508   1.462   0.653  0.5004 -0.1325  0.1621
   53MOL   O57340197   7.429   1.554   0.666 -0.0039 -0.2704 -0.4255
   53MOL   C57440198   7.619   1.433   0.762 -0.3614  0.5085 -0.2177
   53MOL   C57540199   7.688   1.543   0.833  0.0842  0.4932 -0.9626
   53MOL   C57640200   7.591   1.632   0.909 -0.0327  0.6995 -0.7363
   53MOL   C57740201   7.625   1.672   1.052  0.2410  0.2492  0.0096
   53MOL   C57840202   7.600   1.560   1.151 -0.0872  0.2517  0.4639
   53MOL   O57940203   7.490   1.551   1.215  0.0657  0.0881  0.1430
   53MOL   N58040204   7.698   1.474   1.165 -0.5873 -0.4233 -0.7075
   53MOL   C58140205   7.699   1.392   1.289  0.2546 -0.1234 -0.3142
   53MOL   C58240206   0.095   1.275   1.276  0.4446 -0.1873 -0.1971
   53MOL   C58340207   0.127   1.199   1.403  0.3006 -0.0221  0.0399
   53MOL   C58440208   0.234   1.271   1.492 -0.6044 -0.4664  0.3350
   53MOL   C58540209   0.247   1.216   1.626  0.0454 -0.4130  0.0000
   53MOL   C58640210   0.320   1.305   1.733 -0.3316  0.1829  0.1057
   53MOL   N58740211   0.321   1.250   1.866 -0.7171 -0.5069 -0.7634
   53MOL   H58840212   7.583   1.357   0.832  0.9604 -2.1116 -2.2866
   53MOL   H58940213   7.688   1.372   0.704  0.1289 -1.1583  2.0553
   53MOL   H59040214   0.050   1.507   0.908  1.2647 -0.2072 -2.3696
   53MOL   H59140215   0.047   1.601   0.770  1.8585  0.5085  0.8848
   53MOL   H59240216   7.491   1.587   0.906  0.2833 -0.2368  1.4628
   53MOL   H59340217   7.577   1.724   0.853 -0.3912  2.2219  1.7687
   53MOL   H59440218   7.574   1.760   1.091  0.6523  0.5010 -0.0203
   53MOL   H59540219   0.023   1.699   1.058 -0.3901  2.4665  1.9451
   53MOL   H59640220   0.080   1.497   1.126  0.0686  0.0444  1.0431
   53MOL   H59740221   0.013   1.462   1.369  0.1731  1.2692 -1.4891
   53MOL   H59840222   7.603   1.347   1.315  1.2926 -0.8835  2.3579
   53MOL   H59940223   0.042   1.202   1.215 -0.9493 -1.2928  2.2775
   53MOL   H60040224   0.179   1.312   1.216 -1.5400 -0.4157 -3.2643
   53MOL   H60140225   0.164   1.101   1.370  0.7848 -0.4503  1.8220
   53MOL   H60240226   0.036   1.179   1.459  1.9086 -1.7868  2.1066
   53MOL   H60340227   0.330   1.253   1.443 -0.0371  0.9984  0.8802
   53MOL   H60440228   0.208   1.376   1.504 -1.2096 -0.8788  3.0099
   53MOL   H60540229   0.145   1.203   1.663  0.4985  1.3572  1.9722
   53MOL   H60640230   0.292   1.118   1.615 -0.2015 -0.6593  1.1389
   53MOL   H60740231   0.268   1.400   1.739 -0.5697 -0.0423  1.8049
   53MOL   H60840232   0.423   1.325   1.703 -0.3733  0.8548  0.4155
   53MOL   H60940233   0.236   1.204   1.896 -0.4407  1.1433  2.8149
   53MOL   C61040234   0.424   1.230   1.946 -0.3005  0.0591 -0.8188
   53MOL   O61140235   0.537   1.267   1.923 -0.1095 -0.0478 -0.2911
   53MOL   C61240236   0.394   1.165   2.083 -0.7207 -0.3313 -0.5625
   53MOL   C61340237   0.442   1.009   2.094  0.1659 -0.1842  0.4204
   53MOL   C61440238   0.586   0.979   2.060 -0.0416  0.5139  0.4365
   53MOL   C61540239   0.618   0.832   2.064  0.0209  0.2339  0.3539
   53MOL   C61640240   0.608   0.757   2.197 -0.1362 -0.4537 -0.4376
   53MOL   O61740241   0.502   0.713   2.238  0.2130 -0.4750 -0.3670
   53MOL   N61840242   0.723   0.751   2.271 -0.1727  0.3541  0.3482
   53MOL   C61940243   0.738   0.688   2.406  0.0187 -0.1590  0.0930
   53MOL   C62040244   0.881   0.719   2.478 -0.1766 -0.0370 -0.6012
   53MOL   C62140245   0.892   0.644   2.611  0.1859  0.7492  0.1380
   53MOL   C62240246   0.924   0.496   2.589  0.1994 -0.3475  0.0993
   53MOL   C62340247   0.949   0.410   2.718  0.3127  0.3454 -0.0369
   53MOL   C62440248   0.833   0.400   2.816  0.3871  0.3568  0.3342
   53MOL   N62540249   0.879   0.331   2.931  0.1448  0.0402 -0.1269
   53MOL   H62640250   0.449   1.215   2.163  0.7607 -1.0682 -1.1043
   53MOL   H62740251   0.293   1.192   2.116 -0.3705  1.2614 -0.7325
   53MOL   H62840252   0.417   0.976   2.195  0.4289  2.3171  1.3305
   53MOL   H62940253   0.364   0.952   2.044 -1.4687  0.8455  1.7393
   53MOL   H63040254   0.648   1.043   2.123 -1.9314  2.8870  0.0026
   53MOL   H63140255   0.606   1.004   1.956  2.0873 -0.9704  0.4626
   53MOL   H63240256   0.719   0.827   2.024  0.0940  2.0963  0.2588
   53MOL   H63340257   0.549   0.783   1.995  0.3391  0.4402 -0.1162
   53MOL   H63440258   0.807   0.795   2.237 -0.5642 -0.9166 -2.4718
   53MOL   H63540259   0.660   0.725   2.472  1.7824 -0.9904  2.7517
   53MOL   H63640260   0.711   0.582   2.412  0.1286 -0.3167 -1.7521
   53MOL   H63740261   0.968   0.696   2.416  0.7073  2.9929 -0.5556
   53MOL   H63840262   0.885   0.826   2.497  0.7021  0.3941 -3.0328
   53MOL   H63940263   0.802   0.655   2.670  0.8923 -1.9511  1.8031
   53MOL   H64040264   0.969   0.694   2.670  0.8121  1.5355 -1.2935
   53MOL   H64140265   0.853   0.456   2.517  1.1880  0.0865 -1.1464
   53MOL   H64240266   1.019   0.507   2.535  0.3633  0.4026  0.5297
   53MOL   H64340267   0.968   0.313   2.672 -1.0905 -0.1865  0.4895
   53MOL   H64440268   1.048   0.447   2.746  1.8556 -2.9298 -0.9438
   53MOL   H64540269   0.747   0.359   2.762 -0.4106  0.1940  1.7085
   53MOL   H64640270   0.802   0.500   2.844 -0.5402  0.1443  0.0815
   53MOL   H64740271   0.949   0.259   2.923 -0.0605 -0.3408  1.3161
   53MOL   C64840272   0.846   0.364   3.058 -0.0480  0.5037  0.6032
   53MOL   O64940273   0.770   0.458   3.084 -0.2911 -0.1068 -0.0012
   53MOL   C65040274   0.924   0.292   3.165 -0.1738  0.2834 -0.0724
   53MOL   C65140275   0.936   0.369   3.297  0.5303 -0.1094  0.1660
   53MOL   C65240276   1.041   0.478   3.291  0.9041 -0.1554  0.2773
   53MOL   C65340277   0.985   0.612   3.230 -0.1783 -0.5179  0.8961
   53MOL   C65440278   1.061   0.738   3.276 -0.5562  0.1003  0.1770
   53MOL   O65540279   1.061   0.774   3.398  0.1270  0.4293 -0.5616
   53MOL   N65640280   1.133   0.799   3.187  0.6448  0.2522  0.0485
   53MOL   C65740281   1.232   0.907   3.221  0.1312  0.5706  0.2301
   53MOL   C65840282   1.168   1.042   3.203 -0.6790  0.1209  0.5361
   53MOL   C65940283   1.269   1.150   3.214  0.3952  0.3252  0.8644
   53MOL   C66040284   1.219   1.294   3.217  0.2547 -0.3411  0.0903
   53MOL   C66140285   1.342   1.394   3.179 -0.6502 -0.3633 -0.2039
   53MOL   C66240286   1.311   1.540   3.157  0.4797  0.2454 -0.3449
   53MOL   N66340287   1.431   1.614   3.140  0.1291 -0.4049  0.0689
   53MOL   H66440288   0.879   0.195   3.181  0.8562 -0.1507  0.2425
   53MOL   H66540289   1.023   0.267   3.128 -0.5353  0.8324 -1.4246
   53MOL   H66640290   0.839   0.395   3.340  0.7450  1.8432 -0.4662
   53MOL   H66740291   0.962   0.290   3.368 -3.9657 -2.1953 -0.3479
   53MOL   H66840292   1.134   0.442   3.247 -0.5904 -2.2463 -1.2674
   53MOL   H66940293   1.066   0.494   3.396  1.7262  0.1370  0.0439
   53MOL   H67040294   0.884   0.633   3.266  0.6336 -0.0756  2.9725
   53MOL   H67140295   0.971   0.617   3.122 -0.1815  0.2249  0.9246
   53MOL   H67240296   1.128   0.763   3.093 -0.0159 -0.0336  0.1918
   53MOL   H67340297   1.276   0.902   3.321 -1.2981 -1.3198  0.8081
   53MOL   H67440298   1.313   0.877   3.154  1.1258  1.3996  1.0344
   53MOL   H67540299   1.128   1.040   3.101  0.4164 -0.3747  0.1063
   53MOL   H67640300   1.081   1.056   3.267 -0.4278 -0.2271  0.9525
   53MOL   H67740301   1.354   1.144   3.146  0.5946  0.3288  1.1146
   53MOL   H67840302   1.318   1.138   3.310  0.1057  0.7988  1.0755
   53MOL   H67940303   1.137   1.316   3.148  0.2719 -4.3704 -1.3498
   53MOL   H68040304   1.169   1.314   3.312 -0.8504  1.0901 -0.7655
   53MOL   H68140305   1.417   1.386   3.257 -1.0041 -2.4766 -0.0546
   53MOL   H68240306   1.392   1.353   3.092 -0.6823  0.9801 -0.8713
   53MOL   H68340307   1.267   1.581   3.248  1.1391  2.4173 -0.9770
   53MOL   H68440308   1.235   1.567   3.083  0.4499 -1.4971 -0.9826
   53MOL   H68540309   1.504   1.607   3.210  0.7462 -3.1937 -0.7574
   53MOL   C68640310   1.462   1.694   3.037 -0.6621 -0.8082  0.1311
   53MOL   O68740311   1.388   1.726   2.944  0.1427 -0.2148 -0.2862
   53MOL   C68840312   1.609   1.748   3.039 -0.2145  0.0038 -0.9679
   53MOL   C68940313   1.706   1.686   2.942  0.0715 -0.6147  0.7483
   53MOL   C69040314   1.741   1.540   2.961 -0.6861  0.7571 -0.6467
   53MOL   C69140315   1.878   1.511   2.888 -0.3747 -0.1625 -0.3083
   53MOL   C69240316   1.917   1.368   2.860 -0.0459 -0.8198 -0.0107
   53MOL   O69340317   1.842   1.301   2.790 -0.5546  0.3299  0.4535
   53MOL   N69440318   2.034   1.327   2.908 -0.0781 -0.0430 -0.1970
   53MOL   C69540319   2.076   1.186   2.910  0.2827  0.3108  0.1733
   53MOL   C69640320   2.219   1.153   2.872  0.0831 -0.2915  0.3375
   53MOL   C69740321   2.320   1.183   2.980 -0.0984 -0.3932  0.1796
   53MOL   C69840322   2.460   1.148   2.933 -0.0514 -0.4510 -0.1349
   53MOL   C69940323   2.564   1.137   3.048  0.3606  0.5419  0.3227
   53MOL   C70040324   2.714   1.123   3.002 -0.9166 -0.0809  0.3752
   53MOL   N70140325   2.815   1.124   3.103  0.0973  0.1697 -0.5472
   53MOL   H70240326   1.617   1.850   3.001  0.6027  0.7753  1.1966
   53MOL   H70340327   1.644   1.742   3.142 -3.6398 -0.2874  0.2368
   53MOL   H70440328   1.675   1.700   2.838  1.9756  0.2140  0.2638
   53MOL   H70540329   1.796   1.747   2.952 -0.7066  0.4777  1.1487
   53MOL   H70640330   1.659   1.474   2.935 -0.3304  0.9566 -2.3017
   53MOL   H70740331   1.769   1.508   3.062  1.3274  0.1506 -1.3683
   53MOL   H70840332   1.949   1.568   2.948 -2.3721  0.5681  1.4605
   53MOL   H70940333   1.865   1.571   2.798 -0.5807  4.2844  2.5277
   53MOL   H71040334   2.101   1.389   2.952 -2.0205  0.4228  2.1990
   53MOL   H71140335   2.055   1.150   3.010 -1.6518 -0.8631 -0.6318
   53MOL   H71240336   2.026   1.116   2.842  0.5638 -1.3224  1.6117
   53MOL   H71340337   2.227   1.049   2.840 -2.5773 -0.1280 -1.0813
   53MOL   H71440338   2.252   1.212   2.786  1.8334  1.2988  2.0867
   53MOL   H71540339   2.296   1.121   3.066 -1.3508  0.1563  0.2313
   53MOL   H71640340   2.316   1.287   3.014 -0.3849 -1.1102  2.4339
   53MOL   H71740341   2.474   1.052   2.883  2.4144  0.7907 -1.9421
   53MOL   H71840342   2.490   1.219   2.856  1.8411 -1.7887 -0.6868
   53MOL   H71940343   2.556   1.230   3.105 -1.0894  0.0418  0.9643
   53MOL   H72040344   2.534   1.051   3.108  1.4733 -1.4422 -1.9025
   53MOL   H72140345   2.733   1.208   2.937  0.3868 -0.3611  0.3724
   53MOL   H72240346   2.726   1.037   2.936 -1.3505 -0.5271  0.8685
   53MOL   H72340347   2.829   1.216   3.143  1.4998  0.0334 -0.6995
   53MOL   C72440348   2.900   1.028   3.140 -0.4870 -0.4979  0.5640
   53MOL   O72540349   2.895   0.917   3.091  0.1117 -0.0764 -0.6729
   53MOL   C72640350   3.016   1.066   3.238 -0.1432 -0.0910 -0.1669
   53MOL   C72740351   2.989   1.010   3.378  0.4010  0.4479 -0.0137
   53MOL   C72840352   3.093   1.048   3.481  0.0769  0.1029 -0.0718
   53MOL   C72940353   3.087   0.950   3.593 -0.1528 -0.2674 -0.3567
   53MOL   C73040354   3.177   0.984   3.708 -0.0881  0.2774  0.2570
   53MOL   O73140355   3.264   1.065   3.693  0.4470  0.2358 -0.2607
   53MOL   N73240356   3.174   0.906   3.818  0.2093  0.5550  0.8603
   53MOL   C73340357   3.277   0.914   3.920 -0.0651  0.5975  0.5568
   53MOL   C73440358   3.225   0.855   4.048  0.1539  0.1342  0.2370
   53MOL   C73540359   3.305   0.891   4.176  0.1625  1.1848 -0.2838
   53MOL   C73640360   3.410   0.787   4.208 -0.0239  0.5868  0.1441
   53MOL   C73740361   3.479   0.817   4.343  0.4194  0.6344  0.2905
   53MOL   C73840362   3.551   0.692   4.398 -0.3189 -0.2194 -0.7772
   53MOL   N73940363   3.682   0.689   4.342  0.2446 -0.4908 -0.5037
   53MOL   H74040364   3.111   1.031   3.198 -0.5953 -1.2315 -0.2687
   53MOL   H74140365   3.013   1.175   3.236 -0.8900 -0.1013  0.0681
   53MOL   H74240366   2.895   1.054   3.410 -0.1525  0.4632 -1.6341
   53MOL   H74340367   2.985   0.902   3.366  1.7281  0.6027 -2.1197
   53MOL   H74440368   3.058   1.143   3.520 -1.7208 -0.4601 -0.2539
   53MOL   H74540369   3.193   1.051   3.438  0.9512  1.1728  1.9614
   53MOL   H74640370   3.090   0.843   3.571 -2.0952 -0.6017  0.8985
   53MOL   H74740371   2.988   0.953   3.639  0.0052 -0.5264 -0.0072
   53MOL   H74840372   3.101   0.837   3.826 -0.7395  1.5121  0.6977
   53MOL   H74940373   3.374   0.874   3.890 -0.4638 -0.1316  0.2076
   53MOL   H75040374   3.300   1.019   3.937  0.5057  0.4256  0.8463
   53MOL   H75140375   3.123   0.891   4.064  0.9906  2.7384 -0.1709
   53MOL   H75240376   3.218   0.747   4.034  0.3761  0.4002 -2.1296
   53MOL   H75340377   3.229   0.891   4.255 -0.4373  0.2219 -0.8572
   53MOL   H75440378   3.351   0.989   4.168  1.1347  0.6560 -1.2094
   53MOL   H75540379   3.372   0.686   4.213  1.3733 -0.1099 -2.2419
   53MOL   H75640380   3.485   0.773   4.130 -0.7246 -1.3971 -0.1872
   53MOL   H75740381   3.547   0.901   4.333  0.7400  0.1910 -1.5377
   53MOL   H75840382   3.401   0.844   4.414 -0.8903  0.3011 -0.9881
   53MOL   H75940383   3.504   0.599   4.368 -1.5493  0.2258 -0.2494
   53MOL   H76040384   3.565   0.700   4.506 -1.0494 -1.6175 -0.5716
   53MOL   H76140385   3.728   0.779   4.346  0.7275 -0.7113 -0.9808
   53MOL   H76240386   3.747   0.617   4.372  0.4761  0.4719  1.4286
   54MOL     C140387   5.467   0.075   0.938  0.2465 -0.2366  0.3792
   54MOL     O240388   5.477   7.706   0.846  0.3779 -0.5792  0.3982
   54MOL     C340389   5.337   0.080   1.013  0.1853  0.3754  0.1149
   54MOL     C440390   5.267   7.650   1.028 -0.4538 -0.2090 -0.0673
   54MOL     C540391   5.351   7.543   1.105 -0.3969  0.1376  0.2900
   54MOL     C640392   5.267   7.408   1.132 -0.4151 -0.2482  0.6171
   54MOL     C740393   5.132   7.426   1.196 -0.2095 -0.8267  0.1848
   54MOL     O840394   5.040   7.430   1.119 -0.4257 -0.5403 -0.0162
   54MOL     N940395   5.126   7.444   1.331  0.3888  0.5250  0.0491
   54MOL    C1040396   5.000   7.479   1.393 -0.4962 -0.3400  0.7266
   54MOL    C1140397   4.914   7.359   1.436 -0.0343 -0.3710  0.6128
   54MOL    C1240398   4.781   7.407   1.507 -0.3724  0.1546 -0.4742
   54MOL    C1340399   4.678   7.288   1.540  0.2484  0.1315  0.0827
   54MOL    C1440400   4.714   7.189   1.655  0.1059 -0.2015 -0.0155
   54MOL    C1540401   4.603   7.078   1.667  0.6646 -0.3540 -0.6472
   54MOL    N1640402   4.596   6.993   1.550 -0.0308  0.5631  0.0125
   54MOL    H1740403   5.356   0.112   1.116 -1.1720  0.2223  0.4184
   54MOL    H1840404   5.267   0.155   0.977  0.1941  0.4822  0.3196
   54MOL    H1940405   5.185   7.672   1.096 -2.7987  2.0580 -3.4213
   54MOL    H2040406   5.224   7.621   0.932 -0.8314  2.7244 -0.8390
   54MOL    H2140407   5.397   7.586   1.193 -1.0958  0.8910  0.2870
   54MOL    H2240408   5.430   7.502   1.042 -0.1331 -0.8663  1.2438
   54MOL    H2340409   5.324   7.329   1.181 -0.1799 -0.2755  0.2990
   54MOL    H2440410   5.248   7.363   1.035 -2.0875 -0.1573  0.8918
   54MOL    H2540411   5.210   7.438   1.387 -0.1005 -2.4253  0.5378
   54MOL    H2640412   5.028   7.521   1.490 -2.1207 -3.2556  2.5505
   54MOL    H2740413   4.939   7.543   1.330  1.7329 -0.2177 -1.3649
   54MOL    H2840414   4.894   7.291   1.353  0.8431 -0.6860  0.6487
   54MOL    H2940415   4.961   7.301   1.515  0.3491 -0.0589  0.6152
   54MOL    H3040416   4.727   7.482   1.449  0.4548 -0.0511 -1.5204
   54MOL    H3140417   4.821   7.444   1.601  0.6633 -0.4823 -0.6552
   54MOL    H3240418   4.579   7.332   1.552  0.5622  1.0349 -0.5317
   54MOL    H3340419   4.667   7.221   1.455  0.4609  0.9514 -0.6087
   54MOL    H3440420   4.811   7.148   1.629  1.1374  2.6089 -0.8077
   54MOL    H3540421   4.724   7.244   1.749 -2.1595  1.1522 -0.5149
   54MOL    H3640422   4.505   7.125   1.662  1.4773  1.3561 -1.1163
   54MOL    H3740423   4.597   7.019   1.758  2.8211  0.5395  0.1196
   54MOL    H3840424   4.671   7.003   1.483 -1.1050  1.3290 -1.0981
   54MOL    H3940425   5.548   0.137   0.977 -0.3409  0.3664  0.6431
   54MOL    C4040426   4.511   6.887   1.536  0.6024 -0.1003 -0.5096
   54MOL    O4140427   4.423   6.857   1.611 -0.2352 -0.4294 -0.2429
   54MOL    C4240428   4.532   6.786   1.420  0.3161  0.8706  0.6915
   54MOL    C4340429   4.421   6.798   1.315  0.1936 -0.1812 -0.6246
   54MOL    C4440430   4.387   6.942   1.260 -0.0444  0.1620  0.0494
   54MOL    C4540431   4.507   7.022   1.202 -0.1665  0.3263 -0.4182
   54MOL    C4640432   4.488   7.177   1.204  0.5010  0.0659  0.4939
   54MOL    O4740433   4.436   7.227   1.298 -0.1192 -0.3988 -0.3791
   54MOL    N4840434   4.542   7.253   1.105 -0.1369 -0.2878 -0.3468
   54MOL    C4940435   4.547   7.398   1.114  0.4722 -0.8103  0.0412
   54MOL    C5040436   4.676   7.453   1.047 -0.2121  0.4967  0.2564
   54MOL    C5140437   4.678   7.610   1.057  0.4464  0.3236  0.1829
   54MOL    C5240438   4.817   7.662   1.023 -0.2304  0.3323 -0.5482
   54MOL    C5340439   4.815   0.110   1.040 -0.1812 -0.4084 -0.7769
   54MOL    C5440440   4.964   0.152   1.059 -0.2444  0.3088 -0.4273
   54MOL    N5540441   4.981   0.289   1.100  0.1184 -0.5549  0.2725
   54MOL    H5640442   4.634   6.791   1.382  0.3042  0.8856  0.6619
   54MOL    H5740443   4.536   6.685   1.460 -1.0938  0.8717  0.8597
   54MOL    H5840444   4.446   6.738   1.228  2.5728  0.6965 -0.5651
   54MOL    H5940445   4.325   6.758   1.348  0.1493 -1.0659 -1.7954
   54MOL    H6040446   4.341   7.002   1.339  1.8072  1.9343 -0.1928
   54MOL    H6140447   4.311   6.937   1.182  1.3774 -1.2290 -1.2853
   54MOL    H6240448   4.530   6.994   1.099  2.4608  1.0137 -0.0421
   54MOL    H6340449   4.588   6.992   1.268  0.7438  1.7903 -0.8315
   54MOL    H6440450   4.608   7.213   1.040  1.3380  0.1001  0.8903
   54MOL    H6540451   4.456   7.427   1.062 -0.6422 -0.0075  2.3450
   54MOL    H6640452   4.541   7.445   1.212  1.5969  2.3837 -1.3722
   54MOL    H6740453   4.763   7.421   1.104  0.3780  0.3509 -0.7137
   54MOL    H6840454   4.687   7.407   0.949  0.2717 -0.7883  0.9131
   54MOL    H6940455   4.659   7.633   1.161  1.9156 -3.8794  1.4902
   54MOL    H7040456   4.602   7.644   0.987 -2.4601 -1.4171  2.3979
   54MOL    H7140457   4.889   7.620   1.092 -0.1994 -2.2725 -2.1241
   54MOL    H7240458   4.847   7.633   0.922 -1.7823 -2.3065 -0.2821
   54MOL    H7340459   4.765   0.156   0.956 -0.0005  0.6810 -0.2989
   54MOL    H7440460   4.758   0.134   1.130  1.4220  1.7332 -0.2905
   54MOL    H7540461   5.016   0.125   0.967 -0.5761  1.7315 -1.0312
   54MOL    H7640462   5.006   0.097   1.144 -1.9348  0.2221  0.3560
   54MOL    H7740463   4.981   0.301   1.200 -0.6514  1.0898  0.0954
   54MOL    C7840464   5.044   0.385   1.031  0.2190 -0.4434  0.1827
   54MOL    O7940465   5.072   0.372   0.914 -0.2933 -0.1244 -0.6265
   54MOL    C8040466   5.071   0.517   1.104 -0.4151 -0.7676 -0.2085
   54MOL    C8140467   5.212   0.566   1.073  0.2915  0.5173 -0.3467
   54MOL    C8240468   5.316   0.487   1.157 -0.3761 -0.5369 -0.0044
   54MOL    C8340469   5.459   0.533   1.151  0.4565  0.2127 -0.9104
   54MOL    C8440470   5.529   0.494   1.020 -0.3528  0.6578  0.4710
   54MOL    O8540471   5.523   0.381   0.972  0.2382 -0.1094 -0.3557
   54MOL    N8640472   5.586   0.593   0.951  0.0960 -0.0386  0.2783
   54MOL    C8740473   5.626   0.594   0.809  0.6840 -0.5923 -0.1602
   54MOL    C8840474   5.638   0.739   0.755 -0.5898  0.6288 -0.5134
   54MOL    C8940475   5.662   0.751   0.607  0.0506  0.0401  0.1232
   54MOL    C9040476   5.802   0.704   0.571  0.0977  0.4028  0.4595
   54MOL    C9140477   5.843   0.741   0.428 -0.3102 -0.3143  0.0072
   54MOL    C9240478   5.994   0.693   0.392  0.5256 -0.0202 -0.1833
   54MOL    N9340479   6.060   0.790   0.300 -0.3648  0.0251  0.0101
   54MOL    H9440480   5.000   0.587   1.061  1.1844  1.3109  0.4184
   54MOL    H9540481   5.065   0.522   1.212 -1.3516  3.3141 -0.3554
   54MOL    H9640482   5.226   0.549   0.966 -0.0718 -1.3325 -0.1099
   54MOL    H9740483   5.229   0.673   1.087  0.7830  0.2242  1.4375
   54MOL    H9840484   5.321   0.382   1.126 -0.5574 -0.7635  0.7266
   54MOL    H9940485   5.267   0.477   1.253 -0.9384 -1.1278 -0.3511
   54MOL   H10040486   5.514   0.511   1.242 -0.2144  2.3475  0.0338
   54MOL   H10140487   5.456   0.642   1.149 -0.7522  0.2190  0.4247
   54MOL   H10240488   5.565   0.683   0.992  0.7125  0.5439 -0.6606
   54MOL   H10340489   5.726   0.553   0.796  0.5233 -0.9057 -0.4162
   54MOL   H10440490   5.559   0.541   0.741  2.5726 -4.0025  0.5321
   54MOL   H10540491   5.540   0.784   0.767 -1.5437 -1.2787 -1.0917
   54MOL   H10640492   5.708   0.800   0.814 -1.2039  0.5887  0.2673
   54MOL   H10740493   5.637   0.852   0.575 -1.6837  0.2435  2.0443
   54MOL   H10840494   5.585   0.691   0.560 -0.7809  0.0407  1.4693
   54MOL   H10940495   5.869   0.757   0.639 -2.0018  0.8675  2.1947
   54MOL   H11040496   5.824   0.599   0.586 -3.7033 -0.4820  0.1571
   54MOL   H11140497   5.777   0.698   0.352  0.0681 -1.1082  0.1265
   54MOL   H11240498   5.827   0.848   0.420 -0.3850 -0.1565  1.9621
   54MOL   H11340499   5.988   0.595   0.346  0.3787  0.2639 -0.7797
   54MOL   H11440500   6.050   0.693   0.486 -0.5936  0.9849  0.5054
   54MOL   H11540501   5.998   0.833   0.233 -3.4608 -0.8689  2.1856
   54MOL   C11640502   6.180   0.837   0.313 -0.1672 -0.2562 -0.5034
   54MOL   O11740503   6.266   0.782   0.383 -0.1210 -0.6752 -0.4126
   54MOL   C11840504   6.207   0.970   0.250 -0.8554  0.0442  0.7492
   54MOL   C11940505   6.229   1.086   0.348 -0.3902 -0.2988  0.4566
   54MOL   C12040506   6.106   1.135   0.418  0.7599 -0.6709 -0.0723
   54MOL   C12140507   6.023   1.230   0.330  0.9301  0.0641  0.0246
   54MOL   C12240508   5.908   1.291   0.414 -0.1769  0.4420 -0.1144
   54MOL   O12340509   5.848   1.218   0.493  0.6460  0.0925 -0.0319
   54MOL   N12440510   5.870   1.414   0.376  0.6942 -0.0947  0.3827
   54MOL   C12540511   5.768   1.492   0.443 -0.2526 -0.4114  0.7416
   54MOL   C12640512   5.633   1.495   0.359  0.2318  0.1104  0.0438
   54MOL   C12740513   5.534   1.568   0.433  0.1864 -0.1932  0.1871
   54MOL   C12840514   5.394   1.579   0.367  0.0862 -0.3106  1.1315
   54MOL   C12940515   5.393   1.637   0.223 -0.2722 -0.3575 -0.2958
   54MOL   C13040516   5.449   1.791   0.225  0.0765  0.0695 -1.3773
   54MOL   N13140517   5.485   1.842   0.095  0.1791  0.7447  0.1261
   54MOL   H13240518   6.306   0.967   0.204 -0.8264 -1.8851  0.9015
   54MOL   H13340519   6.141   1.004   0.170  0.2278 -0.8092 -0.5491
   54MOL   H13440520   6.299   1.052   0.423 -1.3022 -0.7710  1.1051
   54MOL   H13540521   6.287   1.162   0.295  1.9544 -0.9265  2.0718
   54MOL   H13640522   6.126   1.180   0.516  0.8283 -0.5398 -0.1464
   54MOL   H13740523   6.044   1.047   0.435 -1.9989  1.2819  0.2528
   54MOL   H13840524   5.970   1.176   0.252  0.1773 -0.1556  0.6823
   54MOL   H13940525   6.084   1.307   0.283  0.3760 -0.2273 -1.1861
   54MOL   H14040526   5.907   1.463   0.296 -2.4084  3.5645  1.0484
   54MOL   H14140527   5.758   1.441   0.538 -2.1626  0.8246  1.2375
   54MOL   H14240528   5.810   1.592   0.456  0.5047 -0.7003  0.4784
   54MOL   H14340529   5.662   1.547   0.267  0.8818  1.2280  0.8772
   54MOL   H14440530   5.599   1.395   0.332 -0.3282  0.4393 -0.5021
   54MOL   H14540531   5.574   1.668   0.445 -3.0134  0.9959  1.3932
   54MOL   H14640532   5.519   1.518   0.529  1.5233 -0.9064  0.0439
   54MOL   H14740533   5.357   1.477   0.365 -1.4852  0.2400  0.9585
   54MOL   H14840534   5.333   1.629   0.443 -0.1998  0.3337  0.4960
   54MOL   H14940535   5.456   1.576   0.159  2.4871  1.7869  0.2882
   54MOL   H15040536   5.297   1.618   0.174  0.7422 -1.9072 -1.7452
   54MOL   H15140537   5.540   1.792   0.285 -0.8733  1.1688  0.0895
   54MOL   H15240538   5.372   1.846   0.279 -0.5078 -0.8939 -1.2074
   54MOL   H15340539   5.481   1.774   0.021 -0.6610  0.9958 -0.0568
   54MOL   C15440540   5.523   1.966   0.080 -0.4969  0.6101  0.2584
   54MOL   O15540541   5.520   2.053   0.169  0.2964 -0.4446 -0.1306
   54MOL   C15640542   5.578   1.998   7.648 -0.0165 -0.1387  0.2949
   54MOL   C15740543   5.614   2.142   7.630 -0.4540 -0.2616  0.1923
   54MOL   C15840544   5.495   2.249   7.638 -0.7058  0.3980  0.2373
   54MOL   C15940545   5.549   2.390   7.590 -0.1564  0.1614  0.2840
   54MOL   C16040546   5.596   2.394   7.441  0.8860 -0.5644  0.2997
   54MOL   O16140547   5.518   2.360   7.348  0.1541  0.5014 -0.1173
   54MOL   N16240548   5.713   2.448   7.417  0.5918  0.0725 -0.0018
   54MOL   C16340549   5.769   2.460   7.283 -0.3807 -0.0230 -0.2681
   54MOL   C16440550   5.863   2.340   7.249  0.0078 -0.0036  0.1554
   54MOL   C16540551   5.950   2.312   7.372  0.0574 -0.1143  0.2497
   54MOL   C16640552   6.060   2.219   7.335 -0.1081 -0.7486  0.0851
   54MOL   C16740553   6.143   2.177   7.452 -0.0640 -0.3641  0.5141
   54MOL   C16840554   6.269   2.085   7.412 -0.0056  0.0457  0.3361
   54MOL   N16940555   6.238   1.972   7.327  0.2010  0.2043  0.3205
   54MOL   H17040556   5.666   1.938   7.622  1.5990  2.5260 -0.5963
   54MOL   H17140557   5.506   1.974   7.570  0.5152 -2.1177  0.3928
   54MOL   H17240558   5.685   2.161   0.002 -1.3018 -0.5804  1.0181
   54MOL   H17340559   5.668   2.148   7.535 -0.8620 -0.7481 -0.0734
   54MOL   H17440560   5.451   2.262   0.028  0.6461  0.4055  0.8584
   54MOL   H17540561   5.417   2.213   7.571 -0.6252 -0.0595  0.3861
   54MOL   H17640562   5.637   2.410   7.650 -0.3163 -1.9293  1.2640
   54MOL   H17740563   5.484   2.473   7.617  0.6676  0.3002  1.9228
   54MOL   H17840564   5.756   2.507   7.487  1.1388 -0.8960  0.4734
   54MOL   H17940565   5.691   2.462   7.207 -0.1671  0.8428 -0.4652
   54MOL   H18040566   5.812   2.560   7.282 -1.7060  0.5519  0.1552
   54MOL   H18140567   5.809   2.250   7.219 -1.6462  1.5341 -1.5731
   54MOL   H18240568   5.928   2.380   7.171  0.1572 -0.7737 -0.1208
   54MOL   H18340569   5.891   2.279   7.457  0.1803  2.0789  1.2342
   54MOL   H18440570   5.992   2.408   7.403  0.7770  0.3514 -2.0913
   54MOL   H18540571   6.020   2.131   7.286 -2.9081  0.8794 -0.6047
   54MOL   H18640572   6.129   2.264   7.264  2.3382 -0.2015  2.6828
   54MOL   H18740573   6.179   2.265   7.506  1.8855 -0.3632 -0.7334
   54MOL   H18840574   6.092   2.114   7.525 -0.4935 -2.9449 -1.9295
   54MOL   H18940575   6.316   2.055   7.506  0.1180  0.4318  0.3997
   54MOL   H19040576   6.345   2.145   7.361  0.4177  0.1108  1.0343
   54MOL   H19140577   6.270   1.981   7.232 -0.4751  0.4301  0.1167
   54MOL   C19240578   6.166   1.868   7.361 -0.2892  0.3444 -0.4004
   54MOL   O19340579   6.130   1.850   7.479  0.3031  0.1063  0.2853
   54MOL   C19440580   6.134   1.764   7.253  0.5609 -0.0642  0.2109
   54MOL   C19540581   6.166   1.618   7.294 -0.2323 -0.2119  0.6649
   54MOL   C19640582   6.129   1.516   7.185 -0.9479 -0.4290  0.0514
   54MOL   C19740583   6.191   1.378   7.226  0.0931  0.0512  0.3467
   54MOL   C19840584   6.151   1.267   7.139  0.7732 -0.6409  0.9468
   54MOL   O19940585   6.054   1.287   7.058  0.0099 -0.1377 -0.2475
   54MOL   N20040586   6.223   1.157   7.146 -1.1044 -0.5554 -0.1982
   54MOL   C20140587   6.210   1.043   7.053  0.1473 -0.4384  0.3903
   54MOL   C20240588   6.301   1.044   6.930  0.1448 -0.3339 -0.2193
   54MOL   C20340589   6.305   0.927   6.838 -0.3068 -0.0082  0.1168
   54MOL   C20440590   6.416   0.950   6.733  0.4548 -0.8127 -0.6489
   54MOL   C20540591   6.412   0.851   6.617 -0.3757 -0.2386  0.3415
   54MOL   C20640592   6.451   0.703   6.651  0.0735  0.2291  0.1985
   54MOL   N20740593   6.425   0.617   6.542 -0.2949  0.3066  0.0066
   54MOL   H20840594   6.027   1.771   7.232  0.6722  0.6764 -0.1198
   54MOL   H20940595   6.181   1.776   7.155  2.5984 -0.5190  1.1145
   54MOL   H21040596   6.273   1.608   7.313 -0.0764 -2.5259 -1.1279
   54MOL   H21140597   6.110   1.602   7.387 -0.1571  1.3255  0.9795
   54MOL   H21240598   6.166   1.549   7.087  0.2037 -0.4288  0.4811
   54MOL   H21340599   6.023   1.507   7.161 -0.9098  3.1487 -1.9307
   54MOL   H21440600   6.152   1.348   7.323 -0.8769  0.3186  0.0497
   54MOL   H21540601   6.299   1.375   7.235  0.1695 -3.1814 -0.9219
   54MOL   H21640602   6.279   1.149   7.230 -1.3000  0.5974  0.0509
   54MOL   H21740603   6.235   0.954   7.110  1.8759  0.0565  0.4522
   54MOL   H21840604   6.107   1.030   7.019  0.8086 -1.3009 -1.3465
   54MOL   H21940605   6.285   1.131   6.865  0.0362 -0.3240 -0.1792
   54MOL   H22040606   6.396   1.064   6.978 -0.1003  1.0602 -0.2793
   54MOL   H22140607   6.218   0.907   6.776  1.3874  1.9228 -2.9951
   54MOL   H22240608   6.317   0.834   6.894  0.2133  0.3805  0.6469
   54MOL   H22340609   6.406   1.053   6.699 -0.2873 -1.2174 -1.6878
   54MOL   H22440610   6.510   0.931   6.785 -0.1257 -1.3361  0.2260
   54MOL   H22540611   6.319   0.853   6.560 -0.8154 -1.2543  1.0024
   54MOL   H22640612   6.495   0.880   6.553  0.8722 -0.1291  1.9822
   54MOL   H22740613   6.390   0.669   6.734 -2.4767  0.4380 -1.5559
   54MOL   H22840614   6.558   0.692   6.668 -0.0726 -1.7680 -0.0662
   54MOL   H22940615   6.330   0.615   6.508 -0.6183  0.0254  0.9240
   54MOL   C23040616   6.515   0.571   6.458 -0.4259 -0.4049  0.1453
   54MOL   O23140617   6.635   0.577   6.476 -0.3259  0.1702 -0.1811
   54MOL   C23240618   6.457   0.505   6.335  0.4307  0.6729 -0.4596
   54MOL   C23340619   6.462   0.579   6.203 -0.3598 -1.0061  0.1150
   54MOL   C23440620   6.601   0.571   6.137 -0.1261 -0.3230  0.1532
   54MOL   C23540621   6.622   0.672   6.024 -0.0826 -0.2338  0.3136
   54MOL   C23640622   6.735   0.621   5.922  0.1854  0.1256 -0.0037
   54MOL   O23740623   6.840   0.593   5.968 -0.1165  0.3398  0.1067
   54MOL   N23840624   6.705   0.623   5.793  0.7094  0.5854 -0.0167
   54MOL   C23940625   6.796   0.574   5.681  0.0875  0.3005 -0.0074
   54MOL   C24040626   6.841   0.704   5.601 -0.1336  0.1912  0.9005
   54MOL   C24140627   6.910   0.810   5.677  0.1685 -0.6752 -0.1963
   54MOL   C24240628   7.052   0.774   5.726  0.8023 -0.5246 -0.2082
   54MOL   C24340629   7.100   0.874   5.830 -0.2350 -0.3627 -0.0054
   54MOL   C24440630   7.054   0.837   5.971 -0.0701  0.8012  0.4433
   54MOL   N24540631   7.077   0.940   6.072  0.5519  0.3854  0.0234
   54MOL   H24640632   6.511   0.411   6.328  0.7661  0.8804 -0.6244
   54MOL   H24740633   6.354   0.483   6.363  0.4782 -0.8365 -1.4367
   54MOL   H24840634   6.394   0.542   6.126  1.0312 -0.8050 -1.2409
   54MOL   H24940635   6.433   0.682   6.226 -2.5445 -1.6416  0.2545
   54MOL   H25040636   6.619   0.470   6.100  1.1726  0.1380 -0.5100
   54MOL   H25140637   6.678   0.592   6.211  1.8544 -0.7466 -1.7303
   54MOL   H25240638   6.643   0.770   6.069  1.4091 -0.7220  0.7119
   54MOL   H25340639   6.532   0.692   5.966 -0.0243 -0.5650  0.1119
   54MOL   H25440640   6.619   0.669   5.767  0.0149 -0.4823  0.3658
   54MOL   H25540641   6.881   0.511   5.710  1.0708  2.0145  0.9739
   54MOL   H25640642   6.738   0.511   5.614 -0.1342  2.3191 -1.7673
   54MOL   H25740643   6.904   0.686   5.514 -0.8788 -1.8813  0.7618
   54MOL   H25840644   6.748   0.746   5.564  0.0289  2.1857  2.6822
   54MOL   H25940645   6.853   0.838   5.765  0.8645 -0.0931  0.0814
   54MOL   H26040646   6.912   0.908   5.629  3.3603 -0.4337  0.2822
   54MOL   H26140647   7.047   0.671   5.761 -1.9554 -0.3872 -0.1434
   54MOL   H26240648   7.119   0.773   5.639  1.2389 -2.3704  0.1265
   54MOL   H26340649   7.209   0.881   5.825 -0.4144  1.9214 -1.7807
   54MOL   H26440650   7.068   0.974   5.797  1.2633  0.3759  0.7462
   54MOL   H26540651   7.112   0.750   6.004 -3.8165 -2.6695 -1.6350
   54MOL   H26640652   6.951   0.804   5.960  0.1253  0.1273  0.6022
   54MOL   H26740653   7.161   0.930   6.125  0.6085  1.6944  0.1881
   54MOL   C26840654   7.000   1.046   6.096 -0.1126  0.1119 -0.7164
   54MOL   O26940655   6.884   1.045   6.061  0.2030  1.1428 -0.0104
   54MOL   C27040656   7.063   1.156   6.177  0.8421 -0.1981  0.6717
   54MOL   C27140657   6.954   1.228   6.255  0.5268 -0.4875  0.1688
   54MOL   C27240658   7.005   1.331   6.359  0.5362  0.2051 -0.7163
   54MOL   C27340659   6.889   1.394   6.446 -0.7673  0.1879  0.3712
   54MOL   C27440660   6.938   1.519   6.524  0.2838 -0.3439 -0.4795
   54MOL   O27540661   7.000   1.607   6.467  0.0626 -0.3754 -0.3053
   54MOL   N27640662   6.912   1.530   6.653  0.4557  0.1539 -0.2893
   54MOL   C27740663   6.987   1.629   6.731  0.4368  0.1869  0.1455
   54MOL   C27840664   6.932   1.632   6.876  0.3813 -0.0917 -0.1157
   54MOL   C27940665   6.802   1.718   6.896 -0.3379  0.2437  0.0077
   54MOL   C28040666   6.749   1.708   7.039  0.2797 -0.6574  0.3678
   54MOL   C28140667   6.631   1.804   7.062 -0.2772 -0.2401  0.3247
   54MOL   C28240668   6.546   1.787   7.184 -0.1759 -0.4270  0.5394
   54MOL   N28340669   6.621   1.795   7.310 -0.1274  0.5093 -0.1622
   54MOL   H28440670   7.138   1.131   6.252  0.4616  0.0682  1.1435
   54MOL   H28540671   7.113   1.215   6.100 -1.0108  0.7891  0.1787
   54MOL   H28640672   6.876   1.276   6.195 -0.5695 -2.9879 -0.4439
   54MOL   H28740673   6.906   1.150   6.313 -2.2776 -0.1088 -1.5531
   54MOL   H28840674   7.066   1.406   6.309  2.3855 -1.1331 -0.5194
   54MOL   H28940675   7.084   1.284   6.417  0.8999 -1.8148 -2.7726
   54MOL   H29040676   6.842   1.316   6.506 -1.1856  0.0207 -0.1706
   54MOL   H29140677   6.815   1.433   6.376  0.0974 -0.9684 -1.2212
   54MOL   H29240678   6.852   1.469   6.705  0.8347 -1.0537 -1.2465
   54MOL   H29340679   7.095   1.614   6.735  0.4132  0.0291  0.2052
   54MOL   H29440680   6.979   1.722   6.676 -2.0277  0.2989  0.6256
   54MOL   H29540681   6.908   1.537   6.924 -1.7453  0.4080 -0.1253
   54MOL   H29640682   7.017   1.657   6.939  2.1030 -1.5051 -1.8521
   54MOL   H29740683   6.730   1.677   6.825  0.1993 -1.2589  0.3097
   54MOL   H29840684   6.824   1.815   6.851  3.7284 -0.5892 -0.0022
   54MOL   H29940685   6.720   1.608   7.073 -1.8181  0.0045  0.5780
   54MOL   H30040686   6.829   1.744   7.103  0.5966 -0.6436 -0.0362
   54MOL   H30140687   6.681   1.900   7.062  2.7926 -1.7725  1.0305
   54MOL   H30240688   6.570   1.800   6.972 -2.1713 -0.1182  1.5805
   54MOL   H30340689   6.492   1.692   7.183 -2.2845  0.6918  2.9663
   54MOL   H30440690   6.479   1.872   7.178  1.2852  0.7303  0.3730
   54MOL   H30540691   6.680   1.720   7.344 -0.4532  0.3209 -0.0039
   54MOL   C30640692   6.617   1.904   7.390  0.2274  0.3723  0.2734
   54MOL   O30740693   6.557   2.004   7.358  0.2630  0.2912  0.3274
   54MOL   C30840694   6.707   1.888   7.518 -0.8173  0.3436 -0.7665
   54MOL   C30940695   6.705   2.013   7.609  0.3017 -0.4186  0.5004
   54MOL   C31040696   6.805   2.009   0.018 -0.3888  0.3460  0.4534
   54MOL   C31140697   6.775   2.103   0.136  0.3250 -0.2847 -0.4239
   54MOL   C31240698   6.788   2.248   0.105 -1.1273  0.5730  0.0395
   54MOL   O31340699   6.872   2.290   0.024 -0.8873 -0.1279  0.9872
   54MOL   N31440700   6.695   2.329   0.156 -0.4955  0.4016 -0.1937
   54MOL   C31540701   6.688   2.471   0.132 -0.9972  0.3122  0.8713
   54MOL   C31640702   6.615   2.492   7.704 -0.2876 -0.0745  0.2826
   54MOL   C31740703   6.574   2.643   7.687 -0.4175 -0.3027  0.3355
   54MOL   C31840704   6.525   2.668   7.549  0.3779  0.3588 -0.0300
   54MOL   C31940705   6.487   2.811   7.531  0.5827 -0.1491 -0.3358
   54MOL   C32040706   6.441   2.849   7.389 -0.2134 -0.3291 -0.7485
   54MOL   N32140707   6.330   2.769   7.347 -0.2695  0.4653  0.2548
   54MOL   H32240708   6.686   1.801   7.579  2.5994 -1.3202 -1.7904
   54MOL   H32340709   6.808   1.871   7.478 -0.0527  0.8805  0.8963
   54MOL   H32440710   6.714   2.107   7.554  1.8973 -2.4237 -2.8724
   54MOL   H32540711   6.600   2.006   7.638  0.0937 -1.2846 -0.3955
   54MOL   H32640712   6.901   2.026   7.678 -0.8469  1.6862 -0.0055
   54MOL   H32740713   6.787   1.907   0.050 -1.3049  0.7918  1.3991
   54MOL   H32840714   6.841   2.092   0.222 -1.5090  1.4753  1.2494
   54MOL   H32940715   6.669   2.098   0.160 -0.0121  1.0463 -1.5285
   54MOL   H33040716   6.628   2.286   0.218 -0.9153 -1.1441 -1.6831
   54MOL   H33140717   6.644   2.529   0.213  2.1001  1.8445  1.5214
   54MOL   H33240718   6.790   2.508   0.118  0.3538 -2.5809  2.4466
   54MOL   H33340719   6.691   2.471   7.629 -0.0113 -0.3039  0.6247
   54MOL   H33440720   6.535   2.419   7.688 -0.4873  0.3503 -0.6767
   54MOL   H33540721   6.661   2.708   7.695  1.7569 -2.9353 -0.9626
   54MOL   H33640722   6.495   2.683   0.043  1.7309 -0.7941  3.4281
   54MOL   H33740723   6.593   2.639   7.469 -1.0774  0.3979 -1.2915
   54MOL   H33840724   6.442   2.602   7.526  0.3407 -0.3303  2.0332
   54MOL   H33940725   6.413   2.844   7.604  0.5117 -0.5135 -0.2423
   54MOL   H34040726   6.578   2.870   7.542  1.1735 -0.9177 -1.0524
   54MOL   H34140727   6.519   2.816   7.319 -1.1129 -3.0531 -0.5325
   54MOL   H34240728   6.415   2.955   7.391 -1.3450 -0.6070 -0.2849
   54MOL   H34340729   6.348   2.670   7.342  0.3401  0.5206  1.3515
   54MOL   C34440730   6.210   2.803   7.296 -0.5107  0.2161 -0.4230
   54MOL   O34540731   6.173   2.916   7.276 -0.3819 -0.3829 -0.3630
   54MOL   C34640732   6.107   2.690   7.269 -0.4882 -0.5980  0.3982
   54MOL   C34740733   6.085   2.684   7.119  0.7183 -0.1660  0.2217
   54MOL   C34840734   6.200   2.624   7.041  0.3877  0.6193  0.3429
   54MOL   C34940735   6.178   2.584   6.894  0.0573 -0.0585 -0.3122
   54MOL   C35040736   6.052   2.492   6.878 -0.5861 -0.5905  0.0181
   54MOL   O35140737   6.059   2.375   6.912  0.0971 -0.1085 -0.2932
   54MOL   N35240738   5.951   2.537   6.804 -0.1595  0.0652 -0.2951
   54MOL   C35340739   5.827   2.464   6.780  0.7447  0.0014 -0.7723
   54MOL   C35440740   5.735   2.470   6.904 -0.1610  0.0413 -0.5659
   54MOL   C35540741   5.595   2.418   6.881  0.1546  0.0363  0.1664
   54MOL   C35640742   5.527   2.379   7.012  0.9685 -0.0600  0.7267
   54MOL   C35740743   5.388   2.323   6.989 -0.2701 -0.5380  0.6822
   54MOL   C35840744   5.325   2.268   7.112  0.7462 -0.9159 -0.1506
   54MOL   N35940745   5.182   2.249   7.086 -0.2181  0.1903 -0.2264
   54MOL   H36040746   6.143   2.593   7.304  2.7985  0.9432  1.5194
   54MOL   H36140747   6.020   2.717   7.328 -0.7845  0.4993 -0.5144
   54MOL   H36240748   6.002   2.613   7.109  0.5049  0.1586 -0.3134
   54MOL   H36340749   6.054   2.776   7.070  2.0236  0.0800 -0.1573
   54MOL   H36440750   6.216   2.533   7.099  0.8239  1.0388  0.8912
   54MOL   H36540751   6.289   2.687   7.041  1.5141 -0.9112 -2.1501
   54MOL   H36640752   6.255   2.516   6.860 -0.7797 -0.0194 -2.3619
   54MOL   H36740753   6.157   2.674   6.836  0.4389 -0.6103 -1.3189
   54MOL   H36840754   5.968   2.629   6.765  1.0150  0.4877  1.1561
   54MOL   H36940755   5.789   2.519   6.694  2.2412  5.3443  1.7518
   54MOL   H37040756   5.846   2.363   6.743 -1.2628 -0.5986 -0.2419
   54MOL   H37140757   5.784   2.429   6.992 -0.4320  1.0565  0.0696
   54MOL   H37240758   5.706   2.574   6.922 -1.0733 -0.3282  0.1613
   54MOL   H37340759   5.590   2.325   6.825 -2.0250  0.0467  0.2999
   54MOL   H37440760   5.535   2.489   6.825 -1.0228 -0.6525  0.5502
   54MOL   H37540761   5.586   2.304   7.064  1.0416 -0.2129  0.4253
   54MOL   H37640762   5.520   2.465   7.078 -2.7712 -0.5609  1.0917
   54MOL   H37740763   5.326   2.409   6.966 -1.3118 -1.1083  1.3143
   54MOL   H37840764   5.381   2.248   6.909 -0.0732 -0.6002  0.7220
   54MOL   H37940765   5.335   2.344   7.190  1.9441 -3.3077  2.0873
   54MOL   H38040766   5.377   2.177   7.141  1.6852 -0.2266  0.3813
   54MOL   H38140767   5.161   2.166   7.032  0.8816  0.0919 -0.5262
   54MOL   C38240768   5.084   2.332   7.104  0.2670 -0.5520 -0.3856
   54MOL   O38340769   5.095   2.443   7.163  0.2165 -0.4201  0.1675
   54MOL   C38440770   4.939   2.289   7.068 -0.0484 -0.1582  0.0024
   54MOL   C38540771   4.897   2.334   6.925 -0.2621 -0.1994 -0.5297
   54MOL   C38640772   4.924   2.230   6.817  0.1638  0.3753 -0.1409
   54MOL   C38740773   4.876   2.281   6.686 -0.2055  0.0920 -0.4858
   54MOL   C38840774   4.973   2.378   6.622  0.1292 -0.3934  0.1579
   54MOL   O38940775   5.070   2.340   6.550  0.4292  0.0365 -0.3600
   54MOL   N39040776   4.945   2.507   6.650  0.0409  0.1050 -0.7551
   54MOL   C39140777   5.016   2.614   6.590 -0.2995  0.0956  0.1198
   54MOL   C39240778   4.987   2.743   6.664 -0.2870 -0.1608 -0.5628
   54MOL   C39340779   5.033   2.868   6.593 -0.0832 -0.5533 -0.1192
   54MOL   C39440780   4.998   3.004   6.667  0.0952  0.7625 -0.6533
   54MOL   C39540781   4.852   3.039   6.636  0.4837 -0.2080  0.7234
   54MOL   C39640782   4.789   3.139   6.735  0.4936  0.1890 -0.1790
   54MOL   N39740783   4.878   3.248   6.754  0.0076  0.2962  0.3621
   54MOL   H39840784   4.925   2.181   7.070 -1.1914 -0.0027  1.3155
   54MOL   H39940785   4.867   2.334   7.137 -0.9285 -1.2621 -0.1812
   54MOL   H40040786   4.797   2.375   6.935 -1.0600 -1.9567 -1.0400
   54MOL   H40140787   4.952   2.427   6.908  0.2134 -0.6794 -1.6722
   54MOL   H40240788   4.870   2.145   6.860 -0.8278  2.6148  3.2538
   54MOL   H40340789   5.026   2.197   6.800 -1.0818 -2.5675 -2.3800
   54MOL   H40440790   4.773   2.318   6.681 -0.0577  0.4791 -0.6281
   54MOL   H40540791   4.869   2.198   6.616  1.0002  0.0294 -0.5414
   54MOL   H40640792   4.862   2.530   6.703  0.8023 -1.9754  1.4278
   54MOL   H40740793   5.122   2.590   6.580 -0.7260 -2.9855  2.1834
   54MOL   H40840794   4.983   2.627   6.488 -0.0919 -0.5334 -0.0299
   54MOL   H40940795   4.880   2.751   6.684 -0.5300 -1.4091 -1.3148
   54MOL   H41040796   5.044   2.739   6.757  1.7088  2.6784 -1.6156
   54MOL   H41140797   4.999   2.871   6.489 -0.5666  1.6530  0.0686
   54MOL   H41240798   5.141   2.864   6.579 -0.2614 -2.1794 -1.1522
   54MOL   H41340799   5.017   2.985   6.773  0.0112 -1.2253 -0.9691
   54MOL   H41440800   5.062   3.082   6.628 -1.0730  1.5744 -0.9715
   54MOL   H41540801   4.842   3.083   6.537  0.2223  3.4844  2.3349
   54MOL   H41640802   4.788   2.951   6.634 -0.8396  0.7480 -2.7173
   54MOL   H41740803   4.783   3.090   6.832  2.2367 -3.3755 -1.7345
   54MOL   H41840804   4.689   3.177   6.715  1.1601  1.8509 -0.4104
   54MOL   H41940805   4.938   3.278   6.679  0.3598 -0.4032  0.3604
   54MOL   C42040806   4.880   3.327   6.859  0.5478 -0.0084  0.1789
   54MOL   O42140807   4.782   3.341   6.936  0.2468  0.8691 -0.4165
   54MOL   C42240808   5.003   3.417   6.875  0.9136  0.0595  0.5391
   54MOL   C42340809   5.107   3.376   6.981 -0.0183 -0.0268  0.1314
   54MOL   C42440810   5.150   3.234   6.982 -0.2379 -0.1647  0.3928
   54MOL   C42540811   5.246   3.178   7.093  0.2286  1.0892 -0.8716
   54MOL   C42640812   5.373   3.255   7.115 -0.5169 -0.8119  0.2321
   54MOL   O42740813   5.410   3.343   7.037 -0.3479 -0.3948  0.0207
   54MOL   N42840814   5.449   3.216   7.222 -0.4949 -0.2101 -0.5150
   54MOL   C42940815   5.570   3.277   7.264  0.5750 -0.3630  0.2367
   54MOL   C43040816   5.576   3.259   7.418 -0.6007 -0.8665 -0.0907
   54MOL   C43140817   5.701   3.327   7.482  0.3715 -0.1754 -0.8894
   54MOL   C43240818   5.700   3.317   7.633  0.3270 -0.1209  0.0133
   54MOL   C43340819   5.568   3.362   7.698 -0.6182  0.1586  0.0457
   54MOL   C43440820   5.572   3.385   0.138  0.3949 -0.4433  1.0581
   54MOL   N43540821   5.454   3.460   0.190  0.7000  0.1850 -0.5580
   54MOL   H43640822   5.057   3.410   6.780 -0.8050 -0.5075 -0.4200
   54MOL   H43740823   4.966   3.517   6.892  2.1671  0.3946  1.3298
   54MOL   H43840824   5.191   3.443   6.960  0.1138 -0.3147 -0.2538
   54MOL   H43940825   5.076   3.411   7.080  0.0138  0.1927  0.0637
   54MOL   H44040826   5.189   3.214   6.883 -0.5265  1.8314 -0.1374
   54MOL   H44140827   5.064   3.168   6.968 -0.1526  0.0448 -1.1395
   54MOL   H44240828   5.294   3.087   7.058 -0.4550  0.8405 -1.1865
   54MOL   H44340829   5.200   3.162   7.190  2.6019  0.7492  0.2081
   54MOL   H44440830   5.403   3.142   7.272 -3.1385  2.4719  1.1308
   54MOL   H44540831   5.655   3.235   7.209 -1.3895 -1.3216 -2.1496
   54MOL   H44640832   5.567   3.382   7.233 -1.3930 -0.8819 -1.5030
   54MOL   H44740833   5.488   3.309   7.459  0.7335  1.7416 -0.3110
   54MOL   H44840834   5.592   3.156   7.451 -0.1761 -1.5196 -2.2476
   54MOL   H44940835   5.703   3.435   7.465  2.6027 -0.1089 -0.3014
   54MOL   H45040836   5.786   3.280   7.434 -0.2138 -0.0352 -2.0871
   54MOL   H45140837   5.706   3.210   7.654 -0.3887 -1.1153 -4.4012
   54MOL   H45240838   5.781   3.383   7.666  0.6263 -1.1354  1.3423
   54MOL   H45340839   5.541   3.457   7.651  1.5288  1.1852  0.8341
   54MOL   H45440840   5.496   3.283   7.675  0.2559 -1.2967  2.2008
   54MOL   H45540841   5.664   3.442   0.158 -0.4651  1.4323 -0.1299
   54MOL   H45640842   5.582   3.291   0.191 -0.5537 -1.8210 -1.1473
   54MOL   H45740843   5.387   3.500   0.125  0.7966  2.1561  0.5023
   54MOL   C45840844   5.434   3.492   0.320 -0.2332 -0.5160  0.0443
   54MOL   O45940845   5.512   3.471   0.413  0.1178  0.9907 -0.4792
   54MOL   C46040846   5.295   3.561   0.351 -0.6136  0.5064 -0.2829
   54MOL   C46140847   5.298   3.675   0.452 -0.7980  0.2324  0.4585
   54MOL   C46240848   5.170   3.722   0.525  0.0349 -0.5742 -0.0237
   54MOL   C46340849   5.196   3.844   0.625  0.4428  0.3503  0.1738
   54MOL   C46440850   5.164   3.981   0.559 -0.0797  0.2735 -0.5322
   54MOL   O46540851   5.050   4.029   0.566 -0.1302 -0.0068  0.5255
   54MOL   N46640852   5.270   4.045   0.500  0.0316 -0.1759 -0.9372
   54MOL   C46740853   5.267   4.165   0.414 -0.5743  0.3830 -0.7525
   54MOL   C46840854   5.199   4.130   0.279  0.4484 -0.1876 -0.4857
   54MOL   C46940855   5.248   4.236   0.175  0.5134 -0.1950  0.7794
   54MOL   C47040856   5.157   4.243   0.046 -0.3382 -0.6375  0.0700
   54MOL   C47140857   5.185   4.133   7.658  0.2044  0.6774 -0.1693
   54MOL   C47240858   5.068   4.131   7.547  0.5618 -0.1095 -0.5385
   54MOL   N47340859   5.076   4.023   7.453 -0.0347  0.0431 -0.1222
   54MOL   H47440860   5.258   3.613   0.262 -0.7561  0.1724 -0.4210
   54MOL   H47540861   5.221   3.486   0.380 -0.4012  0.6716  0.7065
   54MOL   H47640862   5.380   3.661   0.523 -2.2952 -0.4893  2.0632
   54MOL   H47740863   5.320   3.762   0.391 -0.9286 -1.2141 -1.7103
   54MOL   H47840864   5.133   3.634   0.578  0.0079 -0.2663  0.4637
   54MOL   H47940865   5.094   3.756   0.454 -0.8071  0.0991  1.1960
   54MOL   H48040866   5.301   3.848   0.655  0.1552  1.0100  1.1193
   54MOL   H48140867   5.141   3.822   0.717  1.5897 -0.2588  0.7191
   54MOL   H48240868   5.356   3.992   0.507  0.3554  0.6518  2.0800
   54MOL   H48340869   5.209   4.242   0.465  0.4313  0.7559 -0.1488
   54MOL   H48440870   5.373   4.191   0.404 -0.1458 -1.4200 -1.0982
   54MOL   H48540871   5.223   4.030   0.244  0.0057  0.4506 -2.7161
   54MOL   H48640872   5.091   4.141   0.291  0.3029 -0.7528 -1.2264
   54MOL   H48740873   5.353   4.219   0.151  0.4548  0.3531  0.1178
   54MOL   H48840874   5.243   4.332   0.226  2.1775  0.1964  0.2476
   54MOL   H48940875   5.055   4.241   0.083 -0.0649 -0.3596  0.8639
   54MOL   H49040876   5.183   4.337   7.704  0.4343 -0.0762  1.4682
   54MOL   H49140877   5.282   4.155   7.613  0.6361 -0.0613  0.4028
   54MOL   H49240878   5.191   4.033   7.702 -2.0025  0.7037  0.2495
   54MOL   H49340879   5.041   4.227   7.502 -2.4254 -0.3063  0.7096
   54MOL   H49440880   4.983   4.098   7.607  2.7037 -0.9554  2.1169
   54MOL   H49540881   5.165   3.978   7.437 -1.2265 -2.8712  1.1593
   54MOL   C49640882   4.967   3.984   7.386 -0.3182  0.2647 -0.4830
   54MOL   O49740883   4.861   4.043   7.395  0.1548  0.1893  0.2509
   54MOL   C49840884   4.972   3.874   7.286  0.3177 -0.0209 -0.3913
   54MOL   C49940885   4.966   3.935   7.144  0.7919 -0.2829 -0.4247
   54MOL   C50040886   5.017   3.828   7.041  0.2814  0.1998 -0.4704
   54MOL   C50140887   5.050   3.894   6.907  0.0023  0.4146  0.4433
   54MOL   C50240888   4.941   3.877   6.803  0.3868  0.4456  0.4711
   54MOL   O50340889   4.920   3.770   6.755 -0.4623 -0.0474 -0.4106
   54MOL   N50440890   4.856   3.981   6.787  0.0368  0.4784  0.2944
   54MOL   C50540891   4.723   3.977   6.722  0.5204  0.2248 -0.5418
   54MOL   C50640892   4.730   4.011   6.576  0.3586  0.2777 -0.3552
   54MOL   C50740893   4.591   4.005   6.518  0.4184 -0.0986 -0.1516
   54MOL   C50840894   4.594   4.012   6.362 -0.3875  0.3139  0.1074
   54MOL   C50940895   4.614   3.881   6.295  0.0139  0.3449  0.2203
   54MOL   C51040896   4.626   3.890   6.136 -0.5277 -0.6827 -0.5911
   54MOL   N51140897   4.589   3.761   6.080 -0.4832 -0.4259 -0.5970
   54MOL   H51240898   5.059   3.810   7.295  0.9079  0.7689 -0.4507
   54MOL   H51340899   4.886   3.808   7.293  0.0316  0.2925 -0.9306
   54MOL   H51440900   4.864   3.966   7.121  0.7176 -0.3110 -0.1374
   54MOL   H51540901   5.017   4.031   7.139  1.8021 -0.7603  0.3260
   54MOL   H51640902   4.944   3.752   7.013  1.0416 -0.1479 -1.5527
   54MOL   H51740903   5.088   3.761   7.089 -0.1547  0.5064  0.6128
   54MOL   H51840904   5.137   3.841   6.868 -0.2794 -2.9291  4.0058
   54MOL   H51940905   5.080   3.998   6.918 -1.8035  0.8938  0.9774
   54MOL   H52040906   4.890   4.069   6.823  0.4659  0.2882  0.3498
   54MOL   H52140907   4.683   3.880   6.749 -2.9564  2.0342  1.1305
   54MOL   H52240908   4.666   4.051   6.778 -0.0144 -0.1413 -0.5983
   54MOL   H52340909   4.779   4.106   6.553  0.0274  0.3375 -0.8379
   54MOL   H52440910   4.790   3.934   6.527 -1.6643 -0.5199 -1.6769
   54MOL   H52540911   4.540   4.093   6.557  0.7972  0.6637 -1.3417
   54MOL   H52640912   4.540   3.912   6.543  1.4550 -1.2138 -2.0316
   54MOL   H52740913   4.504   4.066   6.334 -0.1648  1.1489  1.0014
   54MOL   H52840914   4.683   4.071   6.341 -1.8437  3.3703  2.2157
   54MOL   H52940915   4.710   3.847   6.334  0.0361  0.5071  0.3067
   54MOL   H53040916   4.527   3.826   6.331 -0.7730  0.9096 -0.7823
   54MOL   H53140917   4.721   3.928   6.100 -1.7734  1.5957 -1.5765
   54MOL   H53240918   4.552   3.961   6.099  1.3859  1.1351 -0.9860
   54MOL   H53340919   4.537   3.695   6.136  0.3091 -0.7889 -0.2833
   54MOL   C53440920   4.597   3.724   5.953 -0.3320  0.1240  0.2075
   54MOL   O53540921   4.537   3.627   5.913 -0.4073 -0.2098  0.1229
   54MOL   C53640922   4.678   3.813   5.855  0.3104 -0.0624 -0.2496
   54MOL   C53740923   4.686   3.778   5.712  0.8006  0.2203 -0.0445
   54MOL   C53840924   4.556   3.778   5.624 -0.0555 -0.1496  0.2531
   54MOL   C53940925   4.579   3.730   5.481  0.1197 -0.0971  0.2804
   54MOL   C54040926   4.474   3.790   5.379 -0.1588 -0.7347  0.3230
   54MOL   O54140927   4.348   3.758   5.375 -0.3497  0.4702 -0.2622
   54MOL   N54240928   4.532   3.891   5.298  0.4770  0.4371  0.2082
   54MOL   C54340929   4.454   3.968   5.199 -0.0054  0.4461 -0.0601
   54MOL   C54440930   4.547   4.066   5.130  0.6910 -0.3257  0.2562
   54MOL   C54540931   4.475   4.119   5.006  1.1063 -0.1149 -0.3363
   54MOL   C54640932   4.397   4.243   5.026 -0.0332  0.0999 -0.3286
   54MOL   C54740933   4.288   4.264   4.916 -0.4102  0.3576 -0.4796
   54MOL   C54840934   4.339   4.279   4.770 -0.9444 -0.5255  0.3612
   54MOL   N54940935   4.464   4.359   4.757  0.9981  0.7192 -0.4432
   54MOL   H55040936   4.629   3.909   5.868  0.9096  0.2005  0.0698
   54MOL   H55140937   4.780   3.830   5.889 -0.0251  1.9030 -0.1654
   54MOL   H55240938   4.752   3.854   5.671 -2.3712  2.3651 -1.4264
   54MOL   H55340939   4.742   3.685   5.700  1.0729  0.1868  1.4227
   54MOL   H55440940   4.505   3.874   5.616 -1.3341 -0.8628 -0.4290
   54MOL   H55540941   4.477   3.721   5.673 -0.9660  1.3499  0.5552
   54MOL   H55640942   4.567   3.622   5.478  0.0998 -0.2028  3.1091
   54MOL   H55740943   4.682   3.755   5.454 -0.2094  1.7211  0.6853
   54MOL   H55840944   4.632   3.902   5.303  0.8237 -2.7345  1.4051
   54MOL   H55940945   4.404   3.904   5.126  2.4884  0.8702 -2.2161
   54MOL   H56040946   4.365   4.020   5.233 -1.2728 -2.2755  0.9090
   54MOL   H56140947   4.586   4.149   5.189  1.2430 -0.3175 -0.1145
   54MOL   H56240948   4.636   4.007   5.111  0.3538 -0.6977 -0.1677
   54MOL   H56340949   4.410   4.041   4.965  2.0238  0.0208 -2.1294
   54MOL   H56440950   4.556   4.125   4.932 -0.2131 -0.8584 -1.8819
   54MOL   H56540951   4.355   4.244   5.127  1.0220  0.3355  0.1183
   54MOL   H56640952   4.461   4.330   5.018  0.3848  0.1088  2.4570
   54MOL   H56740953   4.217   4.181   4.918  1.2603 -1.0932 -0.3527
   54MOL   H56840954   4.229   4.352   4.941 -1.0846 -0.6493  1.5145
   54MOL   H56940955   4.255   4.321   4.713 -2.7296 -0.0123  3.2677
   54MOL   H57040956   4.349   4.176   4.738  0.2013  0.0989 -1.3880
   54MOL   H57140957   4.478   4.449   4.801 -0.5248  1.7795 -2.0489
   54MOL   C57240958   4.555   4.330   4.669 -0.2169 -0.1525 -0.2318
   54MOL   O57340959   4.541   4.232   4.598 -0.0390 -0.0275  0.5654
   54MOL   C57440960   4.675   4.421   4.654 -0.2857 -0.2068 -0.6882
   54MOL   C57540961   4.814   4.351   4.612 -0.3580 -0.0237  0.6454
   54MOL   C57640962   4.898   4.274   4.718  0.4381  0.2092 -0.4778
   54MOL   C57740963   4.870   4.132   4.768  0.3652  0.0742 -0.2319
   54MOL   C57840964   4.877   4.037   4.654  0.4992  0.4941  0.4169
   54MOL   O57940965   4.973   3.959   4.648 -0.3617 -0.0089  0.0784
   54MOL   N58040966   4.778   4.042   4.563  0.5131 -0.4193  0.0543
   54MOL   C58140967   4.762   3.940   4.460 -0.0597  0.2336 -0.0055
   54MOL   C58240968   4.639   3.984   4.383 -0.6385  0.5178 -0.2453
   54MOL   C58340969   4.608   3.897   4.262 -0.5597  0.4084 -0.1948
   54MOL   C58440970   4.470   3.924   4.197  0.3081 -0.3958  0.3472
   54MOL   C58540971   4.411   3.798   4.135 -0.7333  0.0776  0.0018
   54MOL   C58640972   4.268   3.827   4.092 -0.0302 -0.1992 -0.0406
   54MOL   N58740973   4.203   3.702   4.054 -0.8865 -0.5808  0.2618
   54MOL   H58840974   4.646   4.489   4.575 -2.1891 -2.5298 -2.0527
   54MOL   H58940975   4.690   4.480   4.745  0.0229 -0.4600 -0.5717
   54MOL   H59040976   4.800   4.292   4.521 -1.1002  0.3827  0.4996
   54MOL   H59140977   4.873   4.429   4.564 -1.2756  0.5348  0.4149
   54MOL   H59240978   4.903   4.350   4.797 -0.3332  0.1172 -0.3341
   54MOL   H59340979   5.001   4.281   4.682  1.0985 -1.1576  1.1011
   54MOL   H59440980   4.780   4.118   4.828 -0.9633 -0.9352 -2.4130
   54MOL   H59540981   4.950   4.105   4.837  0.5934  1.0266 -0.1259
   54MOL   H59640982   4.696   4.100   4.577  1.0099  0.0649  0.9838
   54MOL   H59740983   4.841   3.919   4.389 -0.9569 -2.1854 -0.3318
   54MOL   H59840984   4.740   3.844   4.507 -0.2642  0.0579 -0.4576
   54MOL   H59940985   4.546   3.978   4.440 -0.3503 -1.1282  0.0634
   54MOL   H60040986   4.648   4.089   4.353  0.7326  0.3132 -0.5904
   54MOL   H60140987   4.611   3.795   4.300  0.7658  0.8693  0.9533
   54MOL   H60240988   4.693   3.898   4.193  0.6548  1.1127  1.2952
   54MOL   H60340989   4.393   3.960   4.265 -1.6502  0.3531 -2.1942
   54MOL   H60440990   4.480   4.007   4.126 -1.0087 -1.2981 -0.9168
   54MOL   H60540991   4.473   3.783   4.047  1.0697  0.6629  1.1328
   54MOL   H60640992   4.408   3.722   4.214  2.1729  2.0370  2.1230
   54MOL   H60740993   4.261   3.908   4.020 -0.0958 -0.8402 -0.7612
   54MOL   H60840994   4.205   3.856   4.176  0.1986 -1.0664  0.4352
   54MOL   H60940995   4.237   3.618   4.097 -0.7582 -1.3181 -1.2277
   54MOL   C61040996   4.101   3.686   3.970  0.0354  0.7994  0.0107
   54MOL   O61140997   4.042   3.778   3.912 -0.3684  0.1416 -0.0210
   54MOL   C61240998   4.050   3.538   3.952  0.4535 -0.4946  0.1628
   54MOL   C61340999   3.902   3.523   3.985 -0.1905 -0.5344  0.0234
   54MOL   C61441000   3.811   3.521   3.862 -0.8937 -0.1792  0.6590
   54MOL   C61541001   3.662   3.545   3.897  0.0098  0.0405 -0.3151
   54MOL   C61641002   3.636   3.691   3.949  0.1893 -0.2796  0.6549
   54MOL   O61741003   3.630   3.705   4.073 -0.8988 -0.2011 -0.2789
   54MOL   N61841004   3.613   3.789   3.865 -0.0393 -0.0903  0.3947
   54MOL   C61941005   3.591   3.784   3.722  0.6418 -0.0818  0.3168
   54MOL   C62041006   3.440   3.773   3.706  0.4379  0.4379  0.4418
   54MOL   C62141007   3.385   3.823   3.573 -0.2449 -0.3792  0.0599
   54MOL   C62241008   3.245   3.759   3.557  0.4425 -0.2728  0.1306
   54MOL   C62341009   3.171   3.818   3.441  0.5297  0.5683  0.0928
   54MOL   C62441010   3.024   3.759   3.429 -0.2320  0.0772  0.2630
   54MOL   N62541011   2.947   3.796   3.308  0.6451 -0.4088 -0.7486
   54MOL   H62641012   4.082   3.507   3.852 -1.3246  0.1278 -0.6226
   54MOL   H62741013   4.105   3.474   4.020  0.1816 -0.4489  0.4280
   54MOL   H62841014   3.887   3.426   4.033 -0.2065 -0.6983 -0.3097
   54MOL   H62941015   3.867   3.602   4.051  0.3784 -0.0641 -0.2381
   54MOL   H63041016   3.813   3.428   3.806 -2.8568 -0.7297  1.4340
   54MOL   H63141017   3.846   3.606   3.804 -0.0090 -0.9004  0.1129
   54MOL   H63241018   3.632   3.487   3.985 -0.4670  2.2176  0.9950
   54MOL   H63341019   3.590   3.525   3.818  0.6063 -2.4469 -0.2686
   54MOL   H63441020   3.609   3.879   3.910 -3.1844 -0.9945  2.0991
   54MOL   H63541021   3.632   3.876   3.680  0.3540  0.7769  1.9101
   54MOL   H63641022   3.651   3.710   3.668  2.0449 -0.4004  2.2694
   54MOL   H63741023   3.418   3.666   3.715 -1.8790  0.8805  0.2949
   54MOL   H63841024   3.394   3.825   3.791  0.4698 -1.7252  1.8402
   54MOL   H63941025   3.445   3.790   3.489  2.3062  0.7904  1.3362
   54MOL   H64041026   3.382   3.932   3.565  0.7304 -0.4409 -1.3510
   54MOL   H64141027   3.262   3.652   3.547 -1.3571 -0.4855 -0.8972
   54MOL   H64241028   3.193   3.786   3.649  0.2204 -1.9427  0.5174
   54MOL   H64341029   3.178   3.927   3.438 -2.2651  0.8476  1.6615
   54MOL   H64441030   3.216   3.786   3.347 -0.6322 -2.2835  0.4325
   54MOL   H64541031   2.980   3.797   3.522  1.4168  1.5339  0.4858
   54MOL   H64641032   3.029   3.650   3.434  1.1808 -0.0059 -2.2255
   54MOL   H64741033   2.870   3.860   3.323  0.1399 -1.2101  0.1006
   54MOL   C64841034   2.984   3.754   3.186 -0.3041  0.6762 -0.1437
   54MOL   O64941035   3.086   3.687   3.168 -0.0072  0.3289 -0.0431
   54MOL   C65041036   2.876   3.768   3.075 -0.0415  0.1865  0.1652
   54MOL   C65141037   2.827   3.631   3.021  0.7367  0.2812  0.0179
   54MOL   C65241038   2.705   3.648   2.932 -0.3930  0.0694 -0.7681
   54MOL   C65341039   2.684   3.522   2.856  0.6749  0.1879  0.0891
   54MOL   C65441040   2.586   3.431   2.920 -0.3232  0.4030  0.4022
   54MOL   O65541041   2.575   3.433   3.045  0.4243  0.0275  0.2694
   54MOL   N65641042   2.505   3.362   2.832 -0.2167 -0.4663 -0.1390
   54MOL   C65741043   2.391   3.283   2.876  0.5462  0.1102  0.0116
   54MOL   C65841044   2.435   3.164   2.956  0.2660 -0.1543  0.3637
   54MOL   C65941045   2.530   3.067   2.894 -1.0377  0.1803  0.3975
   54MOL   C66041046   2.545   2.943   2.983  0.4137 -0.3794 -0.4362
   54MOL   C66141047   2.650   2.854   2.920  0.1406 -0.3554  0.4225
   54MOL   C66241048   2.641   2.711   2.981 -0.1399 -0.4035 -0.3553
   54MOL   N66341049   2.751   2.628   2.936 -0.8591 -0.2811 -0.3221
   54MOL   H66441050   2.788   3.804   3.128  0.5795  2.2579 -0.1831
   54MOL   H66541051   2.903   3.835   2.994  2.6121  2.4503  2.7859
   54MOL   H66641052   2.910   3.588   2.967 -0.8024 -1.8852 -0.6972
   54MOL   H66741053   2.802   3.560   3.100 -1.6605  1.2755  0.2212
   54MOL   H66841054   2.732   3.729   2.865 -0.3971  2.1041  1.6449
   54MOL   H66941055   2.615   3.679   2.984  1.3019  1.8282  1.1823
   54MOL   H67041056   2.779   3.472   2.837  0.2464 -0.2448 -0.9572
   54MOL   H67141057   2.650   3.551   2.757  0.9261  0.7106  0.1550
   54MOL   H67241058   2.512   3.377   2.732 -0.2783  2.4964  0.2651
   54MOL   H67341059   2.310   3.339   2.922 -1.5308 -2.5914 -0.2490
   54MOL   H67441060   2.344   3.240   2.787  1.8590 -0.4018 -0.4457
   54MOL   H67541061   2.462   3.193   3.058 -0.8341 -2.7453  1.4504
   54MOL   H67641062   2.341   3.108   2.961  0.3190 -0.1568  1.6599
   54MOL   H67741063   2.629   3.109   2.876 -0.9828  0.4101  1.1820
   54MOL   H67841064   2.472   3.036   2.807  0.7234 -2.0724  0.0001
   54MOL   H67941065   2.563   2.966   3.088 -1.3669 -0.5290 -0.0827
   54MOL   H68041066   2.445   2.901   2.994  0.3909  0.1463  1.5174
   54MOL   H68141067   2.632   2.850   2.812 -1.7886 -2.2504  0.7842
   54MOL   H68241068   2.751   2.889   2.938  0.7290 -0.1530 -2.9230
   54MOL   H68341069   2.543   2.664   2.970 -0.5519  0.4250 -0.2385
   54MOL   H68441070   2.643   2.720   3.090 -0.3548  1.4981 -0.5045
   54MOL   H68541071   2.820   2.678   2.881 -0.0352 -0.1056  0.8471
   54MOL   C68641072   2.780   2.509   2.985  0.5372  0.5930  0.0206
   54MOL   O68741073   2.706   2.457   3.067  0.4788  0.1159  0.0153
   54MOL   C68841074   2.891   2.428   2.912  0.9655 -0.5388 -0.0597
   54MOL   C68941075   2.998   2.368   3.003 -0.1259  0.1769 -0.4671
   54MOL   C69041076   2.944   2.285   3.123  0.3350 -0.6897 -0.5962
   54MOL   C69141077   3.041   2.180   3.177  0.0680 -0.3092 -0.2334
   54MOL   C69241078   3.015   2.042   3.122  0.8521  0.5849  0.1188
   54MOL   O69341079   2.949   1.961   3.183 -0.4389 -0.6331  0.6000
   54MOL   N69441080   3.086   2.014   3.011  0.0808 -0.0501 -0.0856
   54MOL   C69541081   3.114   1.879   2.954  0.4675 -0.2594 -0.6602
   54MOL   C69641082   3.170   1.881   2.808 -0.3625  0.7891 -0.3362
   54MOL   C69741083   3.075   1.953   2.712 -0.5769  0.5384 -0.3047
   54MOL   C69841084   3.158   2.011   2.592 -0.7939 -0.4611 -0.5915
   54MOL   C69941085   3.230   2.138   2.627  0.5065 -0.3174 -0.3085
   54MOL   C70041086   3.312   2.188   2.511 -0.2502  0.5748  0.5121
   54MOL   N70141087   3.390   2.307   2.546 -0.1127  0.5315  0.3511
   54MOL   H70241088   2.825   2.352   2.871  0.8843 -1.1378  1.1557
   54MOL   H70341089   2.921   2.477   2.820 -1.7455 -1.3870 -1.4428
   54MOL   H70441090   3.048   2.308   2.927  0.5207  2.1034 -1.6253
   54MOL   H70541091   3.064   2.451   3.029 -1.6845  0.1233  4.0139
   54MOL   H70641092   2.858   2.227   3.091 -0.2707 -0.6762  0.9514
   54MOL   H70741093   2.906   2.363   3.189 -1.3974 -3.5046  1.8398
   54MOL   H70841094   3.015   2.165   3.282 -0.3234 -0.6001 -0.3709
   54MOL   H70941095   3.143   2.218   3.163 -0.5609  1.3571 -0.4320
   54MOL   H71041096   3.140   2.088   2.968  1.0015 -0.3256  0.5740
   54MOL   H71141097   3.185   1.816   3.008 -1.3364 -1.7841 -0.0250
   54MOL   H71241098   3.026   1.817   2.973  2.2491 -2.9631 -1.0191
   54MOL   H71341099   3.266   1.930   2.792  0.8944 -1.2764  0.6029
   54MOL   H71441100   3.176   1.775   2.784 -1.3194 -0.0177  2.8009
   54MOL   H71541101   3.031   2.042   2.757  0.6545  2.1243 -2.1847
   54MOL   H71641102   3.007   1.879   2.668  0.6692 -0.9031  0.1471
   54MOL   H71741103   3.227   1.933   2.560  1.8972 -0.5217  4.7372
   54MOL   H71841104   3.093   2.026   2.506 -1.1592 -0.5814 -0.3391
   54MOL   H71941105   3.160   2.218   2.652  0.0338 -0.8389  0.0221
   54MOL   H72041106   3.302   2.133   2.709  0.6772 -0.4342 -0.4647
   54MOL   H72141107   3.254   2.218   2.423 -0.3883  0.8781  0.7042
   54MOL   H72241108   3.388   2.124   2.467 -1.3375  1.9616 -3.7487
   54MOL   H72341109   3.488   2.291   2.567 -0.5220 -1.8129  0.6195
   54MOL   C72441110   3.345   2.432   2.575  0.5896 -0.0774 -0.0308
   54MOL   O72541111   3.229   2.458   2.552 -0.6677 -0.5590  0.1497
   54MOL   C72641112   3.446   2.534   2.640 -0.6333  0.0246  0.5899
   54MOL   C72741113   3.504   2.488   2.775 -0.6491 -0.1380 -0.6396
   54MOL   C72841114   3.413   2.499   2.895 -0.2826  0.2356  0.2483
   54MOL   C72941115   3.453   2.403   3.016  0.2047  0.7850  0.2110
   54MOL   C73041116   3.415   2.260   2.983 -0.5273 -0.4403 -0.0730
   54MOL   O73141117   3.305   2.229   2.943  0.3808 -0.0235 -0.1890
   54MOL   N73241118   3.509   2.166   3.014 -0.4179 -0.6724  0.0741
   54MOL   C73341119   3.479   2.025   2.994  0.3551  0.1060 -0.2296
   54MOL   C73441120   3.543   1.962   2.870  0.0804  0.5604 -0.4537
   54MOL   C73541121   3.527   1.806   2.860 -0.7788 -0.6926  0.1727
   54MOL   C73641122   3.649   1.726   2.904  0.2171 -1.0471  0.5249
   54MOL   C73741123   3.642   1.573   2.872  0.9073 -1.0673  0.0499
   54MOL   C73841124   3.784   1.518   2.859 -0.4899  0.0969 -0.1676
   54MOL   N73941125   3.775   1.379   2.833  0.4018  0.6079 -0.1344
   54MOL   H74041126   3.520   2.543   2.561  1.7490 -0.9839  2.6248
   54MOL   H74141127   3.401   2.633   2.645  3.1741  1.9852 -1.7325
   54MOL   H74241128   3.538   2.385   2.764  0.5219  0.3299 -1.5737
   54MOL   H74341129   3.591   2.551   2.790  0.0684 -0.3237 -3.6282
   54MOL   H74441130   3.310   2.471   2.870 -0.4432  0.6210  0.4748
   54MOL   H74541131   3.424   2.602   2.928 -0.2947  1.3321 -3.0027
   54MOL   H74641132   3.393   2.425   3.104 -1.3974  0.2459 -0.6979
   54MOL   H74741133   3.559   2.411   3.038 -0.2994  2.8397  1.9628
   54MOL   H74841134   3.601   2.199   3.038 -0.4684 -0.0482 -0.5790
   54MOL   H74941135   3.521   1.980   3.084 -0.1908 -1.0593 -0.5518
   54MOL   H75041136   3.374   1.997   3.000  0.5142 -0.2444  1.1683
   54MOL   H75141137   3.512   2.023   2.785 -2.5682  0.4177  0.3827
   54MOL   H75241138   3.648   1.989   2.880  0.7201 -0.9574 -2.7845
   54MOL   H75341139   3.521   1.777   2.755 -0.0436  2.1036 -0.6943
   54MOL   H75441140   3.432   1.771   2.900  0.0057  1.0807  3.8118
   54MOL   H75541141   3.742   1.758   2.857 -0.1965  1.0759  1.0893
   54MOL   H75641142   3.664   1.739   3.011 -2.0774  1.0171  0.6339
   54MOL   H75741143   3.580   1.524   2.947 -1.6430  0.7140 -0.8440
   54MOL   H75841144   3.594   1.555   2.775  0.3654  2.2938 -0.3407
   54MOL   H75941145   3.851   1.542   2.942 -0.4517 -0.2321 -0.1038
   54MOL   H76041146   3.832   1.568   2.775 -0.2188  0.5011  0.2227
   54MOL   H76141147   3.865   1.359   2.792  0.6624  2.1892 -0.3959
   54MOL   H76241148   3.750   1.333   2.920  1.4188 -0.5786 -0.4563
   55MOL     C141149   3.544   6.901   5.717  0.4099 -0.2857  0.0792
   55MOL     O241150   3.516   6.965   5.616  0.1087 -0.2049 -0.0568
   55MOL     C341151   3.636   6.961   5.818 -0.3258 -0.0331 -0.0230
   55MOL     C441152   3.767   7.016   5.765 -0.8793  0.0180  0.4772
   55MOL     C541153   3.770   7.156   5.692 -0.3112  0.0836 -0.9497
   55MOL     C641154   3.922   7.193   5.683 -0.1885 -0.8118  0.5908
   55MOL     C741155   3.948   7.339   5.639  0.2098 -0.0419 -0.6078
   55MOL     O841156   3.863   7.400   5.572  0.3414 -0.2944 -0.3805
   55MOL     N941157   4.052   7.409   5.692  0.0006  0.5714 -0.1337
   55MOL    C1041158   4.076   7.549   5.669 -0.6566 -0.6195 -0.2501
   55MOL    C1141159   4.089   7.625   5.804  0.1456  0.9697  0.5641
   55MOL    C1241160   4.133   0.060   5.781 -0.5785  0.2206 -0.6999
   55MOL    C1341161   4.120   0.147   5.908  0.0438  0.4535  0.3088
   55MOL    C1441162   4.133   0.292   5.890 -0.8339  0.6902  0.4463
   55MOL    C1541163   4.127   0.370   6.021  0.1163  0.1196  0.1026
   55MOL    N1641164   4.123   0.516   6.000 -0.3712 -0.8419  0.6098
   55MOL    H1741165   3.588   7.044   5.869  1.6960 -0.5887  2.9284
   55MOL    H1841166   3.651   6.897   5.905 -1.7572 -0.6093 -0.1883
   55MOL    H1941167   3.824   7.026   5.857  2.4720  1.2869 -1.6560
   55MOL    H2041168   3.815   6.939   5.705 -1.4095 -1.0392  1.3862
   55MOL    H2141169   3.728   7.237   5.751 -1.6092 -2.0736  1.1532
   55MOL    H2241170   3.715   7.151   5.597 -0.0924  0.6681 -1.1131
   55MOL    H2341171   3.968   7.122   5.614 -0.6971  0.0411 -0.6342
   55MOL    H2441172   3.964   7.171   5.781  1.2880  0.7591  0.3371
   55MOL    H2541173   4.127   7.362   5.740 -1.4286 -0.5794  1.0411
   55MOL    H2641174   4.164   7.562   5.606  0.2454  1.6268  1.4074
   55MOL    H2741175   4.003   7.604   5.610  1.9444  0.6541 -2.3710
   55MOL    H2841176   3.987   7.623   5.844 -0.8624 -1.6463 -2.0335
   55MOL    H2941177   4.156   7.567   5.868  0.0606  1.1320  0.8014
   55MOL    H3041178   4.068   0.095   5.701 -0.0166  0.1859 -1.1737
   55MOL    H3141179   4.229   0.057   5.729  0.4116  1.2130  1.0414
   55MOL    H3241180   4.023   0.134   5.955 -0.2552  0.7640 -0.2117
   55MOL    H3341181   4.196   0.109   5.976 -0.2841  0.1399  0.5010
   55MOL    H3441182   4.224   0.319   5.837  1.2718 -0.7284  3.2581
   55MOL    H3541183   4.058   0.332   5.821  0.8114  0.0271 -1.7932
   55MOL    H3641184   4.221   0.353   6.074 -0.8096  2.9506  2.8286
   55MOL    H3741185   4.044   0.335   6.081  0.5060 -0.8115  0.1100
   55MOL    H3841186   4.206   0.573   6.001 -0.4888 -0.5283 -2.0276
   55MOL    H3941187   3.510   6.799   5.735 -1.7711  0.4971  0.6364
   55MOL    C4041188   4.011   0.581   5.993 -0.1555 -0.1455 -0.0129
   55MOL    O4141189   3.895   0.528   6.004  0.1669 -0.1949 -0.3002
   55MOL    C4241190   4.027   0.732   5.963 -0.3863  0.4542 -0.1761
   55MOL    C4341191   3.905   0.806   5.915  0.4272  0.1319 -0.7796
   55MOL    C4441192   3.945   0.955   5.867 -0.1005  0.3288 -0.4888
   55MOL    C4541193   3.834   1.045   5.830 -0.8644 -0.4006  0.5646
   55MOL    C4641194   3.793   1.026   5.687  0.2996 -0.5270  0.0308
   55MOL    O4741195   3.846   1.095   5.606 -0.0821 -0.0716  0.3208
   55MOL    N4841196   3.689   0.943   5.659  0.4435  0.5729 -0.6353
   55MOL    C4941197   3.604   0.938   5.539 -0.0243  1.1450 -0.2627
   55MOL    C5041198   3.690   0.903   5.416  0.6590 -0.6243  0.0175
   55MOL    C5141199   3.610   0.827   5.308  0.1238  0.6224 -0.1995
   55MOL    C5241200   3.631   0.675   5.327 -0.3028 -0.9662 -0.0191
   55MOL    C5341201   3.533   0.606   5.236 -0.3174  0.5847 -0.1134
   55MOL    C5441202   3.542   0.450   5.262  0.0057 -0.1445  0.3908
   55MOL    N5541203   3.489   0.409   5.386 -0.0055  0.2509 -0.8863
   55MOL    H5641204   4.059   0.773   6.059 -0.4770  0.6352 -0.2236
   55MOL    H5741205   4.121   0.738   5.909 -0.1916  1.0510  0.2273
   55MOL    H5841206   3.851   0.754   5.836 -1.6067 -0.2111  0.7764
   55MOL    H5941207   3.846   0.821   6.005 -1.0527 -1.4182 -1.4631
   55MOL    H6041208   4.016   0.948   5.784  1.3772  0.1999  0.7718
   55MOL    H6141209   3.995   1.006   5.949  1.7049 -0.2468 -1.2124
   55MOL    H6241210   3.875   1.143   5.852  0.2352 -0.3461 -1.5901
   55MOL    H6341211   3.749   1.045   5.898 -0.9511  1.5010  0.4715
   55MOL    H6441212   3.651   0.885   5.732  0.1402  0.0975 -1.1658
   55MOL    H6541213   3.521   0.868   5.545 -0.3272  1.5507  0.2407
   55MOL    H6641214   3.563   1.034   5.508 -2.0698  0.3365 -0.1451
   55MOL    H6741215   3.731   0.999   5.384 -0.6491 -0.2317 -0.5061
   55MOL    H6841216   3.777   0.844   5.445 -0.3036 -1.9045  0.3445
   55MOL    H6941217   3.647   0.857   5.210 -1.5523  2.6814 -0.2191
   55MOL    H7041218   3.507   0.862   5.303 -0.2723 -0.7426 -2.1013
   55MOL    H7141219   3.737   0.656   5.309  0.3454 -1.0694  3.5749
   55MOL    H7241220   3.619   0.653   5.433  1.3288 -0.2739  0.3358
   55MOL    H7341221   3.430   0.636   5.250 -1.2919 -2.6419  0.1446
   55MOL    H7441222   3.563   0.635   5.136  0.6475  2.1371  0.6050
   55MOL    H7541223   3.640   0.404   5.246 -1.2203 -1.9654 -2.2934
   55MOL    H7641224   3.477   0.414   5.182  1.6587 -1.0101 -0.5948
   55MOL    H7741225   3.561   0.388   5.454  0.4273 -0.7586 -1.6360
   55MOL    C7841226   3.372   0.365   5.419 -0.0592  0.2660 -0.0110
   55MOL    O7941227   3.279   0.360   5.342  0.0003 -0.1751  0.4071
   55MOL    C8041228   3.365   0.312   5.554  0.0567  0.4146 -0.2089
   55MOL    C8141229   3.275   0.401   5.641 -0.4369 -0.1114 -0.5763
   55MOL    C8241230   3.321   0.543   5.664 -0.0474 -0.1949 -0.5913
   55MOL    C8341231   3.224   0.621   5.762  0.2304  0.3326 -0.5282
   55MOL    C8441232   3.076   0.616   5.731 -0.2658 -0.3986 -0.1655
   55MOL    O8541233   3.039   0.647   5.616 -0.4783 -0.3935 -1.1511
   55MOL    N8641234   2.991   0.569   5.826 -0.3205 -0.0227  0.0631
   55MOL    C8741235   2.839   0.563   5.814  0.1640  0.0866  0.4317
   55MOL    C8841236   2.758   0.484   5.927 -0.8411 -0.1524 -0.1599
   55MOL    C8941237   2.807   0.338   5.962 -0.2697 -0.2873  0.4795
   55MOL    C9041238   2.716   0.249   6.058 -0.1910  0.7350  0.1092
   55MOL    C9141239   2.702   0.311   6.196 -0.0987 -0.5495 -0.4754
   55MOL    C9241240   2.568   0.262   6.256  0.1707 -0.0984 -0.2750
   55MOL    N9341241   2.608   0.215   6.389 -0.3732  0.0905 -0.7902
   55MOL    H9441242   3.331   0.208   5.557 -0.4913  0.6250  1.2697
   55MOL    H9541243   3.467   0.296   5.589 -0.5801 -1.8383  0.7170
   55MOL    H9641244   3.172   0.403   5.605 -1.3501 -2.3939  1.7860
   55MOL    H9741245   3.277   0.368   5.745 -2.6496  0.5252 -0.3112
   55MOL    H9841246   3.348   0.594   5.572  1.5939 -2.7941 -1.5909
   55MOL    H9941247   3.418   0.536   5.712  0.9049 -1.2316 -2.6248
   55MOL   H10041248   3.246   0.727   5.754 -0.3228  0.3046 -2.9300
   55MOL   H10141249   3.245   0.601   5.867 -2.6177 -0.4269 -0.0641
   55MOL   H10241250   3.031   0.551   5.917 -2.4708 -1.6637  0.7371
   55MOL   H10341251   2.795   0.662   5.823  1.5617  0.8030 -0.4394
   55MOL   H10441252   2.819   0.539   5.709  2.5630 -0.0787 -0.0304
   55MOL   H10541253   2.751   0.549   6.013 -1.1416  1.7550 -1.5897
   55MOL   H10641254   2.653   0.474   5.898 -1.4405  1.2919  1.4691
   55MOL   H10741255   2.899   0.339   6.021 -1.3274  0.6867  2.1785
   55MOL   H10841256   2.845   0.290   5.872 -0.5501  0.8932 -0.2752
   55MOL   H10941257   2.616   0.234   6.017 -0.4711 -3.0416  1.9398
   55MOL   H11041258   2.769   0.154   6.063 -1.8079 -0.0647  3.4684
   55MOL   H11141259   2.792   0.296   6.256 -0.2410  1.7318  0.3931
   55MOL   H11241260   2.703   0.419   6.181  1.0624 -0.4703  0.1146
   55MOL   H11341261   2.529   0.181   6.195 -1.7820 -0.1627  1.0353
   55MOL   H11441262   2.487   0.333   6.265 -2.6022 -3.3909  2.3927
   55MOL   H11541263   2.632   0.117   6.392  0.5522  0.3531  2.9472
   55MOL   C11641264   2.577   0.274   6.505 -0.3933 -0.3483 -0.3786
   55MOL   O11741265   2.521   0.385   6.512 -0.1338  0.2927  0.8607
   55MOL   C11841266   2.636   0.202   6.624 -0.3952  0.1805  0.1682
   55MOL   C11941267   2.537   0.191   6.741  0.1315  0.1741  0.4071
   55MOL   C12041268   2.598   0.115   6.860  0.6361  0.6351 -0.9873
   55MOL   C12141269   2.701   0.182   6.939 -0.1248  0.3691  0.0262
   55MOL   C12241270   2.755   0.101   7.057  0.0869 -0.2580 -0.0895
   55MOL   O12341271   2.753   7.684   7.059  0.1029 -0.1989 -0.5771
   55MOL   N12441272   2.811   0.175   7.154 -0.5873  0.3666  0.0017
   55MOL   C12541273   2.862   0.110   7.274 -0.0409  0.1994  0.7166
   55MOL   C12641274   2.914   0.212   7.381 -0.1982 -0.4776  0.6640
   55MOL   C12741275   2.792   0.291   7.425 -0.2650  0.0749  0.1272
   55MOL   C12841276   2.815   0.393   7.534 -0.5157  0.0693  1.4089
   55MOL   C12941277   2.872   0.335   7.663 -0.7074  0.3053 -0.1351
   55MOL   C13041278   2.968   0.444   0.019  0.5184 -0.5248 -0.3639
   55MOL   N13141279   3.016   0.409   0.153 -0.6450 -0.1573 -0.5594
   55MOL   H13241280   2.687   0.109   6.599 -1.6176 -0.2483 -0.7941
   55MOL   H13341281   2.716   0.265   6.664 -0.0449 -0.0981 -0.0946
   55MOL   H13441282   2.495   0.287   6.772 -2.9544 -1.2398  0.7713
   55MOL   H13541283   2.454   0.131   6.703 -0.0995  1.4164 -1.0901
   55MOL   H13641284   2.645   0.024   6.822  0.5892 -0.0612  0.6195
   55MOL   H13741285   2.516   0.084   6.925  0.1452  0.5805 -1.6198
   55MOL   H13841286   2.657   0.277   6.969 -2.0964  0.0036 -1.6372
   55MOL   H13941287   2.786   0.209   6.875  0.3411  1.9520  1.2889
   55MOL   H14041288   2.829   0.269   7.123 -0.4904 -0.3446 -2.1960
   55MOL   H14141289   2.779   0.051   7.313  0.3901 -1.7438 -1.2042
   55MOL   H14241290   2.943   0.045   7.241  1.5159  2.2355  0.3833
   55MOL   H14341291   2.975   0.161   7.455 -0.4316  0.8235  1.7772
   55MOL   H14441292   2.989   0.277   7.336 -2.0304 -0.0156 -1.8963
   55MOL   H14541293   2.722   0.220   7.469 -0.2822  0.1313  0.1910
   55MOL   H14641294   2.747   0.342   7.340  0.0136 -0.2937 -0.2419
   55MOL   H14741295   2.875   0.472   7.490 -1.2723  0.5608  1.2452
   55MOL   H14841296   2.723   0.450   7.549 -0.7831  0.3861 -1.2149
   55MOL   H14941297   2.794   0.302   0.025 -1.5872 -0.5549 -1.4899
   55MOL   H15041298   2.934   0.246   7.658  0.1478  0.7820  1.6477
   55MOL   H15141299   2.903   0.529   0.039  0.1453 -0.9990  0.4794
   55MOL   H15241300   3.041   0.477   7.654 -1.0982  0.9217 -1.3778
   55MOL   H15341301   2.956   0.414   0.234  0.0365 -0.4618 -0.0228
   55MOL   C15441302   3.143   0.369   0.177 -0.4715  0.3525  0.0228
   55MOL   O15541303   3.227   0.356   0.082 -0.2554  0.0444 -0.5460
   55MOL   C15641304   3.188   0.354   0.328  0.4602  0.0852 -0.4398
   55MOL   C15741305   3.329   0.401   0.372 -0.0669 -0.3604 -0.1887
   55MOL   C15841306   3.400   0.307   0.470  0.6491  0.1201  0.4511
   55MOL   C15941307   3.556   0.322   0.489  0.5770  0.0077 -0.0418
   55MOL   C16041308   3.636   0.274   0.363 -0.0923  0.1409 -0.6611
   55MOL   O16141309   3.590   0.265   0.251 -0.0589  0.1082  0.4400
   55MOL   N16241310   3.763   0.242   0.385 -0.0979 -0.8610  0.3298
   55MOL   C16341311   3.871   0.234   0.283 -0.3682  0.5940 -0.4728
   55MOL   C16441312   3.918   0.376   0.245 -0.2982  0.0967  0.4707
   55MOL   C16541313   4.019   0.389   0.139  0.0575 -0.8202 -0.4616
   55MOL   C16641314   4.162   0.339   0.190  0.0394 -0.9794  0.0034
   55MOL   C16741315   4.216   0.416   0.308  0.2909  0.0257  0.7552
   55MOL   C16841316   4.364   0.378   0.331  0.1309 -0.0090 -0.1237
   55MOL   N16941317   4.425   0.448   0.446 -0.1766 -0.1926 -0.0673
   55MOL   H17041318   3.122   0.411   0.394  2.2625 -0.5987  2.0205
   55MOL   H17141319   3.180   0.250   0.358 -0.6230  0.6551  1.3415
   55MOL   H17241320   3.391   0.419   0.284 -0.3340 -0.4564 -0.3959
   55MOL   H17341321   3.344   0.505   0.401 -0.4402 -0.4910  0.4841
   55MOL   H17441322   3.376   0.208   0.432  0.0502  0.7251 -0.7756
   55MOL   H17541323   3.359   0.315   0.571 -0.7990 -0.1589 -0.0931
   55MOL   H17641324   3.577   0.255   0.572  0.0561 -1.5243 -1.1251
   55MOL   H17741325   3.579   0.424   0.519  0.7115  0.0805 -0.3852
   55MOL   H17841326   3.797   0.252   0.480 -1.3257  0.4143  0.6529
   55MOL   H17941327   3.954   0.183   0.331 -0.3134 -0.1889 -1.3957
   55MOL   H18041328   3.837   0.180   0.195 -0.4996 -1.2367  0.6810
   55MOL   H18141329   3.835   0.439   0.213  0.8337  1.4613  0.1576
   55MOL   H18241330   3.947   0.431   0.334 -0.7024  0.5619  0.3166
   55MOL   H18341331   4.029   0.496   0.124 -2.8311 -0.4457  0.0009
   55MOL   H18441332   3.990   0.330   0.052 -0.9362 -0.8923 -0.0809
   55MOL   H18541333   4.159   0.235   0.223  2.3921 -0.7387  1.0642
   55MOL   H18641334   4.239   0.341   0.113  0.5198  1.7185  0.4926
   55MOL   H18741335   4.212   0.522   0.283 -1.5500 -0.7150 -2.3808
   55MOL   H18841336   4.162   0.390   0.399  1.4598 -0.4936  1.3073
   55MOL   H18941337   4.426   0.398   0.244  0.1786 -0.3204 -0.1623
   55MOL   H19041338   4.370   0.270   0.345  0.8681 -0.2820 -2.2895
   55MOL   H19141339   4.385   0.536   0.475  2.2379  0.5005  1.2421
   55MOL   C19241340   4.505   0.391   0.530 -0.3016  0.6322  0.2021
   55MOL   O19341341   4.570   0.286   0.515 -0.0555  0.1313 -0.0735
   55MOL   C19441342   4.509   0.466   0.663  0.0172  0.6001 -0.2097
   55MOL   C19541343   4.607   0.405   0.766  0.6088  0.4395  0.3487
   55MOL   C19641344   4.583   0.432   0.923 -0.0232  0.1844  0.4151
   55MOL   C19741345   4.622   0.571   0.974 -0.0504 -0.2614  0.4714
   55MOL   C19841346   4.620   0.578   1.123  0.7169  0.0636  0.6267
   55MOL   O19941347   4.535   0.518   1.186 -0.3449 -0.5953  0.3534
   55MOL   N20041348   4.713   0.654   1.186 -0.3289  0.4777  0.0314
   55MOL   C20141349   4.704   0.689   1.327  0.3363 -0.7808 -0.3530
   55MOL   C20241350   4.829   0.743   1.402 -0.1672 -0.0917  0.7722
   55MOL   C20341351   4.821   0.739   1.552 -0.1273  0.0905  0.0060
   55MOL   C20441352   4.684   0.794   1.617 -0.3990 -0.3843  0.8642
   55MOL   C20541353   4.687   0.786   1.774  0.8375  0.3968 -0.3907
   55MOL   C20641354   4.569   0.848   1.844 -0.6645 -0.5017  0.2299
   55MOL   N20741355   4.543   0.980   1.791  0.3067 -0.2911 -0.4117
   55MOL   H20841356   4.536   0.571   0.659  3.7601 -0.0770  3.1997
   55MOL   H20941357   4.409   0.472   0.705 -0.0414 -2.6206  0.2516
   55MOL   H21041358   4.607   0.298   0.745 -0.9444  0.1448  1.7670
   55MOL   H21141359   4.711   0.425   0.741  0.2925  1.8702  0.1599
   55MOL   H21241360   4.622   0.347   0.978 -0.1978 -1.6792 -2.2123
   55MOL   H21341361   4.476   0.426   0.944  0.0282  0.2550  0.6873
   55MOL   H21441362   4.572   0.654   0.924 -1.2979 -0.8163  0.7936
   55MOL   H21541363   4.728   0.582   0.950 -0.0565 -1.3892 -0.0931
   55MOL   H21641364   4.777   0.707   1.128  1.1981  0.4277  1.6390
   55MOL   H21741365   4.622   0.760   1.328  1.6478  0.9140 -3.8578
   55MOL   H21841366   4.657   0.610   1.385 -0.5369  0.7200  1.0493
   55MOL   H21941367   4.921   0.687   1.385 -0.7152 -0.7034 -0.2787
   55MOL   H22041368   4.864   0.844   1.381  1.7820 -0.3095  2.8348
   55MOL   H22141369   4.903   0.802   1.588 -1.4317  1.8034  0.0195
   55MOL   H22241370   4.842   0.641   1.594  0.5842  0.6027  0.8706
   55MOL   H22341371   4.657   0.892   1.577 -1.2851 -0.5263  1.1064
   55MOL   H22441372   4.605   0.729   1.579 -0.8748  0.0969  1.0310
   55MOL   H22541373   4.694   0.679   1.795 -0.2971  0.0552 -1.6949
   55MOL   H22641374   4.773   0.829   1.826  0.6816 -1.2794  1.3140
   55MOL   H22741375   4.587   0.843   1.952 -0.8763 -2.9554  0.1857
   55MOL   H22841376   4.481   0.784   1.834 -0.3937 -0.9602  0.7285
   55MOL   H22941377   4.561   0.998   1.694 -1.7818  1.2581 -0.5467
   55MOL   C23041378   4.540   1.091   1.866 -0.2237 -0.0910 -0.2530
   55MOL   O23141379   4.518   1.087   1.983 -0.4705 -0.1751 -0.2613
   55MOL   C23241380   4.571   1.226   1.786 -0.5019  0.3011 -0.0846
   55MOL   C23341381   4.454   1.315   1.784 -0.7116  0.4667 -0.8382
   55MOL   C23441382   4.341   1.263   1.689  0.4790 -0.2907 -0.2039
   55MOL   C23541383   4.369   1.283   1.540  0.3520  0.3139 -0.3488
   55MOL   C23641384   4.427   1.155   1.479  0.7216  0.5720  0.2331
   55MOL   O23741385   4.425   1.045   1.542 -0.6035 -0.1978  0.3518
   55MOL   N23841386   4.469   1.163   1.352 -0.5100  0.2368  0.2024
   55MOL   C23941387   4.513   1.049   1.281 -1.0072  0.6129 -0.5944
   55MOL   C24041388   4.535   1.086   1.136  0.5171 -0.7057  0.6399
   55MOL   C24141389   4.587   0.982   1.043  0.5855 -0.0911 -0.0715
   55MOL   C24241390   4.635   1.044   0.907 -0.5590  0.1300 -0.4837
   55MOL   C24341391   4.641   0.951   0.792  0.4928  0.5760  0.2815
   55MOL   C24441392   4.514   0.921   0.707  0.0678  0.4432  0.1107
   55MOL   N24541393   4.394   1.009   0.722  0.1007  0.3452  0.7708
   55MOL   H24641394   4.653   1.267   1.845 -0.6418 -1.1453  1.1720
   55MOL   H24741395   4.617   1.212   1.689 -0.5012  1.1875 -0.2180
   55MOL   H24841396   4.403   1.332   1.879 -0.5752 -0.8074 -0.5256
   55MOL   H24941397   4.485   1.416   1.759 -2.7961  0.6018 -3.0312
   55MOL   H25041398   4.255   1.327   1.706  1.0878  0.4532  0.0789
   55MOL   H25141399   4.288   1.168   1.702 -0.7563  0.9783  5.1096
   55MOL   H25241400   4.440   1.363   1.520 -0.2384  0.3924 -2.1998
   55MOL   H25341401   4.269   1.300   1.502  0.8280  0.4967 -1.5594
   55MOL   H25441402   4.470   1.255   1.309  3.9956  0.5316  0.7746
   55MOL   H25541403   4.608   1.012   1.320 -0.3859  0.9220 -1.7861
   55MOL   H25641404   4.457   0.959   1.303  2.9629 -2.2686 -1.6985
   55MOL   H25741405   4.436   1.113   1.098  1.2849  1.6498  0.2833
   55MOL   H25841406   4.595   1.175   1.123  0.6879 -0.8413  0.4998
   55MOL   H25941407   4.505   0.912   1.025  0.1204  1.0802 -2.6497
   55MOL   H26041408   4.674   0.928   1.083  0.6100 -0.8370 -1.1267
   55MOL   H26141409   4.572   1.127   0.873  1.1018  2.9592  3.0804
   55MOL   H26241410   4.729   1.098   0.918  0.3870 -1.6837  0.4698
   55MOL   H26341411   4.716   0.982   0.719  0.6142 -1.1724 -0.3647
   55MOL   H26441412   4.689   0.858   0.823  0.2947  0.3991  0.0610
   55MOL   H26541413   4.489   0.815   0.719 -0.1867  0.3336 -1.2804
   55MOL   H26641414   4.545   0.931   0.603  0.0492 -0.1343  0.0438
   55MOL   H26741415   4.313   0.969   0.768  0.4256 -0.5069  0.6133
   55MOL   C26841416   4.365   1.118   0.651 -0.0563  0.0709 -0.0746
   55MOL   O26941417   4.441   1.167   0.570 -0.1057  0.1902 -0.1926
   55MOL   C27041418   4.227   1.182   0.675  0.1308  0.3573 -0.5390
   55MOL   C27141419   4.162   1.256   0.559  0.4473  0.1093 -0.1510
   55MOL   C27241420   4.095   1.156   0.466  0.3150  0.5832 -0.2814
   55MOL   C27341421   4.043   1.210   0.329  0.0531 -0.0979 -0.5125
   55MOL   C27441422   3.978   1.099   0.247 -0.2815  0.2547 -0.2341
   55MOL   O27541423   4.043   1.002   0.210 -0.1388  0.3311 -0.6267
   55MOL   N27641424   3.847   1.110   0.234  0.1356  0.4007 -0.3005
   55MOL   C27741425   3.766   1.008   0.168 -0.2739 -0.4201  0.0640
   55MOL   C27841426   3.680   0.931   0.269  0.5499  0.5924  0.7400
   55MOL   C27941427   3.569   0.855   0.188 -0.2009  0.1882 -0.9303
   55MOL   C28041428   3.629   0.720   0.143 -0.8884 -1.0416  0.1784
   55MOL   C28141429   3.540   0.644   0.039  0.1534 -0.3188 -0.3808
   55MOL   C28241430   3.572   0.495   0.017  0.6178  0.1825  0.0604
   55MOL   N28341431   3.474   0.429   7.640 -0.2279 -0.5116 -0.5413
   55MOL   H28441432   4.157   1.103   0.704 -1.3861  1.7088 -0.4821
   55MOL   H28541433   4.239   1.254   0.756 -1.1527  0.8469 -0.7636
   55MOL   H28641434   4.079   1.313   0.600  1.0246  1.6245 -1.0374
   55MOL   H28741435   4.225   1.335   0.519  0.4373 -0.0235 -0.4324
   55MOL   H28841436   4.008   1.109   0.511 -0.9643  2.8922 -0.2482
   55MOL   H28941437   4.165   1.078   0.438 -0.9238 -1.2051  1.4922
   55MOL   H29041438   4.131   1.249   0.277 -0.2252  0.5650 -0.4865
   55MOL   H29141439   3.971   1.289   0.349  0.3252 -0.2638  1.1700
   55MOL   H29241440   3.803   1.195   0.264  0.6869  0.8567 -0.7798
   55MOL   H29341441   3.692   1.065   0.111 -1.6732 -1.5310  0.7463
   55MOL   H29441442   3.814   0.941   0.096  0.7830 -0.0635  0.4305
   55MOL   H29541443   3.732   0.854   0.327  0.5432  1.2627  1.6466
   55MOL   H29641444   3.638   0.997   0.346  0.0629  4.4547 -2.6895
   55MOL   H29741445   3.524   0.917   0.111 -1.9231  0.7847  0.5183
   55MOL   H29841446   3.488   0.839   0.260 -0.9899  0.0232 -1.8455
   55MOL   H29941447   3.728   0.731   0.098  0.0070  1.7408  2.6508
   55MOL   H30041448   3.634   0.646   0.222 -1.5374 -1.1808  0.0889
   55MOL   H30141449   3.434   0.639   0.064  0.4626 -2.3117  0.6126
   55MOL   H30241450   3.554   0.689   7.649 -0.8693 -1.2154 -0.9530
   55MOL   H30341451   3.578   0.448   0.115 -0.9852 -0.6373 -0.2045
   55MOL   H30441452   3.664   0.474   7.672  1.7351 -0.3269  2.1521
   55MOL   H30541453   3.390   0.403   7.689 -0.8175  1.2592 -0.5624
   55MOL   C30641454   3.459   0.446   7.508  0.3651 -0.8085 -0.2313
   55MOL   O30741455   3.544   0.504   7.436  0.8454 -0.6533 -0.2483
   55MOL   C30841456   3.337   0.382   7.444 -0.4182 -0.0639 -0.3073
   55MOL   C30941457   3.336   0.377   7.291 -0.7312  0.3807 -0.2042
   55MOL   C31041458   3.257   0.477   7.213 -0.8708 -0.2973 -0.6680
   55MOL   C31141459   3.303   0.623   7.242  0.9098  0.2518 -0.0813
   55MOL   C31241460   3.421   0.681   7.163  0.2257  0.6442 -0.5244
   55MOL   O31341461   3.408   0.748   7.062  0.4818 -0.2227 -0.0714
   55MOL   N31441462   3.541   0.673   7.221  0.4436  0.1194  0.0164
   55MOL   C31541463   3.666   0.728   7.176 -0.1223 -0.2084 -0.2939
   55MOL   C31641464   3.694   0.853   7.265  0.0406 -0.4481  0.2867
   55MOL   C31741465   3.838   0.904   7.233  0.0666  0.4370  0.3058
   55MOL   C31841466   3.894   1.019   7.324 -0.4052  0.0323  0.5790
   55MOL   C31941467   3.810   1.146   7.333  0.0893  0.0818  0.2964
   55MOL   C32041468   3.856   1.251   7.438  1.1580  0.5024 -0.5246
   55MOL   N32141469   3.763   1.363   7.426  0.8850 -0.2089  0.4918
   55MOL   H32241470   3.341   0.282   7.487  0.4254  0.0527 -0.1009
   55MOL   H32341471   3.254   0.435   7.490  0.9964  0.3435  1.8147
   55MOL   H32441472   3.438   0.363   7.255 -0.2878  0.4864  1.0002
   55MOL   H32541473   3.294   0.278   7.271  1.4379 -0.3803 -1.1433
   55MOL   H32641474   3.152   0.463   7.234 -0.8441 -0.6058 -0.7446
   55MOL   H32741475   3.269   0.463   7.106 -0.9726  0.9816 -0.8622
   55MOL   H32841476   3.313   0.643   7.349  1.8621  0.7398 -0.2613
   55MOL   H32941477   3.220   0.689   7.216 -0.8771 -1.5654  0.8751
   55MOL   H33041478   3.542   0.611   7.301  2.9666  0.5377  0.3761
   55MOL   H33141479   3.740   0.648   7.186 -0.4980 -0.4862  0.2705
   55MOL   H33241480   3.669   0.756   7.071 -0.5563  0.7068 -0.0685
   55MOL   H33341481   3.614   0.924   7.244  1.3842  0.9966 -0.1100
   55MOL   H33441482   3.687   0.829   7.371  0.6968 -0.8242  0.2480
   55MOL   H33541483   3.836   0.926   7.126  1.9394  1.7937  0.5312
   55MOL   H33641484   3.901   0.816   7.241 -0.0458  0.3617  0.3606
   55MOL   H33741485   3.906   0.987   7.428 -0.2452  0.5810  0.7316
   55MOL   H33841486   3.996   1.045   7.296 -0.0554 -2.7816 -0.9440
   55MOL   H33941487   3.810   1.206   7.242  0.0325 -0.8707 -0.3431
   55MOL   H34041488   3.711   1.117   7.368  0.2691 -1.3791 -0.3286
   55MOL   H34141489   3.957   1.289   7.420  0.9706  0.2524 -2.2086
   55MOL   H34241490   3.854   1.197   7.533 -1.9827  0.8837 -0.3378
   55MOL   H34341491   3.710   1.381   7.342  0.4220  1.8436  1.2036
   55MOL   C34441492   3.753   1.462   7.518 -0.0235 -0.1646 -0.3783
   55MOL   O34541493   3.819   1.463   7.625  0.1446 -0.0622  0.5168
   55MOL   C34641494   3.645   1.561   7.493  0.7395  0.2164 -0.3756
   55MOL   C34741495   3.688   1.704   7.533  0.1955 -0.0338  0.4750
   55MOL   C34841496   3.570   1.803   7.501  0.0317  0.6807  0.2358
   55MOL   C34941497   3.456   1.790   7.606  0.4648  0.1863  0.3912
   55MOL   C35041498   3.332   1.870   7.576 -0.1429 -0.7223 -0.0544
   55MOL   O35141499   3.321   1.965   7.493  0.0372  0.1288 -0.5950
   55MOL   N35241500   3.225   1.826   7.640  0.1814 -0.4131 -0.3773
   55MOL   C35341501   3.086   1.853   7.598 -0.6295  0.9411  0.1512
   55MOL   C35441502   3.046   1.734   7.502  0.4117 -0.3015  0.1437
   55MOL   C35541503   2.902   1.751   7.446  0.0842 -0.2838  0.3176
   55MOL   C35641504   2.890   1.843   7.328 -0.4390 -0.1945  0.6130
   55MOL   C35741505   2.751   1.858   7.275  1.0728 -0.5900 -0.6040
   55MOL   C35841506   2.744   1.948   7.147 -0.2617 -0.1523 -0.2504
   55MOL   N35941507   2.839   1.902   7.042  0.1426  0.8488 -0.8029
   55MOL   H36041508   3.607   1.552   7.391  1.6408  1.2931 -0.8150
   55MOL   H36141509   3.559   1.538   7.557  0.1579 -1.2402 -1.6378
   55MOL   H36241510   3.723   1.706   7.636 -1.3688  0.7235  1.0026
   55MOL   H36341511   3.782   1.721   7.480 -0.4592  0.1254 -0.6513
   55MOL   H36441512   3.531   1.775   7.404 -1.6349 -1.2832  1.4329
   55MOL   H36541513   3.603   1.906   7.492  0.2583  0.6929  1.0912
   55MOL   H36641514   3.493   1.814   7.706 -0.5301  3.2671  0.0577
   55MOL   H36741515   3.423   1.686   7.609 -0.8328  0.6146  2.2991
   55MOL   H36841516   3.231   1.739   7.690  0.2308 -0.0614  0.2303
   55MOL   H36941517   3.019   1.851   7.684 -0.4494  0.4452  0.2858
   55MOL   H37041518   3.074   1.949   7.549 -1.7408  0.6924 -0.0770
   55MOL   H37141519   3.107   1.733   7.411  0.3120  0.4181  0.0607
   55MOL   H37241520   3.052   1.635   7.546  0.0851 -1.0743 -1.5130
   55MOL   H37341521   2.827   1.774   7.522  0.7372 -1.2972  1.2907
   55MOL   H37441522   2.881   1.653   7.403  3.8950  0.6110 -3.9923
   55MOL   H37541523   2.918   1.942   7.365  0.8420 -0.6539  0.8838
   55MOL   H37641524   2.964   1.812   7.255  0.0836  2.5211 -0.0784
   55MOL   H37741525   2.713   1.760   7.247 -0.0762 -0.6145  0.9813
   55MOL   H37841526   2.682   1.885   7.355  0.8876  0.2179 -1.0263
   55MOL   H37941527   2.755   2.051   7.180 -0.6672  0.0904 -0.8789
   55MOL   H38041528   2.643   1.940   7.108 -0.2613 -2.4039  0.1257
   55MOL   H38141529   2.936   1.927   7.055 -0.2188  1.6308  0.4464
   55MOL   C38241530   2.810   1.822   6.941 -0.0886 -0.5275 -0.0308
   55MOL   O38341531   2.698   1.782   6.915 -0.0137  0.7299 -0.5175
   55MOL   C38441532   2.921   1.789   6.850 -0.5073  0.1959  0.9090
   55MOL   C38541533   2.872   1.698   6.727 -0.7324  0.4157 -0.4703
   55MOL   C38641534   2.994   1.669   6.634 -0.1131  0.5653  0.4660
   55MOL   C38741535   2.966   1.611   6.492 -0.0916 -0.1831 -0.5126
   55MOL   C38841536   2.857   1.686   6.419  0.5867 -0.3720  0.4011
   55MOL   O38941537   2.744   1.633   6.409  0.0868  0.1566 -0.0059
   55MOL   N39041538   2.886   1.802   6.370 -0.0885 -0.1978 -0.0289
   55MOL   C39141539   2.786   1.884   6.306  0.2532  0.5330  0.2499
   55MOL   C39241540   2.769   1.839   6.167 -0.2428 -0.2061 -0.1938
   55MOL   C39341541   2.899   1.848   6.080  0.1106  0.0899 -0.2640
   55MOL   C39441542   2.905   1.988   6.015  0.4197 -0.3315  0.1852
   55MOL   C39541543   3.040   2.006   5.944  0.1160 -0.4024  0.5874
   55MOL   C39641544   3.066   2.139   5.872  0.0779 -0.6602 -0.1300
   55MOL   N39741545   3.202   2.146   5.824  0.5317 -0.4023  0.4658
   55MOL   H39841546   2.958   1.879   6.800  2.9423 -2.1079 -0.9387
   55MOL   H39941547   3.009   1.748   6.901  0.4246 -1.6698 -2.0506
   55MOL   H40041548   2.832   1.603   6.761  0.8731  0.9713  3.1569
   55MOL   H40141549   2.792   1.744   6.669 -1.6568 -0.9564 -0.3154
   55MOL   H40241550   3.059   1.597   6.683 -0.3714  0.4805  0.6886
   55MOL   H40341551   3.045   1.765   6.628  0.3458  0.2963  0.0301
   55MOL   H40441552   2.929   1.509   6.505  3.6909 -1.5689 -0.1925
   55MOL   H40541553   3.058   1.599   6.436  0.8216 -1.7455  1.2489
   55MOL   H40641554   2.980   1.839   6.370 -0.0879  0.1210  4.3458
   55MOL   H40741555   2.691   1.892   6.357  0.7371 -1.1266  1.4440
   55MOL   H40841556   2.822   1.987   6.299 -2.3523  1.3746 -1.5909
   55MOL   H40941557   2.739   1.735   6.176  0.3720 -0.5087 -1.4884
   55MOL   H41041558   2.684   1.892   6.124 -1.9463 -0.9937  2.1503
   55MOL   H41141559   2.888   1.768   6.006  0.3814 -2.1674  2.0921
   55MOL   H41241560   2.990   1.821   6.132 -0.0332 -0.9020 -0.5127
   55MOL   H41341561   2.817   2.011   5.955  0.6335  3.4853  1.2227
   55MOL   H41441562   2.899   2.058   6.098  1.0732  2.4949 -2.0694
   55MOL   H41541563   3.115   1.997   6.023  0.2494  1.8851  0.7421
   55MOL   H41641564   3.057   1.928   5.870 -0.8940  0.8345 -0.9815
   55MOL   H41741565   3.068   2.220   5.945  1.4747 -1.6371  0.9273
   55MOL   H41841566   2.995   2.168   5.794  0.5941 -1.6566 -0.9888
   55MOL   H41941567   3.261   2.210   5.874  1.1258 -2.7103  2.8063
   55MOL   C42041568   3.247   2.094   5.712 -0.4819 -0.5273  0.1405
   55MOL   O42141569   3.177   2.034   5.633 -0.0558  0.1794  0.1664
   55MOL   C42241570   3.395   2.116   5.689  0.3663  0.2063  0.3768
   55MOL   C42341571   3.433   2.141   5.542  0.8518 -0.6730  0.1855
   55MOL   C42441572   3.448   2.291   5.504 -0.5337 -0.4673 -0.1168
   55MOL   C42541573   3.423   2.319   5.361  0.1606  0.2137  0.2680
   55MOL   C42641574   3.425   2.464   5.321  0.4116  0.1646 -0.3738
   55MOL   O42741575   3.361   2.544   5.391  0.1104 -0.4981 -0.2582
   55MOL   N42841576   3.487   2.496   5.213 -0.7450  0.2299 -0.7785
   55MOL   C42941577   3.484   2.633   5.158 -0.1544 -0.4903 -0.4340
   55MOL   C43041578   3.547   2.632   5.019 -0.2713  0.5453 -0.1037
   55MOL   C43141579   3.522   2.764   4.949  0.1289 -0.0763  0.5906
   55MOL   C43241580   3.599   2.792   4.820 -0.3929  0.0203  0.3772
   55MOL   C43341581   3.608   2.661   4.731  0.7198 -0.0625 -0.2640
   55MOL   C43441582   3.474   2.608   4.672 -0.2914  0.2977  0.6414
   55MOL   N43541583   3.492   2.495   4.582  0.1168  0.5070 -0.0106
   55MOL   H43641584   3.436   2.193   5.754  2.1312 -0.1995 -0.2284
   55MOL   H43741585   3.439   2.022   5.721 -2.2808 -1.4221 -0.5735
   55MOL   H43841586   3.530   2.097   5.521  1.1305 -0.6994  1.5337
   55MOL   H43941587   3.363   2.096   5.472  1.0661 -1.7059  0.6364
   55MOL   H44041588   3.553   2.303   5.532  0.3734 -1.6629 -2.8574
   55MOL   H44141589   3.380   2.349   5.567 -3.6711 -0.0190 -3.7405
   55MOL   H44241590   3.318   2.291   5.356  0.0897  0.1642  1.7600
   55MOL   H44341591   3.471   2.255   5.287 -2.6252 -0.4337 -1.0489
   55MOL   H44441592   3.537   2.422   5.166  0.6250 -1.3702  3.0330
   55MOL   H44541593   3.381   2.666   5.146  0.1796  1.1179  0.9937
   55MOL   H44641594   3.523   2.702   5.233  0.1123  0.2330 -1.2390
   55MOL   H44741595   3.654   2.615   5.030 -0.5711 -0.7721  0.9752
   55MOL   H44841596   3.498   2.550   4.966  0.9788  0.2569 -0.8353
   55MOL   H44941597   3.552   2.841   5.020 -2.4575 -0.9078  2.6613
   55MOL   H45041598   3.416   2.774   4.925  0.4380  0.0717 -0.7569
   55MOL   H45141599   3.564   2.883   4.771 -0.0696 -0.5545 -0.9610
   55MOL   H45241600   3.694   2.827   4.860  1.2123 -1.3405 -2.1213
   55MOL   H45341601   3.682   2.686   4.655 -0.4736  0.8153 -1.1614
   55MOL   H45441602   3.663   2.580   4.778 -2.9608 -2.2414  0.5170
   55MOL   H45541603   3.427   2.699   4.635 -1.2075 -0.9847 -1.4096
   55MOL   H45641604   3.419   2.573   4.760 -0.4028  0.3206  0.5807
   55MOL   H45741605   3.577   2.444   4.602 -0.0385  0.2791  0.0809
   55MOL   C45841606   3.414   2.453   4.481  0.1016  0.1695 -0.4224
   55MOL   O45941607   3.310   2.509   4.457  0.2136 -0.1261  0.1625
   55MOL   C46041608   3.456   2.328   4.400  0.2838 -0.7603 -0.5500
   55MOL   C46141609   3.411   2.198   4.465  0.4832 -0.4342  0.0345
   55MOL   C46241610   3.257   2.184   4.486 -0.8080  0.1359  0.4614
   55MOL   C46341611   3.204   2.042   4.510  0.3363 -0.7402  0.1103
   55MOL   C46441612   3.241   1.979   4.643  0.1695 -0.5538  0.1873
   55MOL   O46541613   3.317   2.047   4.720  0.2663 -0.1416  0.0761
   55MOL   N46641614   3.173   1.872   4.677  0.3994  0.1247  0.0831
   55MOL   C46741615   3.178   1.808   4.807  0.1732 -0.0424 -0.2013
   55MOL   C46841616   3.072   1.871   4.898  0.3973 -0.3186  0.7611
   55MOL   C46941617   3.060   1.793   5.027  0.4724 -0.0526  0.0372
   55MOL   C47041618   3.192   1.816   5.109 -0.1376  0.0647 -0.2306
   55MOL   C47141619   3.183   1.787   5.256  0.0031  0.6265  0.4632
   55MOL   C47241620   3.303   1.828   5.338 -0.4825  0.1581  0.2183
   55MOL   N47341621   3.285   1.818   5.476 -0.0223  0.5155 -0.2724
   55MOL   H47441622   3.416   2.340   4.299  2.3886 -0.8015 -1.4203
   55MOL   H47541623   3.563   2.341   4.382  0.1978  0.7688 -0.0573
   55MOL   H47641624   3.448   2.114   4.406  0.6348 -1.5741  1.7044
   55MOL   H47741625   3.454   2.189   4.565  2.8868  0.4349 -0.9057
   55MOL   H47841626   3.218   2.221   4.391 -1.8196  0.6314  1.0557
   55MOL   H47941627   3.216   2.249   4.564 -0.1480 -0.4558  1.3209
   55MOL   H48041628   3.234   1.976   4.428 -0.2803  0.1900 -0.8851
   55MOL   H48141629   3.097   2.043   4.491  0.4434  0.2407 -0.5113
   55MOL   H48241630   3.124   1.824   4.603  0.8849 -0.5397  0.1885
   55MOL   H48341631   3.167   1.699   4.808 -0.1437 -0.0123  0.6870
   55MOL   H48441632   3.275   1.814   4.856  0.0157 -0.9878  0.2507
   55MOL   H48541633   3.091   1.975   4.923 -2.6874  0.8525 -1.4517
   55MOL   H48641634   2.977   1.873   4.845  0.0165 -0.9606  1.3980
   55MOL   H48741635   3.047   1.687   5.007 -1.5437  0.2439 -0.3734
   55MOL   H48841636   2.969   1.818   5.081  1.2189 -1.4844  2.0285
   55MOL   H48941637   3.277   1.761   5.068  0.2456 -0.6204  1.4399
   55MOL   H49041638   3.213   1.923   5.109  1.6256 -0.2695 -0.6871
   55MOL   H49141639   3.091   1.811   5.310  0.1546 -1.1545  1.5462
   55MOL   H49241640   3.186   1.678   5.265  1.3547  0.2952 -3.4080
   55MOL   H49341641   3.326   1.932   5.316 -0.5458 -0.1947 -1.6568
   55MOL   H49441642   3.399   1.779   5.321  1.3987  2.5498  3.4974
   55MOL   H49541643   3.247   1.900   5.521 -1.0457 -0.4016  0.5785
   55MOL   C49641644   3.295   1.703   5.551  0.2697  0.2299 -0.6308
   55MOL   O49741645   3.332   1.600   5.494 -0.1809  0.0500  0.3584
   55MOL   C49841646   3.244   1.713   5.692 -0.3156 -0.0399  0.1541
   55MOL   C49941647   3.355   1.667   5.788 -0.1737 -0.1601 -0.0486
   55MOL   C50041648   3.317   1.657   5.929  0.6249 -0.2031 -0.1214
   55MOL   C50141649   3.424   1.598   6.024 -1.2059  0.5162  0.0829
   55MOL   C50241650   3.495   1.465   5.978 -0.0247  0.3168 -0.7642
   55MOL   O50341651   3.429   1.369   5.949  0.0583  0.3575  0.2137
   55MOL   N50441652   3.631   1.465   5.983 -0.6033 -0.2657 -0.7421
   55MOL   C50541653   3.722   1.373   5.921  0.1306 -0.3049 -0.7708
   55MOL   C50641654   3.798   1.451   5.812 -0.6258 -0.8372 -0.1273
   55MOL   C50741655   3.709   1.494   5.691 -0.1702  0.7588  0.4288
   55MOL   C50841656   3.792   1.560   5.578  0.2240  0.0672  0.2900
   55MOL   C50941657   3.707   1.603   5.460 -0.0135 -0.2920  0.2191
   55MOL   C51041658   3.794   1.634   5.336  0.6505  0.9081  0.6426
   55MOL   N51141659   3.717   1.665   5.209 -0.9348  0.2625 -0.6471
   55MOL   H51241660   3.210   1.812   5.722 -1.2422 -0.1019 -0.6490
   55MOL   H51341661   3.154   1.653   5.690 -1.1534  1.1739  1.0117
   55MOL   H51441662   3.394   1.570   5.756  0.1837  0.8565 -2.8508
   55MOL   H51541663   3.445   1.728   5.782 -0.4658  0.7333  3.3923
   55MOL   H51641664   3.236   1.584   5.927 -0.0811  0.5078  1.6810
   55MOL   H51741665   3.271   1.747   5.968  1.6771 -0.5593  1.9937
   55MOL   H51841666   3.366   1.564   6.109  0.6314 -0.5800  0.9346
   55MOL   H51941667   3.504   1.664   6.059 -0.3454 -0.9095  0.8791
   55MOL   H52041668   3.676   1.541   6.031 -2.4600  1.5014 -1.7123
   55MOL   H52141669   3.782   1.343   6.007 -2.0953  1.3712  1.4355
   55MOL   H52241670   3.674   1.286   5.878 -0.5337  0.0992 -0.8571
   55MOL   H52341671   3.843   1.536   5.863 -0.2874 -0.2304 -1.3971
   55MOL   H52441672   3.877   1.390   5.769 -0.5046 -1.1339  0.5141
   55MOL   H52541673   3.622   1.549   5.725  0.5827  2.2908 -0.0798
   55MOL   H52641674   3.660   1.403   5.654 -0.4953  0.9472  0.4009
   55MOL   H52741675   3.853   1.635   5.629 -1.8041  2.7988 -1.1764
   55MOL   H52841676   3.856   1.480   5.541  1.0020 -0.1548  2.0692
   55MOL   H52941677   3.650   1.514   5.433 -1.0917  0.0246  1.4080
   55MOL   H53041678   3.634   1.681   5.483 -0.1105  0.4093 -2.2530
   55MOL   H53141679   3.864   1.556   5.308  1.0209  1.7526 -0.9049
   55MOL   H53241680   3.849   1.727   5.348  2.3927  0.2951 -2.0375
   55MOL   H53341681   3.717   1.587   5.144 -0.8610 -0.3005  0.0192
   55MOL   C53441682   3.651   1.775   5.184  0.0566 -0.3383  0.9716
   55MOL   O53541683   3.628   1.857   5.270 -0.1072  0.3101  0.2915
   55MOL   C53641684   3.582   1.781   5.049  0.4795  0.0043 -0.0613
   55MOL   C53741685   3.538   1.924   5.001 -0.3565  0.1840  0.1636
   55MOL   C53841686   3.654   2.023   4.978 -0.0686 -0.5893 -0.4822
   55MOL   C53941687   3.625   2.141   4.882 -0.6027 -0.4424  0.2790
   55MOL   C54041688   3.522   2.240   4.939 -0.2550  0.1927 -0.0279
   55MOL   O54141689   3.569   2.305   5.034 -0.3030  0.3056 -0.0391
   55MOL   N54241690   3.394   2.254   4.894  0.4055 -0.0270 -0.2411
   55MOL   C54341691   3.302   2.345   4.959  0.3716  0.3847  0.1348
   55MOL   C54441692   3.172   2.276   4.952 -0.2435 -0.1280 -0.2446
   55MOL   C54541693   3.038   2.357   4.985 -0.3652 -0.4911 -0.1791
   55MOL   C54641694   3.030   2.396   5.125  0.1040 -0.3318 -0.1572
   55MOL   C54741695   3.015   2.283   5.226  0.1655  0.4067  0.3261
   55MOL   C54841696   2.991   2.328   5.370 -0.0262 -0.0559 -0.2875
   55MOL   N54941697   2.934   2.223   5.458  0.1534 -0.7046  0.3935
   55MOL   H55041698   3.651   1.737   4.978 -0.1648 -0.0631 -0.6535
   55MOL   H55141699   3.492   1.720   5.053  1.5404 -1.4847  1.8641
   55MOL   H55241700   3.489   1.909   4.905 -1.2819  2.4498  0.2455
   55MOL   H55341701   3.465   1.964   5.072  0.5357  0.4564  0.9413
   55MOL   H55441702   3.730   1.960   4.930  0.2013  0.5446 -1.5633
   55MOL   H55541703   3.675   2.050   5.081 -0.4225 -2.0338 -0.0234
   55MOL   H55641704   3.594   2.117   4.781 -0.5319  0.2394  0.0893
   55MOL   H55741705   3.716   2.200   4.866 -2.2438  2.0179 -0.1770
   55MOL   H55841706   3.362   2.184   4.829  3.2652  0.4253 -2.2576
   55MOL   H55941707   3.333   2.358   5.062 -0.9621  1.0446  0.4625
   55MOL   H56041708   3.307   2.436   4.899  2.9383  0.5890  0.5889
   55MOL   H56141709   3.148   2.239   4.852  1.1438 -2.2766  0.1774
   55MOL   H56241710   3.186   2.185   5.010  0.5175 -1.2593 -2.1389
   55MOL   H56341711   2.955   2.293   4.953 -1.0212  1.4370 -2.4820
   55MOL   H56441712   3.036   2.451   4.930 -0.1358  0.1066  0.8366
   55MOL   H56541713   3.108   2.464   5.161  2.7408 -1.3844 -3.6488
   55MOL   H56641714   2.942   2.460   5.122  0.5813  0.4366  1.2444
   55MOL   H56741715   2.925   2.227   5.199 -0.0828  0.0043  1.9671
   55MOL   H56841716   3.096   2.211   5.214 -0.7541 -0.0862 -3.4918
   55MOL   H56941717   2.926   2.415   5.372 -0.7630 -0.6253  0.4733
   55MOL   H57041718   3.080   2.361   5.422  0.8266 -0.5380 -1.3966
   55MOL   H57141719   3.001   2.153   5.485  0.6801  0.7029  2.8378
   55MOL   C57241720   2.811   2.179   5.478 -0.0520  0.3484  0.5187
   55MOL   O57341721   2.711   2.243   5.443  0.1664  0.2233 -0.2552
   55MOL   C57441722   2.790   2.047   5.554 -0.6876 -1.0651  0.5877
   55MOL   C57541723   2.649   1.984   5.517 -0.4065  0.0852  0.3593
   55MOL   C57641724   2.606   1.857   5.593  0.0750  0.1120  0.4446
   55MOL   C57741725   2.498   1.778   5.508  0.0423 -0.9122  0.0705
   55MOL   C57841726   2.361   1.847   5.507  0.5657 -0.5142 -0.4095
   55MOL   O57941727   2.341   1.938   5.431  0.1017  0.0711  0.3953
   55MOL   N58041728   2.284   1.815   5.612  0.3422 -0.5316  0.2499
   55MOL   C58141729   2.160   1.881   5.652  0.2954 -0.1261 -0.1686
   55MOL   C58241730   2.185   2.026   5.699  0.4241  0.2868  1.2026
   55MOL   C58341731   2.055   2.111   5.740 -0.0762  0.3224  0.2774
   55MOL   C58441732   2.088   2.241   5.808  0.5558 -0.2516 -0.8194
   55MOL   C58541733   1.955   2.323   5.839 -0.1059  0.0018 -0.1285
   55MOL   C58641734   1.865   2.357   5.717 -0.2552 -0.5979  1.1082
   55MOL   N58741735   1.760   2.450   5.762 -0.2910 -0.0134 -0.0101
   55MOL   H58841736   2.873   1.978   5.544  2.0555  2.1589  0.4698
   55MOL   H58941737   2.776   2.072   5.659 -1.5623 -0.2022  0.2763
   55MOL   H59041738   2.572   2.062   5.512  0.0273  0.4342 -1.1165
   55MOL   H59141739   2.659   1.955   5.412 -1.2339 -2.4910  0.9580
   55MOL   H59241740   2.574   1.882   5.694  0.8857 -1.1642  1.0287
   55MOL   H59341741   2.702   1.806   5.590  0.0700  0.0668  1.0739
   55MOL   H59441742   2.480   1.681   5.553  1.3268 -0.5550  1.3728
   55MOL   H59541743   2.530   1.747   5.408 -3.6578  0.9244 -1.7805
   55MOL   H59641744   2.311   1.739   5.673  0.3052 -0.4809  0.3284
   55MOL   H59741745   2.089   1.883   5.570  0.0596 -1.0954 -0.0012
   55MOL   H59841746   2.117   1.828   5.737  2.5190 -2.6361 -0.5323
   55MOL   H59941747   2.259   2.014   5.778 -0.5470 -3.3095  1.6495
   55MOL   H60041748   2.235   2.079   5.618 -1.2500  1.3882  0.8534
   55MOL   H60141749   1.981   2.046   5.787  0.6745  0.2569  1.3897
   55MOL   H60241750   2.023   2.139   5.640 -1.6031  1.5270  1.0858
   55MOL   H60341751   2.133   2.225   5.905  0.7574 -0.3583 -0.9302
   55MOL   H60441752   2.158   2.304   5.753 -0.3594 -0.6281 -2.4531
   55MOL   H60541753   1.889   2.277   5.912  1.6139 -3.2199 -0.5207
   55MOL   H60641754   1.989   2.417   5.883  0.7251  0.4400 -1.6385
   55MOL   H60741755   1.814   2.275   5.665 -0.8992  0.6423 -0.2589
   55MOL   H60841756   1.934   2.411   5.653 -0.1769 -0.7770  1.0396
   55MOL   H60941757   1.775   2.548   5.742 -1.4178  0.3083  0.7463
   55MOL   C61041758   1.645   2.409   5.814  0.0684  0.1646  0.2355
   55MOL   O61141759   1.620   2.289   5.821  0.0461 -0.2306 -0.0056
   55MOL   C61241760   1.547   2.504   5.881  0.4732  0.1558  0.7674
   55MOL   C61341761   1.459   2.453   6.000  0.5262 -0.3887 -0.3104
   55MOL   C61441762   1.502   2.496   6.138 -0.6154  0.3357  0.5956
   55MOL   C61541763   1.629   2.422   6.177  0.4090 -0.5385  0.4286
   55MOL   C61641764   1.595   2.282   6.222 -0.8336 -0.9567 -0.0530
   55MOL   O61741765   1.508   2.261   6.312  0.3911  0.3000 -0.0452
   55MOL   N61841766   1.650   2.186   6.148 -0.2696  0.4560 -0.2655
   55MOL   C61941767   1.610   2.044   6.144  0.3419 -0.6211  0.0874
   55MOL   C62041768   1.727   1.958   6.100 -0.3856  0.1838  0.3629
   55MOL   C62141769   1.776   1.982   5.949  0.1716  0.0102  0.5496
   55MOL   C62241770   1.674   1.942   5.854  0.4605  0.8124  0.0620
   55MOL   C62341771   1.714   1.953   5.707 -0.5255 -0.0224 -0.2105
   55MOL   C62441772   1.602   1.939   5.615  0.4272 -0.9011  0.3434
   55MOL   N62541773   1.647   1.970   5.478  0.0749 -0.0062  0.1673
   55MOL   H62641774   1.589   2.601   5.909  0.2560 -0.1475  2.1905
   55MOL   H62741775   1.467   2.521   5.808 -0.3338 -3.1017  0.8287
   55MOL   H62841776   1.358   2.490   5.983  0.5776  0.0551  0.3698
   55MOL   H62941777   1.456   2.344   6.002 -1.8854 -0.3101  1.1829
   55MOL   H63041778   1.417   2.485   6.205 -0.5449 -1.0533  0.4636
   55MOL   H63141779   1.525   2.603   6.143 -0.6494  0.4134 -0.7651
   55MOL   H63241780   1.672   2.483   6.257  0.2400  2.1092 -1.4276
   55MOL   H63341781   1.714   2.425   6.109  0.6676 -0.9493  0.7303
   55MOL   H63441782   1.708   2.207   6.067 -2.5978 -0.0479 -2.1012
   55MOL   H63541783   1.582   2.013   6.245  0.5903 -2.4087 -0.3835
   55MOL   H63641784   1.524   2.028   6.078 -0.9071 -0.9775  1.7567
   55MOL   H63741785   1.814   1.982   6.161 -0.5620 -0.3568  0.8281
   55MOL   H63841786   1.697   1.853   6.109  0.1383  0.0014 -0.0020
   55MOL   H63941787   1.852   1.906   5.929  0.1770  0.0192  0.5360
   55MOL   H64041788   1.817   2.081   5.929  0.2080 -0.4135 -1.5009
   55MOL   H64141789   1.638   1.841   5.871 -1.4297  1.1228 -1.7562
   55MOL   H64241790   1.593   2.015   5.857  0.3644  0.7980 -1.4972
   55MOL   H64341791   1.755   2.050   5.679 -1.3259  0.7666  1.3455
   55MOL   H64441792   1.797   1.884   5.687 -0.7848 -0.3878 -0.0324
   55MOL   H64541793   1.521   2.011   5.632  1.4815  0.5419 -0.6032
   55MOL   H64641794   1.553   1.842   5.622  0.1363 -0.9297 -1.6971
   55MOL   H64741795   1.644   2.066   5.449  0.0242  0.4821  1.7483
   55MOL   C64841796   1.675   1.884   5.378 -0.2366  0.0601 -0.2520
   55MOL   O64941797   1.707   1.764   5.408 -0.0652  0.7940 -0.1411
   55MOL   C65041798   1.680   1.938   5.232  0.3040  0.2914 -0.4987
   55MOL   C65141799   1.684   1.819   5.133 -0.5810 -0.3796  0.3398
   55MOL   C65241800   1.657   1.854   4.993 -0.0815 -0.1310  0.7024
   55MOL   C65341801   1.718   1.749   4.892  0.2419 -0.1847  0.6566
   55MOL   C65441802   1.652   1.612   4.895 -0.5991  0.1116 -0.4231
   55MOL   O65541803   1.536   1.600   4.911 -0.1920 -0.4613  0.3169
   55MOL   N65641804   1.728   1.502   4.888  0.5320  0.4748  0.1513
   55MOL   C65741805   1.670   1.365   4.888  0.1113  0.0243  0.6037
   55MOL   C65841806   1.778   1.248   4.898  0.2137  0.4433 -0.3032
   55MOL   C65941807   1.714   1.109   4.930 -0.3832 -0.3311 -0.2687
   55MOL   C66041808   1.813   0.993   4.931  1.2219  0.0307 -0.1169
   55MOL   C66141809   1.742   0.862   4.969  0.3075  0.1611 -0.1927
   55MOL   C66241810   1.820   0.731   4.991 -0.7332  0.5890 -0.5584
   55MOL   N66341811   1.881   0.734   5.121  0.3292 -0.3825  0.2789
   55MOL   H66441812   1.595   2.001   5.206  0.7891  0.1953 -2.4159
   55MOL   H66541813   1.761   2.010   5.221 -0.3921  1.0997 -0.3477
   55MOL   H66641814   1.778   1.767   5.151 -0.4159  0.0436  0.7224
   55MOL   H66741815   1.605   1.748   5.156 -1.6985  0.7243 -0.0330
   55MOL   H66841816   1.723   1.940   4.980 -1.4601  0.5861 -1.8090
   55MOL   H66941817   1.555   1.889   4.979 -0.4495 -2.1651 -1.9313
   55MOL   H67041818   1.827   1.745   4.895  0.4757  1.0194 -2.8222
   55MOL   H67141819   1.700   1.787   4.791  2.7823  0.3794  0.3904
   55MOL   H67241820   1.823   1.520   4.858  0.1494  3.1608  0.4282
   55MOL   H67341821   1.602   1.358   4.973 -0.2763  1.0174  0.3741
   55MOL   H67441822   1.601   1.354   4.804  1.3520  2.3873 -0.7442
   55MOL   H67541823   1.818   1.248   4.796  1.1979 -3.1497  0.0262
   55MOL   H67641824   1.856   1.276   4.969  0.6871 -0.9616 -0.2505
   55MOL   H67741825   1.640   1.096   4.851 -0.7717 -0.9203  0.1846
   55MOL   H67841826   1.661   1.109   5.025 -1.1815 -4.3628 -0.6155
   55MOL   H67941827   1.839   0.988   4.825  1.7676 -1.2938  0.0699
   55MOL   H68041828   1.905   1.007   4.989  1.1138 -2.2765  0.6516
   55MOL   H68141829   1.685   0.882   5.060  1.9857 -3.5734  1.7591
   55MOL   H68241830   1.672   0.841   4.888  0.0975  0.8162 -0.1892
   55MOL   H68341831   1.885   0.703   4.908 -0.9316  1.3320 -0.9762
   55MOL   H68441832   1.739   0.660   5.006 -0.9407  0.6808 -1.2223
   55MOL   H68541833   1.832   0.777   5.198  0.7297 -1.2515  1.0211
   55MOL   C68641834   1.998   0.669   5.150  0.6276 -0.0520 -0.6083
   55MOL   O68741835   2.058   0.604   5.064 -0.7285 -0.0310 -0.3965
   55MOL   C68841836   2.050   0.695   5.290 -0.3693 -0.2615 -0.0632
   55MOL   C68941837   2.034   0.843   5.333 -0.0731  0.1852 -0.4374
   55MOL   C69041838   2.100   0.952   5.241  0.1650 -0.7336 -0.1446
   55MOL   C69141839   2.109   1.089   5.316 -0.0934  0.4644  0.0398
   55MOL   C69241840   1.970   1.154   5.339  0.3832 -0.2311 -0.1128
   55MOL   O69341841   1.881   1.095   5.390  0.5778  0.0783 -0.0526
   55MOL   N69441842   1.954   1.290   5.317  0.1280  0.3121  0.0046
   55MOL   C69541843   1.850   1.369   5.361 -0.0673 -0.1021  0.1774
   55MOL   C69641844   1.750   1.390   5.247 -0.1668  0.0373 -0.7290
   55MOL   C69741845   1.603   1.404   5.284 -0.4029  0.0802 -0.1955
   55MOL   C69841846   1.539   1.318   5.393 -0.5043 -0.5470 -0.1942
   55MOL   C69941847   1.529   1.170   5.345  0.2853 -0.6335 -0.1618
   55MOL   C70041848   1.518   1.062   5.455 -0.0192 -0.4609  0.8220
   55MOL   N70141849   1.646   1.051   5.521  0.5910 -0.3879 -0.1551
   55MOL   H70241850   2.021   0.623   5.366 -0.6582  1.3735  1.4053
   55MOL   H70341851   2.156   0.668   5.291  0.2560  2.0922  1.9154
   55MOL   H70441852   1.928   0.867   5.340 -0.3617 -1.4583  1.8202
   55MOL   H70541853   2.066   0.847   5.438  1.8219  1.1224 -1.0337
   55MOL   H70641854   2.052   0.964   5.145 -0.5641 -0.8967  0.1964
   55MOL   H70741855   2.202   0.917   5.221  1.2077  2.8929 -1.4930
   55MOL   H70841856   2.169   1.163   5.262  0.3443 -0.1559 -0.3184
   55MOL   H70941857   2.150   1.081   5.416 -1.5387  1.3121  0.7251
   55MOL   H71041858   2.034   1.335   5.275 -0.3194  0.9753 -0.1430
   55MOL   H71141859   1.803   1.337   5.454 -0.1354 -1.3852 -0.2885
   55MOL   H71241860   1.889   1.465   5.393  0.7300 -1.0566  2.1512
   55MOL   H71341861   1.771   1.486   5.198  0.7333  0.8944  1.2881
   55MOL   H71441862   1.763   1.315   5.169  0.9252  1.3223 -1.8426
   55MOL   H71541863   1.556   1.391   5.187  0.4887  0.9004 -0.7477
   55MOL   H71641864   1.588   1.504   5.325  0.7595  1.2051 -2.4251
   55MOL   H71741865   1.589   1.334   5.488  0.1282 -0.9293 -0.4576
   55MOL   H71841866   1.441   1.353   5.425 -0.4493 -0.1952 -0.4111
   55MOL   H71941867   1.435   1.158   5.291  1.2033 -1.0740 -1.6897
   55MOL   H72041868   1.608   1.144   5.274  0.8691 -0.3898  0.3884
   55MOL   H72141869   1.495   0.960   5.424 -2.8359  0.3419  0.0976
   55MOL   H72241870   1.441   1.095   5.524  0.2139  2.0499 -0.0488
   55MOL   H72341871   1.732   1.041   5.468  0.8234 -1.0604  0.3393
   55MOL   C72441872   1.671   1.045   5.655  0.0904  0.1992  0.2598
   55MOL   O72541873   1.577   1.028   5.737 -0.1541 -0.0881  0.2783
   55MOL   C72641874   1.816   1.052   5.692  0.5462 -0.0229 -0.3477
   55MOL   C72741875   1.837   1.000   5.834  0.4238 -0.1702 -0.1918
   55MOL   C72841876   1.980   1.026   5.884  0.0695 -0.1935 -0.4352
   55MOL   C72941877   2.106   0.952   5.827 -0.3087 -0.5066  0.2180
   55MOL   C73041878   2.219   0.931   5.925 -0.2787 -1.2434  0.1285
   55MOL   O73141879   2.200   0.854   6.018 -0.0720  0.2044  0.1397
   55MOL   N73241880   2.338   0.995   5.907 -0.3742  0.4620  0.4098
   55MOL   C73341881   2.462   0.969   5.976 -0.3416 -0.2445  0.1022
   55MOL   C73441882   2.595   1.016   5.904  0.1557  0.4663 -0.0752
   55MOL   C73541883   2.730   0.988   5.977  0.0436  0.0310  0.1955
   55MOL   C73641884   2.843   1.084   5.931  0.2980  0.7255  0.0003
   55MOL   C73741885   2.882   1.067   5.784  0.1047  0.2816 -0.1807
   55MOL   C73841886   2.924   0.925   5.748  0.7576 -0.4662 -0.4727
   55MOL   N73941887   3.013   0.926   5.635  0.2961 -0.0664  0.1258
   55MOL   H74041888   1.870   0.978   5.632  0.8641 -0.5800  0.6241
   55MOL   H74141889   1.861   1.151   5.682 -0.2292  0.6436  2.5028
   55MOL   H74241890   1.773   1.069   5.889 -1.2486 -0.9082 -1.1643
   55MOL   H74341891   1.808   0.896   5.852 -0.4652 -0.0505 -0.8918
   55MOL   H74441892   1.972   1.010   5.992  0.9214  0.4205 -0.2707
   55MOL   H74541893   1.997   1.134   5.880  0.7582 -0.1606  2.3988
   55MOL   H74641894   2.124   1.021   5.744 -0.2436 -1.8313 -0.8858
   55MOL   H74741895   2.077   0.855   5.785 -0.4428 -0.7220  0.8098
   55MOL   H74841896   2.344   1.069   5.838 -2.2884 -1.1417 -1.5727
   55MOL   H74941897   2.455   1.014   6.075  1.0490  1.2167 -0.4413
   55MOL   H75041898   2.477   0.861   5.980  0.1055 -0.2055 -0.6030
   55MOL   H75141899   2.599   0.972   5.805  0.3366 -0.6229  0.4055
   55MOL   H75241900   2.588   1.125   5.899  2.3870  0.6267  0.0684
   55MOL   H75341901   2.754   0.882   5.985  2.9736  0.6434 -0.1114
   55MOL   H75441902   2.709   1.022   6.079 -0.6009  0.9031 -0.2209
   55MOL   H75541903   2.827   1.187   5.962  2.9584  1.7442 -1.8867
   55MOL   H75641904   2.935   1.064   5.986 -0.5860 -0.0361  1.2432
   55MOL   H75741905   2.801   1.114   5.729  0.3638  3.8119  2.2270
   55MOL   H75841906   2.966   1.137   5.776 -1.7514  2.9165  2.3295
   55MOL   H75941907   2.838   0.861   5.727 -0.4492  1.2552 -0.8874
   55MOL   H76041908   2.985   0.889   5.830 -0.8689 -0.2835  0.8348
   55MOL   H76141909   3.034   0.830   5.610  1.3136 -0.2616  1.6546
   55MOL   H76241910   3.104   0.961   5.662  1.6990 -2.8813 -0.7388
   56MOL     C141911   4.527   6.088   6.367 -0.6346  0.3128 -0.2762
   56MOL     O241912   4.590   6.187   6.410 -0.0174 -0.2442 -0.3424
   56MOL     C341913   4.458   5.997   6.471  0.4411  0.5515  0.4193
   56MOL     C441914   4.372   5.894   6.401 -0.5472  0.3064 -0.4118
   56MOL     C541915   4.266   5.951   6.303 -0.0488 -0.3028 -0.0407
   56MOL     C641916   4.152   5.854   6.273 -0.4939 -0.1631  0.4003
   56MOL     C741917   4.187   5.720   6.208  0.0256  0.4106  0.7325
   56MOL     O841918   4.277   5.718   6.125  0.4613 -0.5944 -0.3415
   56MOL     N941919   4.125   5.609   6.255  0.1629 -0.3449  0.7453
   56MOL    C1041920   4.168   5.469   6.231 -0.1821 -0.0719 -0.0810
   56MOL    C1141921   4.062   5.398   6.163 -0.2430  0.4061 -0.2486
   56MOL    C1241922   4.107   5.255   6.121  0.0729 -0.5330  0.4106
   56MOL    C1341923   3.983   5.186   6.053 -0.6018  0.0699  0.1941
   56MOL    C1441924   4.021   5.054   5.980 -0.1636  0.4217 -0.0074
   56MOL    C1541925   3.900   4.961   5.952  0.2283 -0.4532 -0.0279
   56MOL    N1641926   3.829   4.946   6.082 -0.3044 -0.6551  0.5237
   56MOL    H1741927   4.542   5.966   6.533 -0.3512 -0.4648  0.9854
   56MOL    H1841928   4.391   6.060   6.528 -1.2215 -0.3069 -0.5167
   56MOL    H1941929   4.430   5.816   6.353  0.9229  0.0896  1.6696
   56MOL    H2041930   4.316   5.836   6.474 -1.1433 -1.9795 -2.6087
   56MOL    H2141931   4.318   5.969   6.208  2.0628  1.0818  1.3288
   56MOL    H2241932   4.215   6.039   6.343  1.9031 -0.0788  2.0420
   56MOL    H2341933   4.081   5.900   6.204  0.4612 -0.0716 -0.5296
   56MOL    H2441934   4.088   5.850   6.362  0.7235 -0.7861  1.2586
   56MOL    H2541935   4.057   5.623   6.328  0.3332  0.3811  0.7760
   56MOL    H2641936   4.264   5.473   6.181  0.3181  1.7566  0.9720
   56MOL    H2741937   4.186   5.432   6.332 -2.1047 -2.6507 -0.6396
   56MOL    H2841938   3.984   5.389   6.238  0.7350 -0.1405  0.7124
   56MOL    H2941939   4.027   5.467   6.086 -1.1710 -0.1930 -0.3776
   56MOL    H3041940   4.150   5.213   6.213 -0.0482 -1.7091 -0.0670
   56MOL    H3141941   4.197   5.256   6.060 -0.1512 -0.4320  0.0841
   56MOL    H3241942   3.899   5.188   6.123 -0.6703  0.2755  0.1080
   56MOL    H3341943   3.944   5.246   5.971  0.5373 -0.8568 -1.0499
   56MOL    H3441944   4.064   5.081   5.883  0.7388 -0.8570  0.0242
   56MOL    H3541945   4.104   5.000   6.024  1.7546  3.3507  0.0705
   56MOL    H3641946   3.937   4.865   5.916  0.4391 -0.1903 -0.5192
   56MOL    H3741947   3.825   5.009   5.890 -0.4454  1.0406  1.8917
   56MOL    H3841948   3.762   5.015   6.113 -1.0295 -0.3306 -1.6716
   56MOL    H3941949   4.539   6.054   6.264  2.4987  0.2315  0.0886
   56MOL    C4041950   3.842   4.839   6.166  0.4049 -0.3509 -0.4706
   56MOL    O4141951   3.906   4.742   6.133 -0.3706 -0.1948  0.3132
   56MOL    C4241952   3.771   4.847   6.304 -0.3236 -0.6260  0.2401
   56MOL    C4341953   3.865   4.858   6.425 -0.4088 -0.0416  0.0390
   56MOL    C4441954   3.947   4.990   6.425 -0.7847  0.3904  0.1551
   56MOL    C4541955   4.048   5.010   6.539  0.7937 -0.6038 -0.2952
   56MOL    C4641956   4.127   5.143   6.524 -0.6638 -0.3199  0.0774
   56MOL    O4741957   4.068   5.249   6.497 -0.0550  0.2242 -1.3475
   56MOL    N4841958   4.259   5.138   6.546 -0.4936  0.5617  0.4683
   56MOL    C4941959   4.350   5.254   6.533  0.2259 -0.3183  0.4212
   56MOL    C5041960   4.470   5.226   6.445  0.0170  0.4333 -0.5876
   56MOL    C5141961   4.426   5.201   6.300  0.2474  0.2122 -0.4327
   56MOL    C5241962   4.546   5.175   6.202  0.2783  0.1210  0.6984
   56MOL    C5341963   4.496   5.157   6.055 -0.2359  0.6284 -0.9610
   56MOL    C5441964   4.608   5.154   5.951  0.1047 -0.3448  0.3701
   56MOL    N5541965   4.544   5.162   5.819 -0.1524  0.5484 -0.1092
   56MOL    H5641966   3.694   4.924   6.304 -1.3179 -1.5876 -0.5738
   56MOL    H5741967   3.702   4.762   6.306 -4.1404  2.1967 -2.5017
   56MOL    H5841968   3.806   4.839   6.515 -0.2315 -2.5337 -0.3483
   56MOL    H5941969   3.937   4.777   6.435 -1.1269 -0.7133 -0.1880
   56MOL    H6041970   3.873   5.070   6.428  0.6126  1.6748  1.4153
   56MOL    H6141971   3.990   5.011   6.327 -0.9643 -0.2311 -0.0618
   56MOL    H6241972   4.117   4.926   6.551  0.8801 -0.8994 -2.7834
   56MOL    H6341973   3.988   5.028   6.628  1.0610  1.9090 -0.6036
   56MOL    H6441974   4.299   5.046   6.552 -0.9514  0.1971 -1.6808
   56MOL    H6541975   4.299   5.346   6.507  3.4531  1.6783  0.8892
   56MOL    H6641976   4.392   5.281   6.630 -0.1905  0.4553  0.3899
   56MOL    H6741977   4.540   5.310   6.445 -0.5201  0.8797 -0.6762
   56MOL    H6841978   4.529   5.147   6.491  0.5287  0.2851 -1.4855
   56MOL    H6941979   4.375   5.294   6.273 -0.0188  0.6990  1.6471
   56MOL    H7041980   4.357   5.117   6.303 -1.6353  1.6552 -1.6233
   56MOL    H7141981   4.602   5.269   6.210  2.9843 -1.4916  1.4372
   56MOL    H7241982   4.601   5.092   6.246  0.1042  0.3671  1.3715
   56MOL    H7341983   4.430   5.072   6.043 -2.3203  1.6778  2.5067
   56MOL    H7441984   4.418   5.224   6.020  1.3505  2.7209 -0.6399
   56MOL    H7541985   4.673   5.069   5.973 -0.6427 -0.8588  0.6376
   56MOL    H7641986   4.669   5.238   5.984  1.5635 -2.1031  2.2521
   56MOL    H7741987   4.524   5.257   5.792  1.9085  0.9303 -0.3314
   56MOL    C7841988   4.508   5.058   5.745  0.5228  0.8053  0.2708
   56MOL    O7941989   4.508   4.942   5.789 -0.4194  0.8033 -0.3200
   56MOL    C8041990   4.454   5.096   5.606  0.0916 -0.6030 -0.5518
   56MOL    C8141991   4.505   5.005   5.492  0.3424 -0.1085  0.0843
   56MOL    C8241992   4.656   5.007   5.465  0.5602 -0.4000 -0.5464
   56MOL    C8341993   4.691   5.001   5.317 -0.4645 -0.6164  0.4230
   56MOL    C8441994   4.834   4.972   5.275 -0.3490 -0.3954  0.0302
   56MOL    O8541995   4.893   4.875   5.320  0.3266 -0.3443  0.4174
   56MOL    N8641996   4.884   5.048   5.178  0.2891 -0.4990  0.1409
   56MOL    C8741997   5.018   5.017   5.124  0.6471  0.0767  0.1090
   56MOL    C8841998   5.069   5.131   5.041 -0.2751  0.4013 -0.1329
   56MOL    C8941999   5.196   5.090   4.969 -0.6504 -0.5938 -0.0034
   56MOL    C9042000   5.261   5.214   4.905 -0.0934 -0.7736 -0.5113
   56MOL    C9142001   5.379   5.167   4.827 -0.3452  0.0961  0.4521
   56MOL    C9242002   5.445   5.277   4.742 -0.3157 -0.2584 -0.0866
   56MOL    N9342003   5.562   5.220   4.671 -0.4427  0.0465 -0.4198
   56MOL    H9442004   4.346   5.080   5.611 -0.0654  0.6848  0.4904
   56MOL    H9542005   4.473   5.202   5.590 -4.0052  0.5013  1.2552
   56MOL    H9642006   4.473   4.904   5.518 -2.8553  1.3898  2.2850
   56MOL    H9742007   4.449   5.040   5.405  1.5077  1.5306 -0.0306
   56MOL    H9842008   4.702   4.929   5.526  0.6601  0.1827  0.1439
   56MOL    H9942009   4.690   5.107   5.495  1.8052 -0.8735 -0.3601
   56MOL   H10042010   4.657   5.095   5.274 -1.4406 -0.6734  1.0547
   56MOL   H10142011   4.627   4.924   5.274  1.5046 -0.4182 -3.0105
   56MOL   H10242012   4.820   5.120   5.149  1.1812  0.7239  1.1938
   56MOL   H10342013   5.082   4.999   5.211 -0.2068 -3.3010  0.0781
   56MOL   H10442014   5.002   4.926   5.067  1.3865  0.2803 -0.4273
   56MOL   H10542015   4.991   5.154   4.969  1.1156 -2.6013 -2.7179
   56MOL   H10642016   5.064   5.217   5.108  1.5409  0.0294  0.5022
   56MOL   H10742017   5.176   4.999   4.912 -1.3788  1.4128 -3.0463
   56MOL   H10842018   5.263   5.056   5.048 -0.1460  2.3149  0.8658
   56MOL   H10942019   5.192   5.257   4.833 -0.1499  1.0478  0.5894
   56MOL   H11042020   5.291   5.284   4.984  0.2123 -2.1273  0.5926
   56MOL   H11142021   5.453   5.127   4.896 -0.0103 -0.6695 -0.3416
   56MOL   H11242022   5.358   5.085   4.758  3.3522 -1.0360  0.5606
   56MOL   H11342023   5.473   5.359   4.809 -1.7407  0.3245 -0.2054
   56MOL   H11442024   5.372   5.312   4.669 -0.4884 -0.9297 -0.2415
   56MOL   H11542025   5.636   5.179   4.726  0.5586  1.0092 -1.0205
   56MOL   C11642026   5.587   5.219   4.542  0.0876 -0.1710  0.2058
   56MOL   O11742027   5.498   5.254   4.465 -0.4106  0.1418  0.0497
   56MOL   C11842028   5.703   5.134   4.492 -0.0389  0.2428  1.0547
   56MOL   C11942029   5.794   5.208   4.380  0.2474 -0.6269  0.0009
   56MOL   C12042030   5.888   5.115   4.310 -0.2713  0.2748  0.4438
   56MOL   C12142031   6.003   5.187   4.237 -0.3972  0.0601  0.3881
   56MOL   C12242032   6.071   5.093   4.138 -0.5668 -0.3515 -0.1124
   56MOL   O12342033   6.027   5.081   4.028 -0.0022 -0.0984  0.7157
   56MOL   N12442034   6.186   5.034   4.179  0.0787 -0.3929 -0.2305
   56MOL   C12542035   6.244   4.923   4.100 -0.2082  0.6667 -0.6499
   56MOL   C12642036   6.310   4.961   3.968  0.2821 -0.2559  0.2418
   56MOL   C12742037   6.360   4.837   3.896  0.9871  0.4714  0.3242
   56MOL   C12842038   6.446   4.870   3.762  0.1954 -0.1293 -0.1384
   56MOL   C12942039   6.501   4.742   3.689 -0.4039  0.1393  0.3262
   56MOL   C13042040   6.568   4.765   3.553  0.6002 -0.2071 -0.5084
   56MOL   N13142041   6.673   4.866   3.553 -0.3189 -0.4338  0.5157
   56MOL   H13242042   5.769   5.107   4.574 -0.3058  0.2064  1.2607
   56MOL   H13342043   5.670   5.044   4.440 -1.3478 -0.1713  2.5524
   56MOL   H13442044   5.740   5.266   4.305  1.3792  0.3627 -0.0672
   56MOL   H13542045   5.853   5.283   4.433 -0.2846  0.9864 -1.6054
   56MOL   H13642046   5.829   5.054   4.242 -0.4074  0.5739  0.2939
   56MOL   H13742047   5.936   5.056   4.388  0.0972  0.5990  0.4618
   56MOL   H13842048   6.071   5.249   4.296  2.2360 -0.8959 -1.5317
   56MOL   H13942049   5.958   5.266   4.178 -0.3474 -0.3798 -0.2408
   56MOL   H14042050   6.218   5.069   4.269 -3.3406 -1.0902  1.3481
   56MOL   H14142051   6.322   4.867   4.152  0.5878  1.5822 -0.8537
   56MOL   H14242052   6.161   4.853   4.086 -0.4303  0.8636 -0.3434
   56MOL   H14342053   6.240   5.010   3.901 -0.7646 -0.1441  1.3818
   56MOL   H14442054   6.393   5.030   3.981  0.6324 -0.8639  1.3916
   56MOL   H14542055   6.272   4.775   3.880  1.8434 -0.2888 -1.6787
   56MOL   H14642056   6.424   4.767   3.950  0.1297 -1.6736 -1.3471
   56MOL   H14742057   6.377   4.930   3.704 -0.2791  0.3004  0.8501
   56MOL   H14842058   6.533   4.931   3.787  1.3262 -2.0484  0.7119
   56MOL   H14942059   6.567   4.698   3.763 -1.1247 -3.4409 -1.0613
   56MOL   H15042060   6.414   4.678   3.677 -1.0821  1.3600 -1.6016
   56MOL   H15142061   6.493   4.799   3.481 -2.1469 -1.5726  1.6264
   56MOL   H15242062   6.601   4.673   3.506  1.7307 -0.5780  0.9688
   56MOL   H15342063   6.696   4.916   3.638 -0.7918  0.9264 -0.1418
   56MOL   C15442064   6.748   4.888   3.444 -0.5761  0.2123  0.1807
   56MOL   O15542065   6.715   4.846   3.335  0.3248  0.1424  0.3913
   56MOL   C15642066   6.860   4.985   3.459 -0.5215 -0.2902 -0.7689
   56MOL   C15742067   6.981   4.923   3.530  0.2345 -0.0896  0.6380
   56MOL   C15842068   6.985   4.905   3.680 -0.6296 -0.0628  0.3906
   56MOL   C15942069   6.987   5.031   3.765  0.0336  0.3987  0.0117
   56MOL   C16042070   6.848   5.104   3.775  0.1591  0.9136  0.1969
   56MOL   O16142071   6.751   5.032   3.783 -0.1630  0.1689 -0.0721
   56MOL   N16242072   6.849   5.236   3.765  0.3069  0.0773  0.7517
   56MOL   C16342073   6.739   5.320   3.799  0.6016  0.3139  0.1288
   56MOL   C16442074   6.757   5.389   3.942  0.1327 -0.0392  0.1470
   56MOL   C16542075   6.899   5.452   3.958 -0.1556  0.2832 -0.0785
   56MOL   C16642076   6.920   5.540   4.081 -0.5100  0.5337 -0.7050
   56MOL   C16742077   6.862   5.689   4.060  0.2654  0.7074 -0.9266
   56MOL   C16842078   6.867   5.769   4.192  0.7305 -0.1519 -0.0225
   56MOL   N16942079   6.832   5.903   4.149 -0.3913 -0.2792  0.0471
   56MOL   H17042080   6.891   5.011   3.358  0.5891  2.2011  0.1864
   56MOL   H17142081   6.834   5.086   3.490  2.2932 -0.5622  2.8333
   56MOL   H17242082   7.002   4.832   3.474 -0.6722  1.2022 -1.9175
   56MOL   H17342083   7.062   4.989   3.497 -0.2589  0.0194 -0.3807
   56MOL   H17442084   7.071   4.843   3.705 -0.1333  0.1735 -0.6970
   56MOL   H17542085   6.900   4.841   3.705 -0.2088 -0.0017  2.0705
   56MOL   H17642086   7.062   5.105   3.737 -1.4667  0.5947 -3.7561
   56MOL   H17742087   7.011   4.998   3.866  0.8490 -1.0877 -0.6431
   56MOL   H17842088   6.937   5.284   3.754 -1.2434  2.8515 -0.0375
   56MOL   H17942089   6.730   5.396   3.722 -0.0291  2.3772  2.1783
   56MOL   H18042090   6.648   5.259   3.795  1.5045 -0.9686 -0.9058
   56MOL   H18142091   6.684   5.469   3.936 -0.1930 -0.2645  1.1469
   56MOL   H18242092   6.727   5.327   4.026  0.8117  0.8441  1.0563
   56MOL   H18342093   6.931   5.510   3.872  0.8589  0.4194  0.3805
   56MOL   H18442094   6.961   5.363   3.948 -0.4388  0.1219 -0.3810
   56MOL   H18542095   6.875   5.492   4.167 -0.5723  0.6762 -0.6567
   56MOL   H18642096   7.027   5.549   4.099 -0.3950  0.6619 -1.4183
   56MOL   H18742097   6.922   5.738   3.984  2.4678 -2.6396 -1.4209
   56MOL   H18842098   6.757   5.687   4.031 -0.1369 -1.1680  0.5260
   56MOL   H18942099   6.963   5.763   4.244  0.4203  1.7141  0.8218
   56MOL   H19042100   6.793   5.720   4.256  1.2777 -0.7734  0.1392
   56MOL   H19142101   6.739   5.923   4.115 -0.2941  0.5509  0.2500
   56MOL   C19242102   6.918   6.004   4.148 -0.6856  0.0921 -0.0661
   56MOL   O19342103   7.039   6.003   4.187  0.9130  0.5838  0.5647
   56MOL   C19442104   6.855   6.140   4.104 -0.0259 -0.2707  0.1458
   56MOL   C19542105   6.850   6.158   3.953 -0.1577  0.3339 -0.3068
   56MOL   C19642106   6.983   6.143   3.869  0.0900  0.8738 -0.4550
   56MOL   C19742107   6.968   6.175   3.720 -0.0844 -0.2369  0.1560
   56MOL   C19842108   6.879   6.075   3.636 -0.2390 -1.4128  0.2278
   56MOL   O19942109   6.868   5.954   3.673  0.5103  0.0462 -0.9776
   56MOL   N20042110   6.822   6.125   3.525  0.4153  0.4618  0.6470
   56MOL   C20142111   6.739   6.040   3.434 -0.2545  0.1804 -0.0507
   56MOL   C20242112   6.697   6.128   3.312  0.3150 -0.2859  0.2992
   56MOL   C20342113   6.632   6.047   3.200 -0.2749  0.3252  0.1891
   56MOL   C20442114   6.614   6.142   3.078  0.4351  0.7297 -0.1947
   56MOL   C20542115   6.550   6.046   2.971  0.3223 -0.2899 -0.2079
   56MOL   C20642116   6.483   6.128   2.854 -0.6068 -0.2493 -0.0667
   56MOL   N20742117   6.427   6.030   2.764  0.2522  0.3261 -0.8045
   56MOL   H20842118   6.753   6.149   4.141 -0.2249  1.3374 -0.7746
   56MOL   H20942119   6.915   6.228   4.129  0.8606 -0.2486 -1.9459
   56MOL   H21042120   6.769   6.094   3.919 -0.9802  1.1396  0.0935
   56MOL   H21142121   6.812   6.259   3.933  1.6127  1.1593  0.4111
   56MOL   H21242122   7.019   6.042   3.891 -1.0640  0.9236  1.8754
   56MOL   H21342123   7.056   6.207   3.919  0.2567  0.4554 -0.1601
   56MOL   H21442124   7.068   6.184   3.677 -0.1619  0.4186  0.1119
   56MOL   H21542125   6.935   6.278   3.712  0.3110  0.0461  1.9993
   56MOL   H21642126   6.829   6.224   3.506 -4.0499  0.6989 -0.3176
   56MOL   H21742127   6.801   5.954   3.409 -1.0704  0.1013 -1.8776
   56MOL   H21842128   6.649   5.998   3.478  0.0996 -1.1079 -0.5639
   56MOL   H21942129   6.635   6.214   3.338 -2.9287 -2.2206 -0.7605
   56MOL   H22042130   6.791   6.166   3.273  0.4850  0.2592  1.2047
   56MOL   H22142131   6.547   6.003   3.253 -1.9164  2.3264 -0.7244
   56MOL   H22242132   6.687   5.956   3.176 -0.0703 -0.0219  1.9297
   56MOL   H22342133   6.530   6.209   3.098 -1.4647 -1.2660 -1.2520
   56MOL   H22442134   6.696   6.208   3.052  0.0657  1.0634 -0.5171
   56MOL   H22542135   6.612   5.970   2.924  1.5625  1.3463 -1.2616
   56MOL   H22642136   6.469   5.989   3.018  0.4170 -0.6411 -0.4665
   56MOL   H22742137   6.555   6.192   2.803 -2.4412  1.0037 -1.1158
   56MOL   H22842138   6.398   6.179   2.899 -0.8804 -1.8816  1.3035
   56MOL   H22942139   6.447   5.931   2.770  0.6025  0.3503 -1.5336
   56MOL   C23042140   6.364   6.072   2.656  0.4347  0.2730  0.4864
   56MOL   O23142141   6.357   6.189   2.625  0.1846  0.5291  0.1533
   56MOL   C23242142   6.296   5.968   2.569 -0.1938  0.5749  0.4965
   56MOL   C23342143   6.161   5.947   2.633 -0.3191  0.0664 -0.9859
   56MOL   C23442144   6.162   5.887   2.773 -0.4001 -0.1416  0.1244
   56MOL   C23542145   6.033   5.818   2.815 -0.8172  0.1166 -0.5558
   56MOL   C23642146   5.928   5.926   2.852 -0.2402  0.1759  0.3798
   56MOL   O23742147   5.856   5.984   2.769  0.1459 -0.3713 -0.1621
   56MOL   N23842148   5.910   5.935   2.978  0.6502 -0.1123 -0.4982
   56MOL   C23942149   5.813   6.023   3.039 -0.1140 -0.0463  0.6493
   56MOL   C24042150   5.876   6.124   3.136 -0.4616 -0.0940  0.1952
   56MOL   C24142151   5.782   6.232   3.176  0.2347 -0.1007  0.1370
   56MOL   C24242152   5.825   6.311   3.305 -0.4339  0.2356  0.1340
   56MOL   C24342153   5.743   6.440   3.315  0.3950  0.2562  0.5609
   56MOL   C24442154   5.760   6.518   3.447 -0.8673 -0.5612 -0.4376
   56MOL   N24542155   5.709   6.653   3.427 -0.2558  0.0897 -0.5765
   56MOL   H24642156   6.279   6.018   2.474 -0.0272  1.4926  0.9458
   56MOL   H24742157   6.362   5.884   2.547  1.6694  2.5894 -1.8843
   56MOL   H24842158   6.117   6.047   2.636 -0.8086 -0.2062  2.7575
   56MOL   H24942159   6.107   5.879   2.567  1.4090  0.2871 -2.6704
   56MOL   H25042160   6.185   5.961   2.849  2.3043 -0.7628 -0.0276
   56MOL   H25142161   6.233   5.804   2.778 -0.0421  0.1086 -0.6793
   56MOL   H25242162   6.067   5.760   2.901 -1.6777 -2.0229 -1.6215
   56MOL   H25342163   5.991   5.753   2.738  1.3263 -1.1690 -0.6823
   56MOL   H25442164   5.953   5.862   3.032 -0.7630 -1.4176 -1.0975
   56MOL   H25542165   5.741   6.074   2.975  0.6261  1.4294  0.9678
   56MOL   H25642166   5.759   5.948   3.097  2.2189 -2.7504 -0.5785
   56MOL   H25742167   5.900   6.070   3.228  1.7865  2.5334  1.2391
   56MOL   H25842168   5.972   6.162   3.101 -0.1420 -0.2471  0.8855
   56MOL   H25942169   5.679   6.197   3.169  0.5695 -0.9750 -0.4586
   56MOL   H26042170   5.782   6.304   3.094 -0.1702  0.9746  1.0621
   56MOL   H26142171   5.799   6.250   3.391  0.2559  0.1985  0.3176
   56MOL   H26242172   5.933   6.319   3.313 -0.5527  1.9055  0.2914
   56MOL   H26342173   5.784   6.503   3.236  0.9975  0.8117  1.3131
   56MOL   H26442174   5.637   6.422   3.298  0.5439 -1.8892  1.8237
   56MOL   H26542175   5.866   6.524   3.471 -0.8565  0.6938 -0.7244
   56MOL   H26642176   5.693   6.477   3.522  1.0980 -2.0183  0.5482
   56MOL   H26742177   5.612   6.667   3.452 -0.2421  1.9557 -1.5053
   56MOL   C26842178   5.786   6.760   3.404 -0.1922 -0.2062 -0.1228
   56MOL   O26942179   5.905   6.743   3.378 -0.0775  0.2860  0.2528
   56MOL   C27042180   5.713   6.895   3.391  0.2840  0.0905 -0.2078
   56MOL   C27142181   5.719   6.943   3.248 -0.1110 -0.2623 -0.3032
   56MOL   C27242182   5.681   7.093   3.223  0.0319 -0.1993  0.2973
   56MOL   C27342183   5.772   7.198   3.290 -0.2438  0.8539 -0.0670
   56MOL   C27442184   5.690   7.315   3.350 -0.5112 -0.3312 -0.2914
   56MOL   O27542185   5.680   7.422   3.283 -0.0323  0.0217 -0.0328
   56MOL   N27642186   5.650   7.300   3.476 -0.0311 -0.1509  0.0498
   56MOL   C27742187   5.576   7.393   3.568 -0.0255  0.4722  1.0929
   56MOL   C27842188   5.427   7.396   3.508 -0.8149  0.2742  0.0917
   56MOL   C27942189   5.343   7.507   3.567 -0.3596 -0.1938  0.7003
   56MOL   C28042190   5.196   7.495   3.529 -0.4666 -0.0822 -0.3968
   56MOL   C28142191   5.108   7.544   3.646 -0.1774  0.1968 -0.7744
   56MOL   C28242192   4.961   7.551   3.618 -0.2975  0.3511  0.3706
   56MOL   N28342193   4.916   7.413   3.577 -0.3601  0.5802  0.0970
   56MOL   H28442194   5.609   6.878   3.420  0.0634  0.4046 -0.7947
   56MOL   H28542195   5.756   6.964   3.463 -0.3805 -1.1958  1.4550
   56MOL   H28642196   5.824   6.936   3.219 -0.4724 -1.5815 -1.3949
   56MOL   H28742197   5.666   6.871   3.186 -2.3231 -0.4184  1.7061
   56MOL   H28842198   5.582   7.104   3.266  0.9602  1.5104  2.1221
   56MOL   H28942199   5.685   7.109   3.116 -1.6472  0.8616  0.3727
   56MOL   H29042200   5.850   7.223   3.218  1.2855  1.2302  1.6853
   56MOL   H29142201   5.823   7.143   3.370 -0.7082  0.0297 -0.3339
   56MOL   H29242202   5.682   7.213   3.516 -1.1383  0.8087  3.2017
   56MOL   H29342203   5.582   7.366   3.673 -0.0870 -0.5307  0.8378
   56MOL   H29442204   5.621   7.493   3.569 -2.1874  1.5113 -1.1950
   56MOL   H29542205   5.427   7.400   3.399  2.7634 -1.4075 -0.0748
   56MOL   H29642206   5.389   7.301   3.543  1.2450 -1.0968 -1.2115
   56MOL   H29742207   5.381   7.596   3.516  0.4102 -0.6595  0.4464
   56MOL   H29842208   5.353   7.505   3.675  0.2215 -0.1094  0.6485
   56MOL   H29942209   5.185   7.546   3.434 -3.3663  1.4332  0.6697
   56MOL   H30042210   5.176   7.388   3.518  0.4482 -0.1900 -1.0937
   56MOL   H30142211   5.120   7.477   3.732  0.1060  0.7287 -0.3953
   56MOL   H30242212   5.140   7.641   3.684 -2.2752  0.5846  0.0848
   56MOL   H30342213   4.920   7.622   3.546 -0.4758 -0.4557 -0.3287
   56MOL   H30442214   4.913   7.584   3.709  2.3469  3.1920  0.8333
   56MOL   H30542215   4.952   7.394   3.484  2.5247  0.5880  1.1800
   56MOL   C30642216   4.831   7.327   3.639  0.1877 -0.0490  0.5148
   56MOL   O30742217   4.793   7.355   3.752  0.5831 -0.4318 -0.3408
   56MOL   C30842218   4.783   7.199   3.566  0.1852 -0.0366 -0.9184
   56MOL   C30942219   4.889   7.090   3.570 -0.3570  0.1960 -0.2582
   56MOL   C31042220   4.870   6.974   3.670 -0.0975  0.3994  0.2707
   56MOL   C31142221   4.944   6.845   3.637  0.1602  0.6297 -0.2795
   56MOL   C31242222   4.932   6.741   3.748 -0.3521 -0.1056  0.7159
   56MOL   O31342223   5.016   6.741   3.832  0.3976  0.6851  0.5332
   56MOL   N31442224   4.831   6.659   3.744  0.2572 -0.6835 -0.3187
   56MOL   C31542225   4.797   6.571   3.850 -0.2579  0.1251 -0.5942
   56MOL   C31642226   4.810   6.425   3.808 -0.0531 -0.0531  0.7255
   56MOL   C31742227   4.960   6.393   3.808  0.6881  0.4341 -0.2119
   56MOL   C31842228   4.990   6.249   3.775  0.3256 -0.6032  0.5686
   56MOL   C31942229   4.955   6.194   3.632 -0.2581 -0.2699 -0.2713
   56MOL   C32042230   5.000   6.053   3.604 -0.6004  0.8445  0.4020
   56MOL   N32142231   4.933   5.955   3.693  0.8578 -0.4444  0.4254
   56MOL   H32242232   4.685   7.165   3.599  1.8302  0.4705  5.1176
   56MOL   H32342233   4.771   7.229   3.462 -1.1660 -1.1825 -1.1001
   56MOL   H32442234   4.900   7.050   3.469  1.0281 -1.3951  0.5108
   56MOL   H32542235   4.986   7.138   3.582 -1.1016  1.0342  3.0199
   56MOL   H32642236   4.762   6.961   3.669  0.1379 -1.6186 -0.2780
   56MOL   H32742237   4.901   6.998   3.772  0.0106 -0.1028  0.3572
   56MOL   H32842238   5.046   6.884   3.636  0.3055  0.2241 -1.6136
   56MOL   H32942239   4.905   6.799   3.546  0.5874 -2.0067  0.8292
   56MOL   H33042240   4.774   6.659   3.660  1.6603  1.2220 -1.3194
   56MOL   H33142241   4.854   6.590   3.942 -0.9982  2.2197 -0.5366
   56MOL   H33242242   4.692   6.589   3.871  0.0843  1.8267 -0.2063
   56MOL   H33342243   4.761   6.363   3.884 -1.1980  0.9589  0.8186
   56MOL   H33442244   4.758   6.416   3.713 -0.1068 -0.4205  0.7858
   56MOL   H33542245   5.005   6.419   3.904  1.3322  2.1890 -0.9687
   56MOL   H33642246   5.000   6.459   3.731 -0.0136  2.0821  0.8117
   56MOL   H33742247   5.096   6.234   3.796  0.7000  0.4750 -0.4783
   56MOL   H33842248   4.935   6.182   3.842 -1.1878 -1.6727 -1.6826
   56MOL   H33942249   4.846   6.192   3.630 -0.2787  0.0158  0.2715
   56MOL   H34042250   4.986   6.265   3.555  1.5081  2.2265  2.6018
   56MOL   H34142251   5.104   6.049   3.634 -0.6380  0.9558  0.5515
   56MOL   H34242252   4.993   6.026   3.499 -0.8061 -0.2994  0.6988
   56MOL   H34342253   4.959   5.946   3.790  0.0862 -0.1053  0.6625
   56MOL   C34442254   4.833   5.862   3.659 -0.2252 -0.3440  0.6463
   56MOL   O34542255   4.798   5.858   3.539  0.2751  0.1142 -0.1411
   56MOL   C34642256   4.770   5.757   3.758  0.1255 -0.4285  0.0300
   56MOL   C34742257   4.778   5.820   3.904 -0.4997 -0.0468 -0.0287
   56MOL   C34842258   4.903   5.778   3.968 -0.0092  0.4054  0.7551
   56MOL   C34942259   4.921   5.841   4.114 -0.1329 -0.6394 -0.6292
   56MOL   C35042260   4.992   5.976   4.109 -0.7834 -0.3986  0.2659
   56MOL   O35142261   5.101   5.989   4.051  0.0278  0.0358  0.0330
   56MOL   N35242262   4.920   6.073   4.167  0.2878 -0.0510  0.1334
   56MOL   C35342263   4.952   6.214   4.177  0.5566 -0.2950  0.8132
   56MOL   C35442264   4.830   6.307   4.203  0.1300  0.0675 -0.3797
   56MOL   C35542265   4.850   6.459   4.203 -0.3972  0.1647  0.3236
   56MOL   C35642266   4.721   6.536   4.216  0.2555  0.7028  0.0117
   56MOL   C35742267   4.749   6.678   4.267  0.7482 -1.2291  0.6314
   56MOL   C35842268   4.624   6.741   4.314 -0.2381 -0.1588  0.2892
   56MOL   N35942269   4.635   6.878   4.364  0.3363 -0.8621 -0.0992
   56MOL   H36042270   4.666   5.744   3.728 -0.0309  0.7478  0.0206
   56MOL   H36142271   4.835   5.671   3.742  0.1786 -0.3209 -0.3397
   56MOL   H36242272   4.755   5.925   3.916  0.0696  0.0829 -0.0631
   56MOL   H36342273   4.701   5.776   3.968  0.9671 -0.9510  1.1509
   56MOL   H36442274   4.987   5.800   3.901 -0.2191 -0.3022  0.2508
   56MOL   H36542275   4.895   5.671   3.984  1.8028 -0.0240 -0.9171
   56MOL   H36642276   4.985   5.780   4.178 -0.9100 -0.3906  0.4080
   56MOL   H36742277   4.829   5.842   4.172 -0.0560  1.2697 -0.5110
   56MOL   H36842278   4.833   6.037   4.204  0.3394  0.0237  0.3265
   56MOL   H36942279   5.022   6.213   4.260  0.7558 -1.6743  0.6427
   56MOL   H37042280   5.013   6.241   4.091 -3.4307  3.1529 -1.0864
   56MOL   H37142281   4.747   6.288   4.135 -0.1746  1.0071 -0.2728
   56MOL   H37242282   4.790   6.271   4.298  0.4586  0.0953 -0.2305
   56MOL   H37342283   4.902   6.488   4.111 -2.5325  1.1773 -0.6005
   56MOL   H37442284   4.910   6.496   4.286  0.0478  2.3459 -0.9214
   56MOL   H37542285   4.670   6.551   4.121 -0.7064 -1.6409  0.1283
   56MOL   H37642286   4.645   6.487   4.276 -1.1312  2.4693 -0.2542
   56MOL   H37742287   4.828   6.693   4.340  1.4723  1.6140 -0.6893
   56MOL   H37842288   4.771   6.731   4.174 -0.4916  0.3518  1.2178
   56MOL   H37942289   4.584   6.680   4.395 -0.9171  0.0356  0.1016
   56MOL   H38042290   4.548   6.747   4.237  1.5003  0.1491 -1.4371
   56MOL   H38142291   4.721   6.928   4.348  0.7687 -1.4143  0.4912
   56MOL   C38242292   4.534   6.941   4.424  0.1181  0.5935  0.8404
   56MOL   O38342293   4.426   6.887   4.439 -0.0823 -0.2950  0.2337
   56MOL   C38442294   4.553   7.084   4.478 -0.3325 -0.1654 -0.9529
   56MOL   C38542295   4.560   7.101   4.628 -0.7043  0.3532 -0.6073
   56MOL   C38642296   4.423   7.111   4.702  0.4453 -0.1785 -0.2246
   56MOL   C38742297   4.450   7.164   4.847 -0.0632 -0.0947 -0.2420
   56MOL   C38842298   4.462   7.313   4.864 -0.2083  0.9271 -0.3403
   56MOL   O38942299   4.484   7.378   4.763 -0.2059  0.2160 -0.0571
   56MOL   N39042300   4.459   7.362   4.988 -0.7889 -0.5179 -0.4692
   56MOL   C39142301   4.488   7.496   5.023  0.2644  0.1617 -0.0389
   56MOL   C39242302   4.377   7.594   4.996  0.3248 -0.8294  0.3939
   56MOL   C39342303   4.414   0.030   5.015  0.0383 -0.2552  0.1907
   56MOL   C39442304   4.442   0.072   5.168  0.5272  0.0383  0.6074
   56MOL   C39542305   4.322   0.051   5.261 -0.2289  0.0161  0.6251
   56MOL   C39642306   4.349   0.132   5.400  0.3581  0.0903 -0.1359
   56MOL   N39742307   4.316   0.276   5.390  0.4008  0.0043 -0.3561
   56MOL   H39842308   4.642   7.125   4.430  1.2881 -2.2219  0.1845
   56MOL   H39942309   4.475   7.147   4.436 -1.7816  0.2410  2.2490
   56MOL   H40042310   4.589   7.008   4.677  1.0537  0.7807 -0.8025
   56MOL   H40142311   4.628   7.183   4.650 -0.7823  0.0629  0.7166
   56MOL   H40242312   4.389   7.007   4.698 -0.4159  0.0813  0.1913
   56MOL   H40342313   4.340   7.160   4.653  0.8297  0.3846 -0.3105
   56MOL   H40442314   4.541   7.127   4.893 -0.6159 -0.3027  0.6837
   56MOL   H40542315   4.372   7.121   4.910 -0.6609 -0.9076 -1.5130
   56MOL   H40642316   4.448   7.302   5.068 -1.2897  1.5919  1.0923
   56MOL   H40742317   4.505   7.506   5.130 -0.8534 -0.7492  0.2391
   56MOL   H40842318   4.581   7.519   4.973 -0.9391  1.1574 -1.8910
   56MOL   H40942319   4.346   7.580   4.893 -1.1724  0.2961  0.6788
   56MOL   H41042320   4.293   7.577   5.064  1.3867 -0.8362  1.7362
   56MOL   H41142321   4.328   0.080   4.973 -0.3303  1.2081  2.5720
   56MOL   H41242322   4.503   0.047   4.954  1.2555 -0.1950  1.9394
   56MOL   H41342323   4.519   0.007   5.210 -0.1352 -0.9587  0.3116
   56MOL   H41442324   4.480   0.173   5.186 -1.4621  0.9305 -0.0686
   56MOL   H41542325   4.227   0.075   5.214  0.2844  2.3219  0.7163
   56MOL   H41642326   4.328   7.651   5.272 -1.6013 -0.0590  0.6435
   56MOL   H41742327   4.447   0.120   5.444  0.5357  1.2141 -0.2007
   56MOL   H41842328   4.269   0.104   5.469  2.0538  1.2734  2.3759
   56MOL   H41942329   4.308   0.307   5.294 -0.0312  1.2135  0.0643
   56MOL   C42042330   4.293   0.364   5.490  0.0604  0.3775  0.5268
   56MOL   O42142331   4.315   0.336   5.609 -0.4164  0.0699 -0.4944
   56MOL   C42242332   4.242   0.498   5.446  0.0840 -0.5842 -0.7879
   56MOL   C42342333   4.128   0.556   5.531  0.7189  0.3997  0.4455
   56MOL   C42442334   4.010   0.456   5.554  0.1853  0.5958  0.0848
   56MOL   C42542335   3.888   0.523   5.619 -0.0988  0.0354 -0.5060
   56MOL   C42642336   3.782   0.420   5.656  0.4677  0.5529 -0.6316
   56MOL   O42742337   3.705   0.382   5.567 -0.4813 -0.8171  0.5684
   56MOL   N42842338   3.774   0.376   5.784 -0.0125  0.1116  0.1882
   56MOL   C42942339   3.674   0.274   5.824  0.1460  0.5622 -0.1115
   56MOL   C43042340   3.722   0.136   5.787 -0.0835  0.0547  0.1049
   56MOL   C43142341   3.627   0.021   5.825 -1.0785  0.6951 -0.3703
   56MOL   C43242342   3.648   7.596   5.751 -0.6282 -0.0021 -0.2031
   56MOL   C43342343   3.537   7.496   5.773 -0.0890  0.2634  0.1315
   56MOL   C43442344   3.493   7.470   5.918  0.0437 -0.5806 -0.7890
   56MOL   N43542345   3.408   7.352   5.925 -0.2632 -0.1210 -0.0719
   56MOL   H43642346   4.325   0.567   5.436  0.8704 -1.4280 -0.2439
   56MOL   H43742347   4.197   0.489   5.347  2.1741 -2.6796 -1.6118
   56MOL   H43842348   4.158   0.597   5.628  0.6835 -0.8271  0.9868
   56MOL   H43942349   4.084   0.647   5.491 -2.6921  0.7477  4.5721
   56MOL   H44042350   4.044   0.379   5.623 -0.6901  1.5385  1.5820
   56MOL   H44142351   3.997   0.419   5.452 -0.3450  0.3484  0.2426
   56MOL   H44242352   3.846   0.579   5.536  0.9773  1.6244 -0.0170
   56MOL   H44342353   3.917   0.585   5.705  1.0564  0.7600 -1.3979
   56MOL   H44442354   3.838   0.415   5.852  2.2726 -0.6572 -1.4413
   56MOL   H44542355   3.663   0.292   5.931  0.0402  0.1926 -0.0624
   56MOL   H44642356   3.578   0.289   5.773  1.4350  0.1693 -2.7755
   56MOL   H44742357   3.734   0.136   5.678  1.9229 -0.8736  0.3032
   56MOL   H44842358   3.822   0.116   5.826 -0.3013  0.2567  0.7622
   56MOL   H44942359   3.526   0.061   5.814 -1.5740 -0.2791  0.5794
   56MOL   H45042360   3.627   0.001   5.932 -1.4785 -0.1553 -0.5277
   56MOL   H45142361   3.653   7.611   5.643 -0.2953 -0.7785 -0.2984
   56MOL   H45242362   3.744   7.554   5.781 -1.1852 -2.2854 -1.5198
   56MOL   H45342363   3.454   7.543   5.720 -0.2035 -0.0288  0.0476
   56MOL   H45442364   3.562   7.402   5.723  1.3684  1.0462 -0.6429
   56MOL   H45542365   3.433   7.556   5.950  2.9770  1.0011  0.6883
   56MOL   H45642366   3.575   7.463   5.990 -1.7479  2.0365  1.6275
   56MOL   H45742367   3.341   7.347   5.850 -0.8424  2.6274  0.1960
   56MOL   C45842368   3.436   7.234   5.983 -0.6147  0.0539  0.7355
   56MOL   O45942369   3.538   7.219   6.042  0.4803 -0.7728 -0.2729
   56MOL   C46042370   3.327   7.128   5.991  0.5602  0.1580 -0.0849
   56MOL   C46142371   3.367   6.989   6.058  0.4938  0.2093  0.5305
   56MOL   C46242372   3.250   6.888   6.055 -0.2529  0.3635 -0.6787
   56MOL   C46342373   3.162   6.906   6.184  0.7871  0.4368 -0.1660
   56MOL   C46442374   3.064   7.030   6.192  0.7528  0.2497 -0.0463
   56MOL   O46542375   2.986   7.047   6.100 -0.0598 -0.3056 -0.3718
   56MOL   N46642376   3.071   7.121   6.293  0.2917 -0.2372 -0.0644
   56MOL   C46742377   2.979   7.234   6.310  0.6187 -0.4967 -0.1532
   56MOL   C46842378   3.040   7.353   6.384 -0.7467  0.1135 -0.2184
   56MOL   C46942379   3.176   7.401   6.317  0.0464  0.6928  0.4240
   56MOL   C47042380   3.312   7.348   6.377  0.0263  0.6429 -0.0520
   56MOL   C47142381   3.425   7.442   6.342  0.0315 -0.0280 -0.1103
   56MOL   C47242382   3.562   7.388   6.373  0.7178 -0.6951 -0.4183
   56MOL   N47342383   3.570   7.358   6.512 -0.1453  0.2965  0.5512
   56MOL   H47442384   3.250   7.171   6.056 -1.0355 -0.4598 -1.5285
   56MOL   H47542385   3.280   7.123   5.893 -1.1406 -1.0482  0.7665
   56MOL   H47642386   3.433   6.941   5.986 -0.7811 -0.1196 -0.4330
   56MOL   H47742387   3.413   6.996   6.157 -1.6165 -0.5346  1.5925
   56MOL   H47842388   3.292   6.788   6.061  0.9054  0.8721 -0.2453
   56MOL   H47942389   3.197   6.893   5.960  1.8976 -0.7449 -1.9612
   56MOL   H48042390   3.227   6.908   6.271  1.3157 -1.5218 -0.4863
   56MOL   H48142391   3.098   6.818   6.194  2.1034 -0.2054  3.1624
   56MOL   H48242392   3.158   7.123   6.344 -0.5819 -0.5172  1.4461
   56MOL   H48342393   2.940   7.274   6.216 -0.8397  0.6278  0.9228
   56MOL   H48442394   2.887   7.200   6.357  0.4746  1.4552  1.0140
   56MOL   H48542395   2.977   7.436   6.351  1.8130  2.0957 -0.2632
   56MOL   H48642396   3.034   7.353   6.492 -3.1651  0.3128 -0.3168
   56MOL   H48742397   3.178   7.510   6.322  2.5378  0.6266  1.8228
   56MOL   H48842398   3.182   7.377   6.210  0.4374 -0.4253  0.6879
   56MOL   H48942399   3.301   7.339   6.485  1.0219 -0.3758 -0.0359
   56MOL   H49042400   3.332   7.251   6.332  1.6082  1.4363 -1.0950
   56MOL   H49142401   3.426   7.459   6.235 -0.1396 -2.2585 -0.4880
   56MOL   H49242402   3.409   7.539   6.390  3.7715 -1.0581  3.5538
   56MOL   H49342403   3.639   7.461   6.348 -0.0141  1.0865  2.3867
   56MOL   H49442404   3.586   7.304   6.307  3.3247 -0.0590 -0.3512
   56MOL   H49542405   3.495   7.383   6.575  0.7591  0.9204  1.4027
   56MOL   C49642406   3.681   7.316   6.567  0.3313 -0.5270 -1.5766
   56MOL   O49742407   3.776   7.270   6.503 -0.1173 -0.6294 -0.3845
   56MOL   C49842408   3.698   7.318   6.721  0.1806 -0.6407  0.5295
   56MOL   C49942409   3.765   7.191   6.771  0.2829  0.1842  0.2018
   56MOL   C50042410   3.766   7.190   6.920  0.4348 -0.2883 -0.3422
   56MOL   C50142411   3.842   7.312   6.978 -0.1544 -1.1359 -0.4595
   56MOL   C50242412   3.862   7.312   7.130 -0.0986 -0.4260  0.3858
   56MOL   O50342413   3.767   7.290   7.206 -0.2598  0.4954 -0.2970
   56MOL   N50442414   3.984   7.336   7.184 -0.4202  0.2306  0.5040
   56MOL   C50542415   4.089   7.424   7.125  0.0578  0.5303  0.4862
   56MOL   C50642416   4.159   7.526   7.218  0.4114  0.4807 -0.0039
   56MOL   C50742417   4.059   7.607   7.302  0.1038  0.0191 -0.1590
   56MOL   C50842418   4.121   7.668   7.422  0.0708 -0.4433  0.0003
   56MOL   C50942419   4.175   0.102   7.391  0.4126  0.6683 -0.2968
   56MOL   C51042420   4.224   0.193   7.509 -0.0645  1.0041 -0.2798
   56MOL   N51142421   4.296   0.305   7.453 -0.0441  0.8304  0.7014
   56MOL   H51242422   3.751   7.407   6.755 -1.8307  0.5792  0.5434
   56MOL   H51342423   3.602   7.330   6.771  0.7419 -0.2273  1.5343
   56MOL   H51442424   3.724   7.095   6.741  1.0608  0.0033 -0.2765
   56MOL   H51542425   3.866   7.190   6.732  0.9089 -0.0653  1.7879
   56MOL   H51642426   3.807   7.100   6.965  0.9280  0.6691  1.1580
   56MOL   H51742427   3.665   7.184   6.962 -0.1761  0.7028 -1.6252
   56MOL   H51842428   3.791   7.406   6.961  1.5184 -0.0195  0.5786
   56MOL   H51942429   3.935   7.307   6.922  0.2742 -0.5714  0.2038
   56MOL   H52042430   3.983   7.333   7.285  0.1192 -0.8740  0.4920
   56MOL   H52142431   4.173   7.363   7.092  0.0899  0.5494  0.5330
   56MOL   H52242432   4.032   7.470   7.045  0.7650  0.7759  0.1284
   56MOL   H52342433   4.227   7.462   7.275  0.1097  0.7846  0.7033
   56MOL   H52442434   4.226   7.589   7.159  0.1799  0.3190 -0.4420
   56MOL   H52542435   3.984   7.533   7.329 -0.2238  0.6259  0.5856
   56MOL   H52642436   4.013   7.675   7.230 -2.0250 -1.9036 -0.6621
   56MOL   H52742437   4.040   7.677   7.495  1.6355  2.2112  1.5193
   56MOL   H52842438   4.185   7.598   7.475 -1.1128 -0.8785  0.8699
   56MOL   H52942439   4.250   0.096   7.312 -0.7650  2.0241 -1.5368
   56MOL   H53042440   4.099   0.163   7.341  1.1230  2.4663  0.7682
   56MOL   H53142441   4.284   0.140   7.583 -0.0260  1.2303 -0.1457
   56MOL   H53242442   4.137   0.224   7.567 -2.3048 -2.7279 -1.4758
   56MOL   H53342443   4.252   0.354   7.377  1.0300  0.2365 -0.3110
   56MOL   C53442444   4.385   0.379   7.516 -0.7441  0.0026  0.0394
   56MOL   O53542445   4.433   0.339   7.620 -0.0985  0.1221 -0.6512
   56MOL   C53642446   4.442   0.501   7.454  0.7322  0.1519  0.2260
   56MOL   C53742447   4.459   0.492   7.303  0.3658  0.1982  0.0037
   56MOL   C53842448   4.504   0.633   7.252  0.3954  0.4158  0.4055
   56MOL   C53942449   4.387   0.732   7.240 -0.7734 -0.3582  0.0264
   56MOL   C54042450   4.326   0.718   7.101 -0.9726  0.2294 -0.3458
   56MOL   O54142451   4.392   0.744   7.002 -0.1542  0.3965  0.2443
   56MOL   N54242452   4.198   0.690   7.090  0.5099 -0.7107 -0.4602
   56MOL   C54342453   4.124   0.675   6.962  0.1021 -0.1427 -0.2791
   56MOL   C54442454   3.996   0.756   6.961  0.1954 -0.0320  0.0350
   56MOL   C54542455   3.897   0.721   6.849  0.0018  0.3597 -0.4613
   56MOL   C54642456   3.951   0.767   6.718 -0.2305  0.1650  0.2181
   56MOL   C54742457   3.860   0.724   6.596 -0.0576  0.7261  0.8193
   56MOL   C54842458   3.888   0.791   6.457  0.4713  0.2023 -0.5944
   56MOL   N54942459   3.910   0.935   6.467  0.0149  0.5854 -0.7590
   56MOL   H55042460   4.363   0.573   7.473 -4.4603 -5.3302  0.7370
   56MOL   H55142461   4.538   0.519   7.502  1.3481  1.6785 -1.4979
   56MOL   H55242462   4.544   0.431   7.273  0.2634  0.1484 -0.1871
   56MOL   H55342463   4.364   0.473   7.253 -0.5360  0.5484  1.5601
   56MOL   H55442464   4.548   0.633   7.152  0.5738  1.1381  0.4851
   56MOL   H55542465   4.576   0.668   7.325  0.6745 -0.0434  0.3557
   56MOL   H55642466   4.429   0.832   7.231 -2.6235  0.3432 -1.1731
   56MOL   H55742467   4.306   0.727   7.313 -1.9508  0.4211 -1.1926
   56MOL   H55842468   4.156   0.639   7.167 -1.6415  0.7672 -0.5957
   56MOL   H55942469   4.192   0.705   6.882  1.5510 -2.4399  0.0362
   56MOL   H56042470   4.113   0.566   6.960  0.1006 -0.1848  1.3644
   56MOL   H56142471   3.945   0.735   7.055  0.9976 -1.8862  0.0703
   56MOL   H56242472   4.022   0.861   6.952 -0.1711  0.0259 -0.3640
   56MOL   H56342473   3.794   0.747   6.871  0.4038 -0.1041  2.0721
   56MOL   H56442474   3.901   0.614   6.825  1.0856  0.3368 -0.1870
   56MOL   H56542475   3.965   0.875   6.714  0.8337  0.0372  0.3008
   56MOL   H56642476   4.051   0.726   6.702  0.7994  1.3019  3.4184
   56MOL   H56742477   3.866   0.617   6.575  0.6615  0.5223  1.9718
   56MOL   H56842478   3.755   0.742   6.617 -0.2867  1.9190 -1.2890
   56MOL   H56942479   3.804   0.769   6.392 -0.1687 -1.2171  0.7121
   56MOL   H57042480   3.983   0.745   6.427 -0.9096 -1.2185 -2.9130
   56MOL   H57142481   3.934   0.976   6.557 -0.8599 -0.0606 -0.2204
   56MOL   C57242482   3.932   1.007   6.363 -0.0371  0.1456  0.3787
   56MOL   O57342483   3.925   0.963   6.247 -0.5621  0.0182  0.4610
   56MOL   C57442484   3.980   1.151   6.383 -0.1528 -0.2628 -0.6703
   56MOL   C57542485   4.076   1.193   6.275 -0.8491  0.0881 -0.2776
   56MOL   C57642486   4.182   1.286   6.323 -0.0650  0.0434  0.0139
   56MOL   C57742487   4.292   1.344   6.228  0.0261 -0.1719  0.4163
   56MOL   C57842488   4.389   1.254   6.152  0.9119  0.9619 -0.1405
   56MOL   O57942489   4.349   1.157   6.090  0.2184  0.4239 -0.3193
   56MOL   N58042490   4.519   1.283   6.155  0.1914 -0.0510  0.1766
   56MOL   C58142491   4.623   1.212   6.081  0.3589 -0.9642 -0.3232
   56MOL   C58242492   4.639   1.276   5.941  0.2316  0.2134  0.2288
   56MOL   C58342493   4.756   1.206   5.863 -0.2770 -0.4225  0.1130
   56MOL   C58442494   4.757   1.221   5.702  0.5210 -0.1444  0.2332
   56MOL   C58542495   4.768   1.365   5.646 -0.2352  0.1520  0.2198
   56MOL   C58642496   4.633   1.432   5.630  0.2810 -0.3381 -0.0263
   56MOL   N58742497   4.638   1.577   5.606 -0.2936 -0.1469 -0.3594
   56MOL   H58842498   3.897   1.220   6.395  0.4712  0.3656  0.0834
   56MOL   H58942499   4.027   1.164   6.480 -0.8480 -0.1276 -0.3457
   56MOL   H59042500   4.136   1.105   6.250  0.8654  0.9382  0.7666
   56MOL   H59142501   4.028   1.210   6.179  0.6950 -0.4437 -1.1430
   56MOL   H59242502   4.226   1.236   6.410 -1.4514 -0.2876  0.5495
   56MOL   H59342503   4.141   1.380   6.359 -1.5460 -0.2001 -0.9864
   56MOL   H59442504   4.360   1.394   6.296 -1.3233  1.6108  0.4924
   56MOL   H59542505   4.252   1.418   6.159 -1.6155 -1.4524 -0.0580
   56MOL   H59642506   4.550   1.363   6.208 -1.4343  0.4805  0.3385
   56MOL   H59742507   4.713   1.213   6.144  0.4739 -0.0455 -0.4830
   56MOL   H59842508   4.591   1.108   6.073 -1.8958 -0.3800  0.6324
   56MOL   H59942509   4.540   1.256   5.900  0.7724 -0.4592 -0.7772
   56MOL   H60042510   4.647   1.384   5.948 -2.7615  0.5356 -0.5313
   56MOL   H60142511   4.744   1.101   5.890  0.0991 -0.1131  1.4912
   56MOL   H60242512   4.851   1.237   5.907 -0.0438 -1.0244  0.0334
   56MOL   H60342513   4.839   1.162   5.663  1.5643  1.7940 -0.5780
   56MOL   H60442514   4.673   1.166   5.660  0.1489  1.3262 -1.0142
   56MOL   H60542515   4.831   1.430   5.708 -1.0231  0.2150  0.9630
   56MOL   H60642516   4.826   1.364   5.554  1.3639  0.9627  1.1880
   56MOL   H60742517   4.564   1.402   5.708 -0.2722  0.1840 -0.3127
   56MOL   H60842518   4.594   1.383   5.541 -1.5514 -1.6641  1.4865
   56MOL   H60942519   4.639   1.605   5.509 -1.8718  0.1417 -0.2975
   56MOL   C61042520   4.637   1.681   5.689 -0.1277 -0.0848  0.1201
   56MOL   O61142521   4.653   1.667   5.812  0.7363 -0.1357 -0.2172
   56MOL   C61242522   4.619   1.819   5.628 -0.1192 -0.2944 -0.1744
   56MOL   C61342523   4.476   1.865   5.627  0.0077  0.4632 -0.8266
   56MOL   C61442524   4.435   1.991   5.553 -0.7053 -0.6871 -0.2464
   56MOL   C61542525   4.295   2.055   5.570  0.1294  0.0752 -0.9071
   56MOL   C61642526   4.175   1.985   5.496 -0.1803  0.1920 -0.2157
   56MOL   O61742527   4.198   1.882   5.429  0.3835 -0.2957  0.4338
   56MOL   N61842528   4.054   2.037   5.516  0.3426  0.6058  0.2302
   56MOL   C61942529   3.928   1.965   5.499 -0.2337  0.0158 -0.0670
   56MOL   C62042530   3.819   2.015   5.594  0.3457  0.1878  0.3034
   56MOL   C62142531   3.829   1.961   5.739 -0.9453 -0.5245 -0.5320
   56MOL   C62242532   3.731   2.023   5.838 -0.0281  0.0477  0.0622
   56MOL   C62342533   3.768   2.024   5.984  0.1710 -0.2171  0.1987
   56MOL   C62442534   3.748   2.157   6.050  0.0635 -0.0095 -1.2518
   56MOL   N62542535   3.797   2.161   6.188  0.7050 -0.2943 -0.4224
   56MOL   H62642536   4.683   1.886   5.686 -1.0994 -0.4467  1.1058
   56MOL   H62742537   4.660   1.805   5.528  0.8813 -1.2189  0.3546
   56MOL   H62842538   4.412   1.782   5.599 -1.7006  1.2516  0.6059
   56MOL   H62942539   4.443   1.868   5.731  2.7706 -0.9314  0.1336
   56MOL   H63042540   4.463   1.976   5.449 -1.6323 -2.1458 -0.3001
   56MOL   H63142541   4.502   2.066   5.595 -0.1934 -1.6667  0.7381
   56MOL   H63242542   4.307   2.149   5.517 -1.8214  0.0823 -1.3683
   56MOL   H63342543   4.269   2.073   5.675  1.8516  2.8657 -0.9000
   56MOL   H63442544   4.045   2.122   5.570  1.2901  1.5486 -1.0569
   56MOL   H63542545   3.909   1.989   5.395  1.8971  0.6820 -0.3146
   56MOL   H63642546   3.927   1.856   5.502  2.9357 -0.0966 -1.5339
   56MOL   H63742547   3.797   2.121   5.592  0.3359  0.1585 -1.3563
   56MOL   H63842548   3.727   1.969   5.558  0.2189 -0.0940  0.9815
   56MOL   H63942549   3.934   1.952   5.768 -1.2555  0.5301  0.9583
   56MOL   H64042550   3.803   1.855   5.733 -1.1976 -0.4707 -0.4104
   56MOL   H64142551   3.711   2.128   5.815 -0.1819  0.4058  1.7835
   56MOL   H64242552   3.634   1.974   5.832  0.0851 -0.6010  2.9275
   56MOL   H64342553   3.706   1.952   6.039  1.9815  0.6124  3.4675
   56MOL   H64442554   3.867   1.979   5.991  0.9364  1.2690 -0.8610
   56MOL   H64542555   3.641   2.174   6.056  0.3271  0.9703  2.3278
   56MOL   H64642556   3.812   2.229   5.999  0.2714  2.4680  2.2871
   56MOL   H64742557   3.896   2.169   6.203  0.5516 -0.3782  0.6629
   56MOL   C64842558   3.737   2.133   6.300  0.1673  0.4660  0.5855
   56MOL   O64942559   3.615   2.109   6.302  0.1160 -0.4102 -0.1602
   56MOL   C65042560   3.827   2.132   6.425 -0.3574  0.5768  0.2693
   56MOL   C65142561   3.755   2.040   6.530 -0.3956 -0.3118 -0.2867
   56MOL   C65242562   3.839   2.057   6.662  0.0935 -0.7313 -0.2756
   56MOL   C65342563   3.769   2.024   6.790 -0.1066  0.1059 -0.5730
   56MOL   C65442564   3.650   2.110   6.828 -0.0229  1.2488  0.3627
   56MOL   O65542565   3.672   2.227   6.831 -0.1617 -0.4330  0.4335
   56MOL   N65642566   3.529   2.048   6.819  0.0707 -0.8068 -0.1141
   56MOL   C65742567   3.397   2.113   6.834 -0.0939  0.4571 -0.2391
   56MOL   C65842568   3.289   2.074   6.731 -1.1718  0.2104  0.0650
   56MOL   C65942569   3.159   2.136   6.753 -1.3189  0.6368  0.5757
   56MOL   C66042570   3.068   2.094   6.631  0.0331 -0.7224 -0.3252
   56MOL   C66142571   2.928   2.154   6.639  0.7810 -0.2450  0.4002
   56MOL   C66242572   2.919   2.306   6.587 -0.2793  0.7538 -0.5591
   56MOL   N66342573   2.792   2.349   6.539 -0.1395 -0.2524 -0.6856
   56MOL   H66442574   3.924   2.091   6.394  0.3405  1.2183  1.5549
   56MOL   H66542575   3.832   2.234   6.463 -0.8567  0.3484  0.9496
   56MOL   H66642576   3.661   2.089   6.555  0.4636  0.7154  0.9724
   56MOL   H66742577   3.748   1.935   6.503 -0.6217 -0.3301 -0.1594
   56MOL   H66842578   3.878   2.158   6.653  1.6397 -1.5015 -2.8888
   56MOL   H66942579   3.934   2.004   6.658 -0.3801 -1.5612 -0.5539
   56MOL   H67042580   3.834   2.027   6.878  1.7171  1.0084 -1.9014
   56MOL   H67142581   3.749   1.917   6.783  1.7792 -0.3591  0.6605
   56MOL   H67242582   3.540   1.950   6.800 -0.2394 -0.5707 -1.5419
   56MOL   H67342583   3.367   2.088   6.936 -1.5987 -2.1427 -1.2946
   56MOL   H67442584   3.416   2.220   6.824  1.2164  0.3579  0.9855
   56MOL   H67542585   3.331   2.087   6.631 -0.5533  2.0520  0.5406
   56MOL   H67642586   3.278   1.966   6.744  0.6315 -0.1463 -1.1246
   56MOL   H67742587   3.154   2.245   6.757 -0.4172  0.8468 -2.6459
   56MOL   H67842588   3.125   2.092   6.847  1.1764 -0.5404  0.9678
   56MOL   H67942589   3.111   2.119   6.534  0.7392  1.1566  0.4485
   56MOL   H68042590   3.074   1.986   6.645 -1.8878 -0.8517 -0.3590
   56MOL   H68142591   2.862   2.099   6.573 -2.3301  1.5038  1.9595
   56MOL   H68242592   2.894   2.134   6.741 -0.9725 -1.9906 -0.4839
   56MOL   H68342593   2.989   2.315   6.505 -0.8834  1.6201 -0.9826
   56MOL   H68442594   2.953   2.370   6.668  0.0984 -0.1731  0.0336
   56MOL   H68542595   2.763   2.288   6.464  0.2766 -2.0898  0.6302
   56MOL   C68642596   2.716   2.456   6.577  0.0703 -0.3707  0.9366
   56MOL   O68742597   2.742   2.510   6.684 -0.0251 -0.2919  0.0641
   56MOL   C68842598   2.610   2.504   6.474  0.3491  0.3881 -0.0499
   56MOL   C68942599   2.472   2.459   6.533  0.1155  0.4142  0.8350
   56MOL   C69042600   2.441   2.524   6.670 -0.4688  0.4500  0.3907
   56MOL   C69142601   2.446   2.679   6.674  0.4054 -0.5692 -0.0334
   56MOL   C69242602   2.339   2.749   6.598 -0.0075 -0.3191 -0.5077
   56MOL   O69342603   2.216   2.735   6.626 -0.0277  0.3567  0.1335
   56MOL   N69442604   2.375   2.840   6.500  0.0502  0.1764 -0.1320
   56MOL   C69542605   2.275   2.924   6.424 -0.5332  0.3690  0.4244
   56MOL   C69642606   2.331   2.954   6.285  0.1026 -0.2110  0.8499
   56MOL   C69742607   2.388   2.835   6.214 -0.2516  0.2498  0.7002
   56MOL   C69842608   2.288   2.718   6.201 -0.0526  0.5804  0.6747
   56MOL   C69942609   2.312   2.616   6.090  0.2095  0.1879  0.1595
   56MOL   C70042610   2.190   2.552   6.029  0.3476 -0.2847  0.1893
   56MOL   N70142611   2.093   2.486   6.121 -0.6552 -0.1475  0.2362
   56MOL   H70242612   2.606   2.613   6.466  0.8183  0.4587  0.6626
   56MOL   H70342613   2.620   2.456   6.377 -2.0738  1.3320 -0.8021
   56MOL   H70442614   2.390   2.476   6.463  1.8735 -0.5847 -1.5229
   56MOL   H70542615   2.458   2.351   6.543  0.3054  0.3446  0.3750
   56MOL   H70642616   2.510   2.486   6.746  0.6521 -0.3284 -0.9877
   56MOL   H70742617   2.344   2.491   6.706  0.0410 -1.0567  0.4134
   56MOL   H70842618   2.541   2.711   6.631 -0.3105  2.1067  0.3482
   56MOL   H70942619   2.447   2.719   6.775  2.6411  0.1148 -0.2989
   56MOL   H71042620   2.475   2.844   6.482  0.3575 -0.3324  1.3501
   56MOL   H71142621   2.182   2.868   6.421  0.5452 -1.4548  0.6512
   56MOL   H71242622   2.242   3.004   6.491 -0.9106  1.2555 -0.8056
   56MOL   H71342623   2.258   3.010   6.227  0.0049 -0.8630  0.3337
   56MOL   H71442624   2.412   3.026   6.297 -1.5881  1.3335  3.2785
   56MOL   H71542625   2.481   2.806   6.262 -0.1880 -1.7756 -0.5910
   56MOL   H71642626   2.406   2.870   6.112 -0.5640  2.3301  1.3408
   56MOL   H71742627   2.282   2.672   6.300 -0.8238  2.8426  1.7081
   56MOL   H71842628   2.190   2.761   6.180 -0.2907 -0.3695 -0.1665
   56MOL   H71942629   2.361   2.677   6.015 -0.8912  2.0284  0.8765
   56MOL   H72042630   2.369   2.534   6.133 -1.7797 -0.4072  1.7543
   56MOL   H72142631   2.216   2.490   5.943  1.0704 -0.1442  0.3057
   56MOL   H72242632   2.136   2.637   5.988  2.0537  0.3017 -0.9433
   56MOL   H72342633   2.009   2.540   6.139 -0.1069  0.4979  0.9343
   56MOL   C72442634   2.122   2.379   6.188  0.0196  0.8730 -0.3420
   56MOL   O72542635   2.231   2.330   6.203  0.2589 -0.1570  0.3395
   56MOL   C72642636   2.000   2.330   6.270 -0.5144 -0.4225 -0.0978
   56MOL   C72742637   2.035   2.308   6.421  0.6372 -0.3093  0.0317
   56MOL   C72842638   2.010   2.434   6.504  0.7269  0.2680 -0.1535
   56MOL   C72942639   2.000   2.413   6.653 -0.5159  0.8468  0.1485
   56MOL   C73042640   1.923   2.529   6.718  0.0025 -0.2719 -0.4988
   56MOL   O73142641   1.799   2.530   6.713  0.3613  0.0795  0.1707
   56MOL   N73242642   1.991   2.639   6.746  0.2067  0.3667 -0.5057
   56MOL   C73342643   1.946   2.746   6.827 -0.2515 -0.5259 -0.1916
   56MOL   C73442644   1.889   2.870   6.762 -0.3025  0.0521 -0.3757
   56MOL   C73542645   1.983   2.959   6.681  0.7231 -0.4058 -0.1544
   56MOL   C73642646   1.913   3.076   6.605  0.1584 -0.3538 -0.7246
   56MOL   C73742647   1.846   3.184   6.697  0.1415  0.0599  0.1688
   56MOL   C73842648   1.761   3.289   6.620  0.6372 -0.1605 -0.2774
   56MOL   N73942649   1.673   3.234   6.521 -0.0505  1.2447 -0.1261
   56MOL   H74042650   1.923   2.407   6.270  2.8257  3.0922  1.0803
   56MOL   H74142651   1.957   2.241   6.225  1.3893 -2.2412  1.5595
   56MOL   H74242652   1.970   2.226   6.452 -0.4076  0.4428 -0.1498
   56MOL   H74342653   2.131   2.262   6.444  0.1645 -1.1811  0.2683
   56MOL   H74442654   1.922   2.492   6.477  0.8455  0.8534  0.6919
   56MOL   H74542655   2.087   2.509   6.485 -0.2801  1.3877  0.1000
   56MOL   H74642656   2.104   2.411   6.684  0.1947 -1.1326 -2.2369
   56MOL   H74742657   1.956   2.318   6.682  0.4661  0.9354  2.0426
   56MOL   H74842658   2.085   2.637   6.711  0.5973 -2.4790  0.6021
   56MOL   H74942659   1.877   2.708   6.903  1.0357 -1.2008  0.6526
   56MOL   H75042660   2.040   2.786   6.866 -0.1250  0.5161 -1.5539
   56MOL   H75142661   1.807   2.849   6.694 -4.3279  0.6618  4.0721
   56MOL   H75242662   1.832   2.931   6.831  0.9043 -0.1929  0.8672
   56MOL   H75342663   2.032   2.897   6.606 -1.4960 -1.9716 -0.3636
   56MOL   H75442664   2.056   2.998   6.751 -1.5818 -1.1588  2.7856
   56MOL   H75542665   1.990   3.128   6.548  1.1389 -1.4210 -0.4084
   56MOL   H75642666   1.857   3.030   6.524  2.5667 -1.6738 -1.6845
   56MOL   H75742667   1.784   3.140   6.774  0.6597 -0.1084  0.4877
   56MOL   H75842668   1.924   3.230   6.757 -1.3018  1.5676  0.9415
   56MOL   H75942669   1.829   3.349   6.560  2.1374 -1.7768 -0.2345
   56MOL   H76042670   1.704   3.354   6.687 -0.5920  0.1128 -1.5736
   56MOL   H76142671   1.643   3.140   6.540 -1.7858  1.8641  0.3725
   56MOL   H76242672   1.583   3.280   6.518 -0.0480  1.1323 -2.4673
   57MOL     C142673   5.158   1.349   0.955  0.0252  0.1695  0.5810
   57MOL     O242674   5.171   1.235   0.914  0.5220 -0.1884  0.1104
   57MOL     C342675   5.067   1.440   0.879 -0.4113  0.3188  0.0719
   57MOL     C442676   5.084   1.442   0.727  0.6114  0.1030  0.1758
   57MOL     C542677   5.188   1.546   0.675  0.0212  0.2222 -0.1877
   57MOL     C642678   5.156   1.700   0.678 -0.9280 -0.3650  0.7166
   57MOL     C742679   5.045   1.746   0.578  0.4364  0.1653  0.1823
   57MOL     O842680   4.925   1.752   0.605  0.0081 -0.6363 -0.2234
   57MOL     N942681   5.092   1.757   0.448 -0.9501 -0.5820  0.1519
   57MOL    C1042682   5.004   1.766   0.335 -0.1406 -0.9487 -0.3131
   57MOL    C1142683   5.022   1.897   0.267  0.5167 -0.8337  0.2734
   57MOL    C1242684   4.995   2.027   0.342  0.2812  0.0573  0.0522
   57MOL    C1342685   5.030   2.154   0.267  0.6107  0.0958  0.0519
   57MOL    C1442686   5.185   2.179   0.247  0.4236  0.0880  0.5764
   57MOL    C1542687   5.263   2.215   0.377  0.0173 -0.0893 -0.3939
   57MOL    N1642688   5.404   2.251   0.342  0.4416  0.3358 -0.9675
   57MOL    H1742689   4.967   1.410   0.909  0.3333 -1.7248  0.5431
   57MOL    H1842690   5.074   1.541   0.920  1.8044  0.3784 -0.3904
   57MOL    H1942691   5.115   1.347   0.683  0.2307  0.9339 -1.9575
   57MOL    H2042692   4.992   1.470   0.676  0.4615 -2.4153 -1.0499
   57MOL    H2142693   5.204   1.527   0.569 -0.3424  0.2708 -0.2509
   57MOL    H2242694   5.291   1.536   0.711  0.1541  1.9563 -0.0077
   57MOL    H2342695   5.253   1.744   0.656  0.9446 -4.6465 -0.0445
   57MOL    H2442696   5.132   1.721   0.783 -0.8059 -2.8619  1.2882
   57MOL    H2542697   5.189   1.747   0.420 -1.4173 -1.1581 -1.3293
   57MOL    H2642698   5.032   1.685   0.267 -0.9402  1.3768 -3.5638
   57MOL    H2742699   4.902   1.741   0.362  0.1672 -0.3082  1.5199
   57MOL    H2842700   5.113   1.903   0.208  0.0313  2.3138 -0.2473
   57MOL    H2942701   4.943   1.911   0.194 -0.3517  1.6330  1.6376
   57MOL    H3042702   5.050   2.027   0.437 -2.1858  1.0312  1.5088
   57MOL    H3142703   4.892   2.044   0.372 -0.2380  2.5157 -2.8682
   57MOL    H3242704   4.978   2.147   0.172  0.4946 -1.4102  0.2227
   57MOL    H3342705   4.993   2.239   0.324  0.7498  1.0306 -1.2306
   57MOL    H3442706   5.233   2.099   0.190  0.2996  0.2328  0.2719
   57MOL    H3542707   5.186   2.269   0.186 -3.0823 -1.1533 -1.4208
   57MOL    H3642708   5.264   2.128   0.443 -1.5230  0.0533 -0.1498
   57MOL    H3742709   5.220   2.296   0.437 -1.2480 -0.0936 -1.2884
   57MOL    H3842710   5.458   2.185   0.288 -1.2067 -2.3631  0.6043
   57MOL    H3942711   5.203   1.376   1.051 -3.1237 -1.3214  2.5535
   57MOL    C4042712   5.463   2.365   0.371 -0.2442  0.3279 -0.4075
   57MOL    O4142713   5.415   2.453   0.438  0.7456  0.5676 -0.3014
   57MOL    C4242714   5.607   2.370   0.318  0.5977 -0.0965  0.4697
   57MOL    C4342715   5.641   2.503   0.255  0.1288  0.1891  0.5176
   57MOL    C4442716   5.769   2.498   0.179 -0.3175 -0.1574 -0.3643
   57MOL    C4542717   5.831   2.643   0.138 -0.7983  0.8712 -0.1207
   57MOL    C4642718   5.792   2.677   7.700  0.1277 -0.0896  0.2288
   57MOL    O4742719   5.846   2.615   7.607 -0.3467  0.6000  0.0600
   57MOL    N4842720   5.700   2.771   7.676 -0.4631  0.3191  0.0168
   57MOL    C4942721   5.646   2.806   7.545 -0.5301  0.1773 -0.4086
   57MOL    C5042722   5.748   2.835   7.437  0.4054  0.2665  0.7856
   57MOL    C5142723   5.671   2.860   7.312  0.1940 -0.5359  0.6359
   57MOL    C5242724   5.781   2.888   7.210  0.1481 -0.3351  0.0255
   57MOL    C5342725   5.723   2.930   7.070 -0.0626  0.5958 -0.2369
   57MOL    C5442726   5.841   2.982   6.980 -0.2830 -0.0634  0.9606
   57MOL    N5542727   5.803   2.989   6.842  0.1271 -0.0430  0.6141
   57MOL    H5642728   5.668   2.346   0.406 -0.1273  0.2231  1.0705
   57MOL    H5742729   5.625   2.289   0.249 -1.4684  0.8410 -1.2444
   57MOL    H5842730   5.565   2.545   0.189  0.3824 -0.2724 -0.0682
   57MOL    H5942731   5.643   2.577   0.335 -1.0690  0.6336  0.1400
   57MOL    H6042732   5.753   2.427   0.098 -2.2978  1.2478 -1.2374
   57MOL    H6142733   5.844   2.447   0.239 -0.3893  0.0505 -0.0971
   57MOL    H6242734   5.940   2.647   0.143 -0.6922 -2.1117  0.9399
   57MOL    H6342735   5.795   2.724   0.202  1.1827  0.6143  1.3664
   57MOL    H6442736   5.658   2.817   0.047  1.9173  0.9901  0.9203
   57MOL    H6542737   5.594   2.716   7.512 -1.7050  0.7548 -0.1631
   57MOL    H6642738   5.575   2.888   7.556  1.4530  2.2313 -2.2747
   57MOL    H6742739   5.814   2.913   7.476  1.4704  0.5267 -1.4970
   57MOL    H6842740   5.834   2.772   7.416  2.0402  2.6408  0.1314
   57MOL    H6942741   5.594   2.934   7.331  0.6486  0.5266 -1.5872
   57MOL    H7042742   5.614   2.771   7.285 -1.7249 -0.0434  2.8548
   57MOL    H7142743   5.850   2.965   7.245 -1.1675  0.1779  1.5228
   57MOL    H7242744   5.840   2.799   7.188 -1.0956 -1.2173  0.1923
   57MOL    H7342745   5.679   2.844   7.019  1.1481  0.4537 -1.0796
   57MOL    H7442746   5.656   3.015   7.079 -1.6401 -0.4934 -1.4660
   57MOL    H7542747   5.933   2.926   6.993  0.8434  1.7531  1.0379
   57MOL    H7642748   5.861   3.082   7.018  0.9147  0.5182 -1.1012
   57MOL    H7742749   5.726   3.054   6.830  0.0525  0.2960  2.7493
   57MOL    C7842750   5.853   2.922   6.736  0.1278 -0.7090 -0.1282
   57MOL    O7942751   5.945   2.842   6.749 -0.2631  0.1016 -0.6031
   57MOL    C8042752   5.801   2.960   6.598 -0.7648  0.1110 -0.2803
   57MOL    C8142753   5.875   2.904   6.470 -0.9370  0.0870 -0.2717
   57MOL    C8242754   5.895   2.748   6.459  0.1216  0.2335 -0.5569
   57MOL    C8342755   5.975   2.700   6.343  0.0456  0.1682 -0.1474
   57MOL    C8442756   5.985   2.548   6.335  0.3494 -0.7476  0.2616
   57MOL    O8542757   6.054   2.482   6.421 -0.0975 -0.4463  0.2013
   57MOL    N8642758   5.905   2.490   6.246  0.4378  0.1247 -0.1151
   57MOL    C8742759   5.887   2.345   6.238  0.8949 -0.3305 -0.4454
   57MOL    C8842760   5.819   2.318   6.104 -0.4500 -0.3390 -0.2995
   57MOL    C8942761   5.818   2.168   6.054 -0.5220  0.0992  0.1351
   57MOL    C9042762   5.801   2.153   5.903  0.0579 -0.0362 -0.4407
   57MOL    C9142763   5.676   2.218   5.855 -0.8075 -0.2085 -0.1883
   57MOL    C9242764   5.548   2.145   5.896  0.4881  0.0450 -0.1199
   57MOL    N9342765   5.493   2.168   6.036  0.2462 -0.3626  0.0407
   57MOL    H9442766   5.695   2.934   6.594 -0.8647  0.4485  0.1640
   57MOL    H9542767   5.807   3.069   6.588  2.1150  0.0377  0.3323
   57MOL    H9642768   5.829   2.939   6.378  0.7399  1.6782 -0.5438
   57MOL    H9742769   5.975   2.949   6.466  1.1538 -4.0807  1.8528
   57MOL    H9842770   5.801   2.694   6.469  0.6524 -0.3849  1.3426
   57MOL    H9942771   5.959   2.700   6.533 -0.0411  1.5875  0.4880
   57MOL   H10042772   6.069   2.748   6.316  0.6417 -1.2929 -0.7175
   57MOL   H10142773   5.922   2.738   6.255  2.1947 -1.2095 -2.0946
   57MOL   H10242774   5.844   2.550   6.192 -2.0866 -0.9774  1.4211
   57MOL   H10342775   5.988   2.305   6.229  0.6846 -1.5991  2.3034
   57MOL   H10442776   5.832   2.300   6.321  1.8494  1.0348  0.9625
   57MOL   H10542777   5.720   2.363   6.100  0.1183  0.9674  0.0369
   57MOL   H10642778   5.870   2.370   6.022 -1.7307 -0.2661 -1.0582
   57MOL   H10742779   5.734   2.121   6.106  2.2226 -1.8471  2.9277
   57MOL   H10842780   5.909   2.121   6.090  0.0860  0.4511 -0.9199
   57MOL   H10942781   5.887   2.195   5.851  1.1939 -1.2689  0.4146
   57MOL   H11042782   5.808   2.046   5.882 -0.9948 -0.6575  2.1855
   57MOL   H11142783   5.669   2.325   5.877 -0.0846 -0.4740  1.4230
   57MOL   H11242784   5.673   2.235   5.747  3.0416  1.1286 -0.1539
   57MOL   H11342785   5.562   2.039   5.875 -0.9874 -0.0781 -0.5786
   57MOL   H11442786   5.468   2.183   5.833 -0.1623  1.2823  1.4107
   57MOL   H11542787   5.522   2.107   6.110 -0.1065  0.5947  0.9850
   57MOL   C11642788   5.440   2.288   6.079 -0.5004  0.0292  0.0336
   57MOL   O11742789   5.407   2.379   6.005 -0.2439  0.1367 -0.0966
   57MOL   C11842790   5.430   2.291   6.236 -0.2976 -0.4787  0.0051
   57MOL   C11942791   5.492   2.425   6.288  0.7073 -0.2442  0.1280
   57MOL   C12042792   5.545   2.410   6.437  0.1686  0.3679  0.4160
   57MOL   C12142793   5.422   2.361   6.525 -0.4336 -0.6677 -0.1066
   57MOL   C12242794   5.409   2.214   6.548 -0.1318 -0.0341 -0.1634
   57MOL   O12342795   5.508   2.140   6.558  0.2259  0.0414  0.7047
   57MOL   N12442796   5.286   2.161   6.553 -0.3169 -0.4565 -0.2973
   57MOL   C12542797   5.267   2.018   6.551 -0.3133  0.3740  0.3149
   57MOL   C12642798   5.116   1.981   6.533 -0.3758  0.4031  0.7000
   57MOL   C12742799   5.058   2.009   6.394 -0.0488 -0.7028  0.5533
   57MOL   C12842800   4.909   1.973   6.366  0.2728 -0.0276  0.0883
   57MOL   C12942801   4.870   2.036   6.241  0.5434  0.1170  0.2523
   57MOL   C13042802   4.734   1.993   6.201  0.2828 -0.4242  0.3408
   57MOL   N13142803   4.725   2.028   6.057  0.1217 -0.2357  0.1329
   57MOL   H13242804   5.328   2.272   6.272 -0.3027  0.6807  0.6391
   57MOL   H13342805   5.480   2.202   6.275  0.0391 -1.0502 -1.7129
   57MOL   H13442806   5.575   2.450   6.222  1.0587  1.4308  1.1655
   57MOL   H13542807   5.428   2.512   6.275 -0.6498 -1.3413 -0.7397
   57MOL   H13642808   5.596   2.502   6.464  0.1589  0.6088 -0.3704
   57MOL   H13742809   5.621   2.332   6.430  2.6151  2.7107  0.0720
   57MOL   H13842810   5.325   2.392   6.488 -0.7351 -0.5450  0.7640
   57MOL   H13942811   5.424   2.388   6.631  1.4128 -1.4894  0.0895
   57MOL   H14042812   5.205   2.221   6.537  0.7632  0.5179 -2.3766
   57MOL   H14142813   5.323   1.977   6.467 -2.1622 -0.9226 -0.3261
   57MOL   H14242814   5.311   1.992   6.646  0.9594  0.7804 -0.1528
   57MOL   H14342815   5.100   1.875   6.550  1.0193 -0.3815 -2.5791
   57MOL   H14442816   5.053   2.038   6.602 -0.6704  1.1289 -0.1546
   57MOL   H14542817   5.132   1.987   6.317 -0.9142  0.4485 -0.6372
   57MOL   H14642818   5.075   2.116   6.385 -0.0635 -0.8635 -1.8949
   57MOL   H14742819   4.886   1.867   6.359  0.2492 -0.0231  0.0943
   57MOL   H14842820   4.851   2.006   6.452 -1.4613 -0.9094 -0.7344
   57MOL   H14942821   4.878   2.141   6.266 -1.0624  0.1906  0.5628
   57MOL   H15042822   4.947   2.015   6.167 -0.0224 -3.2389  0.5014
   57MOL   H15142823   4.661   2.043   6.264 -0.2121  0.6405 -1.0514
   57MOL   H15242824   4.715   1.886   6.200 -1.1550 -0.2035  1.9875
   57MOL   H15342825   4.807   2.017   5.998 -0.7976  1.6724 -1.5975
   57MOL   C15442826   4.619   2.094   6.010 -0.6946 -0.0330  0.6750
   57MOL   O15542827   4.530   2.132   6.087 -0.4482  0.4847 -0.3612
   57MOL   C15642828   4.620   2.123   5.859 -0.4499  0.1266  0.4637
   57MOL   C15742829   4.634   2.278   5.823  0.0505  0.2556  0.2192
   57MOL   C15842830   4.620   2.317   5.677  0.5841 -0.0389 -0.6741
   57MOL   C15942831   4.642   2.466   5.650 -0.7174 -0.4933  0.2134
   57MOL   C16042832   4.794   2.505   5.644 -0.2439  0.1523 -0.1799
   57MOL   O16142833   4.869   2.471   5.554 -0.7071  0.2924  0.1107
   57MOL   N16242834   4.845   2.576   5.749 -0.2882 -0.3725 -0.0101
   57MOL   C16342835   4.983   2.631   5.740 -0.6514 -0.0352 -0.3060
   57MOL   C16442836   4.996   2.767   5.808 -0.3181 -0.9968  0.5711
   57MOL   C16542837   4.931   2.771   5.947  0.1332  0.1812 -0.3745
   57MOL   C16642838   4.937   2.906   6.027  0.0668 -0.4656  0.2983
   57MOL   C16742839   4.869   2.891   6.160  0.1362  0.2503  0.0646
   57MOL   C16842840   4.834   3.028   6.216 -0.3021  0.1604  0.2173
   57MOL   N16942841   4.720   3.089   6.141 -0.2961 -0.5197 -0.3657
   57MOL   H17042842   4.709   2.077   5.816 -0.6619  1.0718 -1.0066
   57MOL   H17142843   4.544   2.069   5.803  1.2782 -1.4570 -0.4065
   57MOL   H17242844   4.566   2.325   5.894 -0.9202 -0.6515 -0.1047
   57MOL   H17342845   4.735   2.308   5.852  0.0738 -0.1801  0.5863
   57MOL   H17442846   4.525   2.282   5.637 -0.1959  0.2326  0.9075
   57MOL   H17542847   4.695   2.265   5.617 -0.2714 -1.3311 -0.6388
   57MOL   H17642848   4.598   2.518   5.735  0.7426  1.3367 -0.1139
   57MOL   H17742849   4.592   2.492   5.558 -0.6170 -1.9902 -0.2813
   57MOL   H17842850   4.794   2.576   5.837  0.0124  0.3232  0.1711
   57MOL   H17942851   5.042   2.552   5.786 -0.9234  2.1392  4.0332
   57MOL   H18042852   5.020   2.642   5.638  0.3752  1.8114  0.2427
   57MOL   H18142853   5.101   2.797   5.816 -0.6814  0.2393  0.7185
   57MOL   H18242854   4.941   2.831   5.739 -0.1600 -1.1626  0.2887
   57MOL   H18342855   4.961   2.698   6.021 -0.3776 -0.2080 -0.5457
   57MOL   H18442856   4.823   2.756   5.941 -0.1759  1.1275  2.1990
   57MOL   H18542857   5.039   2.933   6.054 -0.7006  1.4778  1.3448
   57MOL   H18642858   4.883   2.982   5.971 -0.7607 -1.6241 -0.5056
   57MOL   H18742859   4.775   2.835   6.160 -0.2435  0.8530  1.8565
   57MOL   H18842860   4.931   2.833   6.228  0.7991  1.6132  0.6419
   57MOL   H18942861   4.924   3.089   6.207 -0.7722  0.5841 -2.0015
   57MOL   H19042862   4.815   3.009   6.321 -0.2105 -2.6488 -0.2351
   57MOL   H19142863   4.742   3.131   6.052  1.2138 -0.8958 -0.1835
   57MOL   C19242864   4.597   3.089   6.197 -0.2849  0.2094  0.2463
   57MOL   O19342865   4.570   3.039   6.304 -0.2053  0.2847  0.0069
   57MOL   C19442866   4.487   3.155   6.113  0.5002 -0.7872 -0.4484
   57MOL   C19542867   4.412   3.277   6.187 -0.3171 -0.0932 -0.1207
   57MOL   C19642868   4.342   3.376   6.101 -0.6441  0.1033  0.0111
   57MOL   C19742869   4.277   3.501   6.170 -0.5538  0.3413 -0.4777
   57MOL   C19842870   4.179   3.569   6.077  0.2057  0.0556  0.2512
   57MOL   O19942871   4.060   3.559   6.099  0.4987 -0.1569 -0.3748
   57MOL   N20042872   4.232   3.645   5.984  0.2297 -0.0932 -0.1578
   57MOL   C20142873   4.158   3.730   5.890  0.1367 -0.5889  1.0801
   57MOL   C20242874   4.241   3.848   5.846  0.7615  0.0905 -0.1280
   57MOL   C20342875   4.276   3.938   5.970  0.1280  0.4398 -0.3438
   57MOL   C20442876   4.372   4.047   5.923  0.0162  0.0852 -0.1837
   57MOL   C20542877   4.312   4.141   5.814  0.3372 -0.2400 -0.1701
   57MOL   C20642878   4.384   4.281   5.807 -0.0184 -0.1843  0.3868
   57MOL   N20742879   4.522   4.280   5.764 -0.5183 -0.0224 -0.4787
   57MOL   H20842880   4.531   3.201   6.024 -0.0240 -0.6537 -0.6428
   57MOL   H20942881   4.412   3.086   6.074  0.4386 -1.0619  0.1487
   57MOL   H21042882   4.349   3.232   6.263 -0.7701 -1.5996 -1.3541
   57MOL   H21142883   4.496   3.332   6.230 -1.0114  1.7401 -1.0338
   57MOL   H21242884   4.262   3.325   6.047  0.0492 -0.9601 -0.0270
   57MOL   H21342885   4.418   3.413   6.032  2.2775 -1.3681  2.3149
   57MOL   H21442886   4.355   3.566   6.210 -0.4882 -0.7925  1.3244
   57MOL   H21542887   4.222   3.461   6.255 -0.2408  0.5588 -0.1744
   57MOL   H21642888   4.332   3.639   5.967  0.2471 -1.1527  0.2305
   57MOL   H21742889   4.130   3.670   5.804  0.7692  0.0851  0.4055
   57MOL   H21842890   4.065   3.759   5.940 -1.7277 -1.3188 -1.8747
   57MOL   H21942891   4.326   3.817   5.785  0.0695 -1.9863 -0.0788
   57MOL   H22042892   4.176   3.899   5.775  1.1526 -0.8215 -1.1569
   57MOL   H22142893   4.334   3.869   6.031 -1.3128 -0.8380 -0.4099
   57MOL   H22242894   4.191   3.970   6.031 -1.0985 -0.4684 -1.5349
   57MOL   H22342895   4.414   4.102   6.007 -1.1670  1.3651 -0.4159
   57MOL   H22442896   4.464   4.003   5.884  1.7384  0.9737  2.6860
   57MOL   H22542897   4.299   4.091   5.717 -0.3989  2.6453 -1.6088
   57MOL   H22642898   4.209   4.172   5.834  0.3801 -1.5491  2.2153
   57MOL   H22742899   4.380   4.319   5.909  3.5312 -0.5061  0.6958
   57MOL   H22842900   4.328   4.345   5.738 -3.6738 -1.8670  1.6669
   57MOL   H22942901   4.587   4.276   5.842 -1.2164  0.0656  0.1160
   57MOL   C23042902   4.562   4.212   5.656  0.0390  0.5518  0.5845
   57MOL   O23142903   4.492   4.197   5.556  0.1487  0.1331  0.2206
   57MOL   C23242904   4.703   4.167   5.644  0.0816  0.1023  0.1572
   57MOL   C23342905   4.749   4.133   5.500  1.0221  0.1890  0.4819
   57MOL   C23442906   4.896   4.105   5.483 -0.4051  0.4964  0.0948
   57MOL   C23542907   4.939   4.085   5.332  0.9058  0.1379  0.5634
   57MOL   C23642908   4.923   3.948   5.275 -0.1828  0.3641  0.4931
   57MOL   O23742909   4.808   3.904   5.256 -0.1126  0.5644  0.4536
   57MOL   N23842910   5.043   3.896   5.247 -0.1513  0.2392 -0.4126
   57MOL   C23942911   5.073   3.773   5.177 -0.8316  0.0954 -0.6465
   57MOL   C24042912   5.068   3.796   5.026  0.5021  0.1725 -0.2929
   57MOL   C24142913   5.109   3.653   4.965  0.0082  0.0913 -1.0035
   57MOL   C24242914   5.083   3.636   4.816  0.3645 -0.2113 -0.0784
   57MOL   C24342915   5.127   3.494   4.764 -0.3685 -0.5923  0.6004
   57MOL   C24442916   5.103   3.489   4.614 -0.5047 -0.2819 -0.2126
   57MOL   N24542917   5.140   3.360   4.554  0.5367 -0.1156  0.1841
   57MOL   H24642918   4.756   4.253   5.687  0.9638 -0.2209 -0.2820
   57MOL   H24742919   4.730   4.099   5.724  2.6586  1.2424  0.3108
   57MOL   H24842920   4.692   4.050   5.459 -0.5620  0.4084  2.1675
   57MOL   H24942921   4.731   4.222   5.440 -0.4370 -0.8251 -0.5912
   57MOL   H25042922   4.929   4.030   5.555 -1.1882  0.7219  0.6895
   57MOL   H25142923   4.946   4.198   5.510  1.9368  0.4053 -3.4495
   57MOL   H25242924   5.043   4.117   5.320  1.4002 -1.9071 -0.9904
   57MOL   H25342925   4.893   4.149   5.257 -0.0549 -0.4690  0.6296
   57MOL   H25442926   5.122   3.946   5.286 -0.1305 -0.1890  0.0903
   57MOL   H25542927   5.172   3.749   5.215 -0.8641  0.4936 -0.3022
   57MOL   H25642928   5.006   3.693   5.209 -0.8052  0.5362  0.5309
   57MOL   H25742929   4.975   3.832   4.985  0.7229  0.8582 -0.1895
   57MOL   H25842930   5.147   3.867   5.002  0.5505  0.1048 -0.3346
   57MOL   H25942931   5.056   3.575   5.019  0.2331  0.7426  0.1810
   57MOL   H26042932   5.216   3.638   4.984 -0.5678 -2.0492  0.8214
   57MOL   H26142933   4.978   3.648   4.792  0.7085  1.8900 -0.6330
   57MOL   H26242934   5.135   3.715   4.761 -1.4658  0.6835 -0.5707
   57MOL   H26342935   5.224   3.456   4.793 -0.2442  0.1950  1.2461
   57MOL   H26442936   5.059   3.424   4.811  0.5507 -1.5245  0.5517
   57MOL   H26542937   5.171   3.552   4.557 -0.4861  0.8166  0.9936
   57MOL   H26642938   5.000   3.515   4.590 -0.1887 -1.4741 -3.0249
   57MOL   H26742939   5.227   3.358   4.503  1.0989  0.4470  1.1212
   57MOL   C26842940   5.058   3.255   4.541 -0.3773  0.1431 -0.4695
   57MOL   O26942941   4.937   3.259   4.574 -0.2043 -0.1977  0.8490
   57MOL   C27042942   5.113   3.125   4.492 -0.4692 -0.2910 -0.0450
   57MOL   C27142943   5.164   3.124   4.347  0.3336 -0.0151  0.4353
   57MOL   C27242944   5.094   3.208   4.233  0.0997  0.0999  0.4522
   57MOL   C27342945   4.943   3.195   4.225  0.8443  0.3629 -0.2735
   57MOL   C27442946   4.887   3.301   4.138  0.0166  0.5821 -0.4916
   57MOL   O27542947   4.933   3.316   4.024  0.4366 -0.1772 -0.9763
   57MOL   N27642948   4.804   3.383   4.196 -0.1966  0.3469  0.3952
   57MOL   C27742949   4.747   3.503   4.134 -0.4816  0.4255 -0.2162
   57MOL   C27842950   4.845   3.625   4.093  0.2030  0.4462 -0.1062
   57MOL   C27942951   4.929   3.663   4.215 -0.0233 -0.0076 -0.1243
   57MOL   C28042952   5.014   3.788   4.194 -0.7748  0.6541 -0.3016
   57MOL   C28142953   5.123   3.813   4.291 -0.2102  0.2671 -0.4764
   57MOL   C28242954   5.218   3.927   4.249 -0.4798  0.9965 -0.2393
   57MOL   N28342955   5.167   4.056   4.288  0.4732 -0.1660  0.1892
   57MOL   H28442956   5.179   3.073   4.561  3.5404  1.1801 -2.5920
   57MOL   H28542957   5.023   3.065   4.490 -0.3253 -0.4446 -2.6161
   57MOL   H28642958   5.265   3.163   4.337  0.4536  0.1398  2.1757
   57MOL   H28742959   5.170   3.019   4.320  2.1322 -0.3392  2.0671
   57MOL   H28842960   5.132   3.177   4.136  1.2270 -1.3369  1.3355
   57MOL   H28942961   5.116   3.314   4.244 -2.9077  0.9840 -1.3376
   57MOL   H29042962   4.890   3.196   4.321  0.2210 -0.0105 -0.6066
   57MOL   H29142963   4.923   3.092   4.195  0.8098  0.5008 -0.7242
   57MOL   H29242964   4.787   3.375   4.295  1.5040 -2.7590  0.4816
   57MOL   H29342965   4.685   3.474   4.050 -0.1718 -0.7769 -0.0442
   57MOL   H29442966   4.680   3.563   4.197  1.4761 -0.3132  2.6897
   57MOL   H29542967   4.904   3.582   4.012  2.1747 -0.3572  1.7112
   57MOL   H29642968   4.786   3.710   4.059 -1.3509  0.0654  1.5833
   57MOL   H29742969   4.993   3.584   4.256 -0.9953 -1.1252 -0.7328
   57MOL   H29842970   4.862   3.679   4.299 -0.3390  2.4027 -0.8192
   57MOL   H29942971   5.059   3.783   4.095  1.6821 -0.5503  0.8431
   57MOL   H30042972   4.938   3.867   4.190 -0.8697  0.6134  0.5747
   57MOL   H30142973   5.091   3.827   4.395  1.1431  0.0217 -0.0240
   57MOL   H30242974   5.183   3.723   4.282 -2.2131 -1.1297 -0.1579
   57MOL   H30342975   5.255   3.931   4.146  0.0007  1.9560 -0.0349
   57MOL   H30442976   5.307   3.922   4.311 -1.3704  1.6188  1.1189
   57MOL   H30542977   5.181   4.088   4.383 -2.2080  2.1384 -0.1316
   57MOL   C30642978   5.092   4.135   4.214  0.2832  0.3762  0.4983
   57MOL   O30742979   5.063   4.119   4.091 -0.0996  0.3667  0.2702
   57MOL   C30842980   5.010   4.229   4.301  0.3639 -0.1038 -0.3013
   57MOL   C30942981   5.040   4.375   4.277 -0.6832 -0.4583  0.5789
   57MOL   C31042982   5.169   4.421   4.336  1.1220 -0.7267 -0.5314
   57MOL   C31142983   5.196   4.572   4.303 -0.0404  0.8194 -0.5982
   57MOL   C31242984   5.264   4.645   4.415  0.1181  0.0351  0.0640
   57MOL   O31342985   5.204   4.680   4.520 -0.1413  0.1713  0.9105
   57MOL   N31442986   5.393   4.683   4.389 -0.2099  0.6778  0.6932
   57MOL   C31542987   5.471   4.768   4.476  0.0333 -0.2922  0.2968
   57MOL   C31642988   5.505   4.690   4.607 -0.0036  0.2749 -0.2523
   57MOL   C31742989   5.552   4.786   4.718 -0.0538  0.2007  0.2441
   57MOL   C31842990   5.575   4.715   4.854  0.3432  0.3468  0.0325
   57MOL   C31942991   5.586   4.804   4.974 -0.6641 -0.3885  0.7387
   57MOL   C32042992   5.582   4.727   5.108 -0.2287 -0.8317  0.1429
   57MOL   N32142993   5.710   4.657   5.136 -0.0583  0.0808 -0.5466
   57MOL   H32242994   4.903   4.222   4.281  0.6184 -2.7354 -0.8997
   57MOL   H32342995   5.007   4.217   4.409 -0.9651 -0.3659 -0.3582
   57MOL   H32442996   5.027   4.398   4.171  2.0984 -0.4591  0.1872
   57MOL   H32542997   4.969   4.439   4.329  0.5759  2.2874 -0.9483
   57MOL   H32642998   5.249   4.354   4.305  1.4962  0.2136 -1.6377
   57MOL   H32742999   5.150   4.397   4.440  0.8970  0.9053 -0.1861
   57MOL   H32843000   5.100   4.623   4.299 -0.1656  0.5448 -1.1233
   57MOL   H32943001   5.250   4.588   4.209  0.1325 -1.8807 -0.9881
   57MOL   H33043002   5.433   4.670   4.297 -1.6848 -0.4533  0.1837
   57MOL   H33143003   5.559   4.788   4.415  0.5209  1.8304  1.6387
   57MOL   H33243004   5.408   4.857   4.488  0.7121 -0.0012  1.7472
   57MOL   H33343005   5.415   4.653   4.655  1.4590 -3.5165 -0.2683
   57MOL   H33443006   5.564   4.600   4.590 -0.1193  0.2959 -0.7728
   57MOL   H33543007   5.483   4.870   4.723  0.7045  0.8625 -0.2752
   57MOL   H33643008   5.653   4.811   4.686 -0.6885  0.0137 -2.0139
   57MOL   H33743009   5.490   4.652   4.878  0.0533  0.2801 -1.1405
   57MOL   H33843010   5.651   4.637   4.843 -0.1980 -0.4867  1.9523
   57MOL   H33943011   5.666   4.877   4.961 -0.7665 -0.8812 -3.1490
   57MOL   H34043012   5.496   4.865   4.968 -1.7025 -2.0178 -0.6172
   57MOL   H34143013   5.491   4.670   5.126 -1.1244  0.2933 -0.7640
   57MOL   H34243014   5.576   4.809   5.180  3.1074  0.1552 -0.6386
   57MOL   H34343015   5.797   4.692   5.097  0.2326  1.1751  1.0258
   57MOL   C34443016   5.719   4.557   5.231 -0.0389 -0.3338  0.0166
   57MOL   O34543017   5.629   4.492   5.284 -0.6085  0.7104  0.1428
   57MOL   C34643018   5.863   4.513   5.265 -0.1208  0.5105 -0.8197
   57MOL   C34743019   5.882   4.482   5.415  0.1682  0.9429  0.3144
   57MOL   C34843020   5.894   4.331   5.437  0.1597  0.0194  0.3388
   57MOL   C34943021   5.760   4.254   5.454 -0.3404 -0.1000 -0.0449
   57MOL   C35043022   5.778   4.131   5.540  0.0914  0.3435  0.2981
   57MOL   O35143023   5.772   4.021   5.500 -0.3037  0.1624 -0.1208
   57MOL   N35243024   5.793   4.154   5.666  0.0372 -0.2330  0.6335
   57MOL   C35343025   5.801   4.049   5.761  0.7341  0.2039 -0.7004
   57MOL   C35443026   5.661   4.024   5.836  0.2198 -0.4922  0.2626
   57MOL   C35543027   5.679   3.957   5.968 -0.6011  0.2684 -0.1499
   57MOL   C35643028   5.555   3.956   6.058  0.4972  0.0800  0.0328
   57MOL   C35743029   5.577   3.901   6.199  0.1210 -0.0557 -0.3814
   57MOL   C35843030   5.451   3.916   6.293 -0.1474 -0.3527  0.1519
   57MOL   N35943031   5.472   3.852   6.419  0.0102 -0.1141 -0.1301
   57MOL   H36043032   5.880   4.418   5.214 -1.8265 -0.8488  1.0710
   57MOL   H36143033   5.933   4.589   5.231  1.2696 -0.0485  0.7467
   57MOL   H36243034   5.980   4.512   5.453  0.8446 -0.2851 -0.4301
   57MOL   H36343035   5.806   4.533   5.474  0.3652 -0.8280  2.1541
   57MOL   H36443036   5.949   4.329   5.531 -0.9827 -0.3121  1.0018
   57MOL   H36543037   5.964   4.278   5.372  0.8913  2.2559 -0.7511
   57MOL   H36643038   5.722   4.244   5.352 -0.5398  0.1202  0.0073
   57MOL   H36743039   5.683   4.319   5.494  0.0298  1.0357 -1.1505
   57MOL   H36843040   5.786   4.251   5.691  0.7234  0.0310 -0.1820
   57MOL   H36943041   5.834   3.951   5.726 -1.0827 -1.2419  1.4753
   57MOL   H37043042   5.877   4.085   5.830 -0.6318  0.3874  0.7172
   57MOL   H37143043   5.612   4.119   5.857  0.3454  0.2257 -2.5481
   57MOL   H37243044   5.589   3.961   5.784 -0.2896 -0.7083  1.2066
   57MOL   H37343045   5.754   4.016   6.021 -0.2169  1.0906 -1.5821
   57MOL   H37443046   5.733   3.862   5.964  0.6097  0.9421  0.0796
   57MOL   H37543047   5.515   4.055   6.079  0.3013 -0.1541  0.7925
   57MOL   H37643048   5.476   3.893   6.016 -0.2259  1.1978 -0.3006
   57MOL   H37743049   5.614   3.801   6.176 -1.8720 -1.5822  2.7691
   57MOL   H37843050   5.656   3.952   6.253 -1.0708  0.8207  0.5676
   57MOL   H37943051   5.369   3.871   6.238  0.3102 -0.7913 -0.1779
   57MOL   H38043052   5.420   4.019   6.310  0.0942  0.0890 -1.9524
   57MOL   H38143053   5.483   3.908   6.502  0.5958  1.6442 -1.3571
   57MOL   C38243054   5.462   3.717   6.449 -0.3822  0.4861  0.2938
   57MOL   O38343055   5.417   3.644   6.361  0.3507 -0.3855 -0.2217
   57MOL   C38443056   5.492   3.670   6.595 -0.6808 -0.0271  0.2335
   57MOL   C38543057   5.397   3.579   6.664 -0.3165  0.1951  0.2811
   57MOL   C38643058   5.254   3.635   6.676  0.0112 -0.1882  0.8235
   57MOL   C38743059   5.152   3.597   6.570  0.1910  0.0259 -0.5106
   57MOL   C38843060   5.159   3.449   6.515  0.3188 -0.2335  0.0157
   57MOL   O38943061   5.078   3.367   6.557 -0.2708 -0.2421  0.3122
   57MOL   N39043062   5.250   3.426   6.417 -0.0485  0.1406  0.5266
   57MOL   C39143063   5.265   3.297   6.346  0.9495  0.3017 -0.4218
   57MOL   C39243064   5.194   3.303   6.210  0.7512  0.7588 -0.0289
   57MOL   C39343065   5.232   3.181   6.128  0.1435 -0.3238  0.0475
   57MOL   C39443066   5.188   3.197   5.981 -0.2836  0.1912 -0.5147
   57MOL   C39543067   5.269   3.103   5.888  0.0474  0.0137 -0.6707
   57MOL   C39643068   5.242   3.124   5.742  0.3747  0.9037  0.2142
   57MOL   N39743069   5.343   3.058   5.659  0.3130  0.0226 -0.8235
   57MOL   H39843070   5.588   3.619   6.587 -0.7371 -0.4568  2.0963
   57MOL   H39943071   5.515   3.757   6.657 -1.8714  0.0256  0.6195
   57MOL   H40043072   5.401   3.483   6.614 -0.9889  1.1451 -1.6429
   57MOL   H40143073   5.440   3.554   6.761 -0.4595 -0.6476  0.1284
   57MOL   H40243074   5.249   3.744   6.685  0.2325 -0.1965  1.0419
   57MOL   H40343075   5.216   3.615   6.776  1.1210 -1.1025  1.0623
   57MOL   H40443076   5.176   3.658   6.483  0.0447 -0.0017 -0.5703
   57MOL   H40543077   5.049   3.626   6.593 -0.7566 -1.5032 -2.6829
   57MOL   H40643078   5.323   3.495   6.408 -0.7820  0.6798 -1.5725
   57MOL   H40743079   5.373   3.285   6.335  1.0322 -0.2106  0.7892
   57MOL   H40843080   5.224   3.214   6.405 -1.4592  0.9094 -1.1852
   57MOL   H40943081   5.089   3.325   6.230  0.4304  0.9727 -1.8568
   57MOL   H41043082   5.219   3.395   6.157  2.8324  0.3806  0.2634
   57MOL   H41143083   5.208   3.088   6.180 -2.8995 -0.4444 -1.4284
   57MOL   H41243084   5.340   3.183   6.116  0.0254  1.0949 -0.8128
   57MOL   H41343085   5.080   3.184   5.974 -0.2788 -0.2594  0.2719
   57MOL   H41443086   5.196   3.301   5.949  0.0563  0.0769 -0.8111
   57MOL   H41543087   5.375   3.121   5.905  0.2227 -2.3616  0.8901
   57MOL   H41643088   5.256   2.996   5.902 -0.8293  0.2963  0.8538
   57MOL   H41743089   5.233   3.230   5.718 -0.5202  0.3505 -2.1039
   57MOL   H41843090   5.143   3.094   5.705  1.2940 -1.4148 -0.5254
   57MOL   H41943091   5.317   2.967   5.626 -0.2120  0.4744 -1.6879
   57MOL   C42043092   5.462   3.104   5.625  0.2647 -0.0796 -0.0940
   57MOL   O42143093   5.489   3.216   5.663  0.3007 -0.2282  0.0343
   57MOL   C42243094   5.558   3.025   5.533  0.7028 -0.6296 -0.0549
   57MOL   C42343095   5.653   3.116   5.458  0.4641 -0.3376 -0.1891
   57MOL   C42443096   5.583   3.194   5.341 -0.1794 -0.4453 -0.0289
   57MOL   C42543097   5.665   3.296   5.264  0.1548 -0.1660 -0.7676
   57MOL   C42643098   5.586   3.349   5.143 -0.0521 -0.2379  0.1391
   57MOL   O42743099   5.498   3.277   5.102 -0.0180  0.4398  0.3759
   57MOL   N42843100   5.637   3.457   5.077 -0.0348 -0.6765  0.1475
   57MOL   C42943101   5.597   3.498   4.944  0.0664 -0.5691  0.6913
   57MOL   C43043102   5.533   3.640   4.937 -0.0338 -0.7674 -0.4029
   57MOL   C43143103   5.477   3.685   4.797 -0.0896 -0.0912 -0.1565
   57MOL   C43243104   5.425   3.826   4.801  0.8185  0.2042  0.8245
   57MOL   C43343105   5.353   3.850   4.664  0.4212 -0.1877 -0.7002
   57MOL   C43443106   5.273   3.985   4.668 -0.0795  0.0836  0.3366
   57MOL   N43543107   5.352   4.101   4.674  0.0967 -0.7641 -0.9951
   57MOL   H43643108   5.614   2.959   5.599 -0.3531  0.8053  2.3441
   57MOL   H43743109   5.509   2.965   5.456 -0.4238 -0.3276  0.4142
   57MOL   H43843110   5.679   3.200   5.522  0.2844  0.6709 -1.4181
   57MOL   H43943111   5.737   3.055   5.425 -0.0317 -0.0718 -1.9827
   57MOL   H44043112   5.494   3.239   5.385  0.0564  1.9958 -1.9410
   57MOL   H44143113   5.541   3.121   5.272 -1.1049 -0.0386  0.0971
   57MOL   H44243114   5.753   3.242   5.230 -1.0430 -1.8967 -1.1857
   57MOL   H44343115   5.700   3.367   5.339 -0.6051 -1.3815  0.7715
   57MOL   H44443116   5.701   3.511   5.133 -1.4194 -0.2070  1.2803
   57MOL   H44543117   5.683   3.502   4.877  0.3145 -1.4081  0.9506
   57MOL   H44643118   5.523   3.432   4.898 -1.3525  2.6519 -1.7912
   57MOL   H44743119   5.451   3.659   5.006  1.0331  1.3126  0.3616
   57MOL   H44843120   5.618   3.696   4.976 -2.1267  1.5756  0.9505
   57MOL   H44943121   5.397   3.619   4.763 -0.3380  1.1287 -2.0249
   57MOL   H45043122   5.556   3.684   4.721  1.9773  0.4185  1.9204
   57MOL   H45143123   5.355   3.833   4.885  1.1927 -1.4072  1.2806
   57MOL   H45243124   5.494   3.910   4.808  1.7035 -0.6465  2.6735
   57MOL   H45343125   5.431   3.845   4.589  1.0303  0.9182 -0.1520
   57MOL   H45443126   5.275   3.781   4.633  2.7966 -1.9411 -2.9310
   57MOL   H45543127   5.202   3.986   4.751  0.2013  1.1542  0.5633
   57MOL   H45643128   5.214   3.997   4.578  1.4035  0.3146 -0.6176
   57MOL   H45743129   5.396   4.120   4.763  0.7536  0.2506 -1.5225
   57MOL   C45843130   5.387   4.191   4.586 -0.0219 -0.4682  0.6376
   57MOL   O45943131   5.349   4.177   4.467 -0.4201  0.2588 -0.1364
   57MOL   C46043132   5.460   4.317   4.624  0.0624 -0.1501  0.4777
   57MOL   C46143133   5.610   4.302   4.592 -0.3604  0.5804 -0.0417
   57MOL   C46243134   5.652   4.296   4.444  0.9232 -0.1963 -1.0513
   57MOL   C46343135   5.791   4.338   4.407 -0.0427  0.1333 -0.5329
   57MOL   C46443136   5.899   4.266   4.489 -0.5100  0.7211  0.3903
   57MOL   O46543137   5.916   4.147   4.481 -0.5351 -0.0465 -0.6324
   57MOL   N46643138   5.977   4.349   4.566 -0.1799 -0.0963 -0.1846
   57MOL   C46743139   6.090   4.312   4.652  0.9319  0.4551 -0.2752
   57MOL   C46843140   6.091   4.375   4.797  0.4476  0.1267 -0.0449
   57MOL   C46943141   5.958   4.421   4.862 -0.1801  0.5969 -0.4324
   57MOL   C47043142   5.861   4.300   4.880 -0.1387 -0.1750  0.4693
   57MOL   C47143143   5.724   4.338   4.936  0.1248 -0.8674 -0.2007
   57MOL   C47243144   5.677   4.255   5.060  0.5916  0.6144 -0.9682
   57MOL   N47343145   5.543   4.296   5.105 -0.0949  0.1944 -0.5925
   57MOL   H47443146   5.411   4.396   4.568 -1.7794 -0.7559  1.2080
   57MOL   H47543147   5.448   4.337   4.730  0.1765  0.1896  0.4263
   57MOL   H47643148   5.656   4.388   4.643  0.7046  1.5408 -2.5193
   57MOL   H47743149   5.652   4.215   4.641 -0.5906 -0.0019 -0.8762
   57MOL   H47843150   5.581   4.346   4.378 -1.9421 -1.4447  0.9667
   57MOL   H47943151   5.641   4.191   4.414 -1.4756 -0.4510  0.5722
   57MOL   H48043152   5.797   4.444   4.429  0.9714 -0.3864  1.9176
   57MOL   H48143153   5.808   4.324   4.301  3.8990  1.0938 -0.1272
   57MOL   H48243154   5.948   4.445   4.559  3.1808  0.9971 -0.0581
   57MOL   H48343155   6.090   4.207   4.681 -5.6309  0.4479  0.4301
   57MOL   H48443156   6.175   4.343   4.592  2.2916 -0.1678  1.2988
   57MOL   H48543157   6.137   4.302   4.863  0.6431  0.5241  0.2580
   57MOL   H48643158   6.149   4.467   4.790  0.3364  0.1474 -0.7226
   57MOL   H48743159   5.916   4.499   4.798 -0.2943  1.8065  1.0981
   57MOL   H48843160   5.978   4.470   4.957  0.8368  0.1813 -0.4239
   57MOL   H48943161   5.843   4.257   4.782 -1.5991 -0.7817  0.9946
   57MOL   H49043162   5.906   4.214   4.929 -2.2606 -1.7950 -0.3297
   57MOL   H49143163   5.727   4.443   4.966 -0.1159 -0.8371 -0.2829
   57MOL   H49243164   5.649   4.321   4.859 -0.8300  2.3290 -0.0505
   57MOL   H49343165   5.745   4.262   5.146 -0.7333 -3.0038  0.4729
   57MOL   H49443166   5.674   4.151   5.027  1.6269 -0.6672  2.7305
   57MOL   H49543167   5.535   4.378   5.163 -2.0368 -0.6955  0.4293
   57MOL   C49643168   5.434   4.242   5.051  0.2885 -1.2062  0.4717
   57MOL   O49743169   5.454   4.159   4.959 -0.3149  0.1801  0.3908
   57MOL   C49843170   5.291   4.278   5.098 -0.0178 -0.1245  0.5644
   57MOL   C49943171   5.196   4.330   4.989  0.5180 -0.0442  0.5378
   57MOL   C50043172   5.236   4.474   4.943  0.2459  0.5358  0.7727
   57MOL   C50143173   5.169   4.505   4.810  0.7287 -0.1297 -0.5303
   57MOL   C50243174   5.047   4.596   4.830 -0.2434  0.4510 -0.3534
   57MOL   O50343175   4.993   4.600   4.939 -0.0751 -0.5498 -0.5337
   57MOL   N50443176   4.999   4.647   4.714  0.0651 -0.0051  0.3397
   57MOL   C50543177   4.881   4.735   4.704 -0.1304 -0.3569 -0.9757
   57MOL   C50643178   4.894   4.844   4.592 -1.0634  0.9162 -0.0034
   57MOL   C50743179   5.017   4.939   4.623 -0.8707 -0.2508  0.4124
   57MOL   C50843180   5.074   5.009   4.501  0.1770  0.6646  0.5580
   57MOL   C50943181   5.156   5.133   4.529 -0.4637 -0.8393 -0.6422
   57MOL   C51043182   5.078   5.250   4.581  0.5200  0.5170  0.5332
   57MOL   N51143183   4.984   5.303   4.486 -1.3751 -0.4351 -0.5045
   57MOL   H51243184   5.254   4.185   5.142 -1.5470 -0.0028 -0.4091
   57MOL   H51343185   5.307   4.349   5.179 -0.8236 -1.2829  1.7645
   57MOL   H51443186   5.199   4.262   4.904  0.5575  0.2289  0.3223
   57MOL   H51543187   5.094   4.339   5.025  0.4211  0.2857  0.1897
   57MOL   H51643188   5.344   4.475   4.925  0.1387  2.7188  0.0197
   57MOL   H51743189   5.216   4.552   5.017 -0.9241 -1.1084  2.2123
   57MOL   H51843190   5.155   4.424   4.739  0.6255 -1.1474  0.6172
   57MOL   H51943191   5.244   4.573   4.771  0.8965  0.7156  1.1872
   57MOL   H52043192   5.057   4.640   4.632 -1.3321 -2.0267 -0.5488
   57MOL   H52143193   4.801   4.668   4.674  0.6310 -1.3365 -0.8514
   57MOL   H52243194   4.859   4.781   4.801  0.8967  0.1733 -0.9932
   57MOL   H52343195   4.915   4.801   4.494 -3.0002 -1.0021  0.4192
   57MOL   H52443196   4.811   4.915   4.587 -0.8307  1.1873 -0.0843
   57MOL   H52543197   5.099   4.896   4.680  1.0213 -0.7561 -2.6413
   57MOL   H52643198   4.983   5.006   4.703 -0.3832 -0.0202  0.4271
   57MOL   H52743199   5.124   4.931   4.444  0.3706 -0.0064  1.6464
   57MOL   H52843200   4.990   5.040   4.438 -0.6771  0.5825  1.6476
   57MOL   H52943201   5.241   5.105   4.592  0.3199  1.6737 -0.5617
   57MOL   H53043202   5.204   5.173   4.440  0.5481 -0.8697 -0.1158
   57MOL   H53143203   5.146   5.331   4.609 -0.6487  2.8380 -3.0386
   57MOL   H53243204   5.028   5.220   4.673 -0.9170  0.0415 -0.3875
   57MOL   H53343205   5.012   5.366   4.413  0.7851 -1.3594 -0.5002
   57MOL   C53443206   4.859   5.267   4.477  0.1377  0.1218 -0.3580
   57MOL   O53543207   4.792   5.197   4.553 -0.0222  0.8527  0.5953
   57MOL   C53643208   4.788   5.334   4.368  0.6362  0.3366 -0.4690
   57MOL   C53743209   4.717   5.465   4.399 -0.8800  0.2780  0.0193
   57MOL   C53843210   4.808   5.586   4.434  0.2698  0.0779  0.8155
   57MOL   C53943211   4.733   5.719   4.486 -0.0623 -0.6276 -0.1985
   57MOL   C54043212   4.847   5.806   4.545  0.5226  0.2037 -0.3329
   57MOL   O54143213   4.897   5.775   4.658  0.5050  0.0627  0.0251
   57MOL   N54243214   4.865   5.933   4.500  0.5368  0.5061 -0.2490
   57MOL   C54343215   4.946   6.040   4.560  0.4791 -0.5282 -0.6922
   57MOL   C54443216   4.922   6.078   4.709  0.1183  0.3904 -0.1296
   57MOL   C54543217   4.987   6.210   4.740  0.1287 -0.7423  0.1042
   57MOL   C54643218   4.958   6.270   4.878 -0.5795 -0.9374  0.8144
   57MOL   C54743219   5.049   6.385   4.917  0.1405 -0.9113 -1.5204
   57MOL   C54843220   5.032   6.430   5.060  0.2909 -0.3750 -0.3102
   57MOL   N54943221   5.137   6.520   5.104  0.2156  0.0186 -0.1597
   57MOL   H55043222   4.854   5.355   4.284 -0.1587  0.0303 -1.1899
   57MOL   H55143223   4.718   5.263   4.323 -0.4459  1.7190 -1.0120
   57MOL   H55243224   4.656   5.480   4.311 -0.4387 -3.1849 -0.9677
   57MOL   H55343225   4.649   5.458   4.484 -0.3972  0.2716  0.4145
   57MOL   H55443226   4.861   5.611   4.342 -0.4242 -2.4275 -0.2975
   57MOL   H55543227   4.874   5.551   4.514 -0.7619 -1.0190  1.1997
   57MOL   H55643228   4.666   5.694   4.568  1.3292  2.4582  1.9806
   57MOL   H55743229   4.680   5.778   4.410  0.5133  0.0634 -0.0737
   57MOL   H55843230   4.803   5.965   4.426 -1.6172  0.6033  1.5468
   57MOL   H55943231   5.052   6.021   4.551  0.6746  0.5365 -0.6886
   57MOL   H56043232   4.940   6.134   4.506  1.5304 -0.2096 -0.2616
   57MOL   H56143233   4.816   6.079   4.732  0.0084  0.6644 -0.6387
   57MOL   H56243234   4.976   6.011   4.775 -0.6845  1.8858  2.1000
   57MOL   H56343235   4.972   6.292   4.670  0.2745 -1.3573 -0.6569
   57MOL   H56443236   5.096   6.201   4.742  0.0271 -1.8933  0.5401
   57MOL   H56543237   4.861   6.319   4.866 -0.3746 -0.0719  2.5702
   57MOL   H56643238   4.944   6.192   4.952 -0.8942  0.6492  2.4534
   57MOL   H56743239   5.154   6.358   4.914  0.6961  0.8735  0.3855
   57MOL   H56843240   5.037   6.470   4.849 -1.9204 -0.1846 -0.3250
   57MOL   H56943241   5.012   6.354   5.136 -2.0097  2.0869  1.6490
   57MOL   H57043242   4.936   6.481   5.057  0.3364 -0.0357  2.5673
   57MOL   H57143243   5.225   6.486   5.138 -0.2098 -0.7885  0.1467
   57MOL   C57243244   5.124   6.652   5.099  0.2481 -0.2215  0.2859
   57MOL   O57343245   5.029   6.710   5.039  0.0508  0.4060  0.0716
   57MOL   C57443246   5.246   6.720   5.150  0.5775 -0.7126  0.6050
   57MOL   C57543247   5.388   6.664   5.096 -0.0280  0.2293 -0.2031
   57MOL   C57643248   5.409   6.690   4.948  0.2825 -0.1454 -0.1347
   57MOL   C57743249   5.541   6.647   4.890 -0.3074 -0.4336  0.1114
   57MOL   C57843250   5.661   6.740   4.910 -0.0470 -0.1407  0.1057
   57MOL   O57943251   5.647   6.852   4.970  0.3151 -0.5631  0.5494
   57MOL   N58043252   5.774   6.694   4.854 -0.6396 -0.1823 -0.1998
   57MOL   C58143253   5.901   6.763   4.846  0.1393 -0.3252  0.2933
   57MOL   C58243254   6.003   6.685   4.754  0.4255  0.2046  0.0713
   57MOL   C58343255   6.147   6.735   4.788 -0.4555 -0.0906  0.3216
   57MOL   C58443256   6.264   6.650   4.726  0.3460 -0.1490  0.0969
   57MOL   C58543257   6.292   6.681   4.572  0.1751  0.0009 -0.6082
   57MOL   C58643258   6.412   6.593   4.523 -0.5110  0.1344  0.4386
   57MOL   N58743259   6.531   6.642   4.595 -0.4259  0.4584 -0.0124
   57MOL   H58843260   5.229   6.827   5.133 -2.0403 -0.7566  2.6622
   57MOL   H58943261   5.233   6.721   5.258 -1.3583  2.2713  0.4071
   57MOL   H59043262   5.470   6.706   5.153 -1.1229  1.8648  0.2018
   57MOL   H59143263   5.395   6.557   5.114  1.4217  0.2009 -0.9426
   57MOL   H59243264   5.394   6.798   4.936 -2.6173 -0.7150 -2.2408
   57MOL   H59343265   5.327   6.649   4.889 -2.4041  4.2689  0.2854
   57MOL   H59443266   5.545   6.653   4.782 -2.7878  2.0291  0.1143
   57MOL   H59543267   5.568   6.549   4.931  0.7320  0.0255  0.5642
   57MOL   H59643268   5.767   6.602   4.814 -2.5961 -0.1524  0.0271
   57MOL   H59743269   5.895   6.863   4.804 -2.2821 -0.4560  0.3022
   57MOL   H59843270   5.930   6.789   4.948 -2.9960  0.7626  0.9475
   57MOL   H59943271   5.979   6.580   4.768  2.3126 -0.2295  0.2149
   57MOL   H60043272   5.981   6.696   4.648  0.4036  0.4627  0.1028
   57MOL   H60143273   6.165   6.730   4.895  0.0611 -2.2168  0.1618
   57MOL   H60243274   6.156   6.840   4.761  0.1648 -0.7250 -2.0825
   57MOL   H60343275   6.345   6.685   4.790 -0.3037 -1.7975  1.8776
   57MOL   H60443276   6.257   6.542   4.739  2.2852 -0.2670  0.2575
   57MOL   H60543277   6.198   6.653   4.525 -0.1069  0.4264 -0.3060
   57MOL   H60643278   6.302   6.787   4.548 -2.7570  0.1475 -1.3160
   57MOL   H60743279   6.414   6.596   4.414 -2.3765  0.5006  0.3970
   57MOL   H60843280   6.387   6.491   4.552  0.4284 -0.0914  0.4735
   57MOL   H60943281   6.543   6.741   4.608  1.6152  0.0838  1.0910
   57MOL   C61043282   6.617   6.567   4.662  1.4910  0.1848 -0.1273
   57MOL   O61143283   6.611   6.448   4.650  0.7613  0.4825 -0.0778
   57MOL   C61243284   6.726   6.635   4.752  0.2092  0.2076  0.2038
   57MOL   C61343285   6.736   6.570   4.889 -0.2759 -0.2599 -0.7300
   57MOL   C61443286   6.602   6.576   4.974  0.0742 -0.1408 -0.2339
   57MOL   C61543287   6.569   6.717   5.009  0.1980 -0.2993 -1.0702
   57MOL   C61643288   6.463   6.726   5.123  0.0609 -0.0766 -0.2707
   57MOL   O61743289   6.351   6.670   5.114 -0.3323  0.1111  0.4598
   57MOL   N61843290   6.504   6.780   5.234  0.5115  0.1082  0.4940
   57MOL   C61943291   6.450   6.737   5.363  0.4783  0.2070  0.1099
   57MOL   C62043292   6.570   6.669   5.433 -0.1815  0.2063 -1.2021
   57MOL   C62143293   6.584   6.519   5.423  0.6780 -0.2569 -0.0957
   57MOL   C62243294   6.705   6.456   5.491  0.1504  0.3714  0.2541
   57MOL   C62343295   6.834   6.484   5.422 -0.3701  0.4547  0.1421
   57MOL   C62443296   6.948   6.407   5.491 -0.2836  0.1015  0.0811
   57MOL   N62543297   7.089   6.427   5.441  0.1080  0.2536 -0.5068
   57MOL   H62643298   6.816   6.622   4.691  0.0788  0.2907 -0.0084
   57MOL   H62743299   6.704   6.741   4.758  0.7004  0.2447  1.3991
   57MOL   H62843300   6.772   6.469   4.870 -3.1978 -1.5919  0.5298
   57MOL   H62943301   6.812   6.626   4.945 -1.6052  0.2940  0.5768
   57MOL   H63043302   6.610   6.518   5.066 -0.2110  0.4846  0.1866
   57MOL   H63143303   6.521   6.525   4.921 -0.3199  1.3200 -1.0488
   57MOL   H63243304   6.523   6.762   4.922 -2.3522  1.3712  1.0638
   57MOL   H63343305   6.658   6.777   5.029  0.9912 -2.1699  1.2255
   57MOL   H63443306   6.599   6.811   5.240  0.6311  0.6365 -3.2383
   57MOL   H63543307   6.412   6.824   5.416  1.4119 -0.8031  2.5183
   57MOL   H63643308   6.368   6.665   5.357  1.3185 -0.8244  0.6212
   57MOL   H63743309   6.666   6.719   5.418  0.1183 -0.1020 -0.3223
   57MOL   H63843310   6.554   6.692   5.538 -1.5737 -2.6339 -0.7445
   57MOL   H63943311   6.594   6.503   5.316 -0.2497 -4.1470  0.3065
   57MOL   H64043312   6.489   6.479   5.459 -0.2314  0.4008 -1.7147
   57MOL   H64143313   6.712   6.499   5.591 -1.9129  0.5304  0.3543
   57MOL   H64243314   6.696   6.348   5.485  0.0923  0.2990  1.4867
   57MOL   H64343315   6.826   6.462   5.316  2.0361 -1.1748  0.2502
   57MOL   H64443316   6.853   6.591   5.429 -1.7577  0.6731  0.8538
   57MOL   H64543317   6.924   6.301   5.482 -0.8010  0.3682 -1.8350
   57MOL   H64643318   6.940   6.426   5.598  1.1443 -0.2055  0.2500
   57MOL   H64743319   7.142   6.491   5.499  1.7898 -1.9523  0.4633
   57MOL   C64843320   7.145   6.369   5.332  0.5810 -0.6674  0.4641
   57MOL   O64943321   7.084   6.288   5.270 -0.4422  0.0089  0.2290
   57MOL   C65043322   7.287   6.411   5.293  0.2902  0.1798 -0.4993
   57MOL   C65143323   7.336   6.362   5.161 -0.0388  0.3190 -0.3192
   57MOL   C65243324   7.271   6.450   5.044  0.0052 -0.7123 -0.2170
   57MOL   C65343325   7.348   6.443   4.912  0.2609  0.2958 -0.2974
   57MOL   C65443326   7.447   6.558   4.890 -0.5594  0.5042 -0.8220
   57MOL   O65543327   7.420   6.665   4.940  0.4017  0.1699 -0.5621
   57MOL   N65643328   7.551   6.525   4.812 -0.2514 -0.4137 -0.4402
   57MOL   C65743329   7.679   6.596   4.800 -0.3864 -0.0179 -0.2086
   57MOL   C65843330   0.064   6.557   4.922  0.0067 -0.2146 -0.9571
   57MOL   C65943331   0.078   6.404   4.942 -0.3563  1.2942  0.5976
   57MOL   C66043332   0.168   6.360   5.060  0.1094 -0.1308  0.1684
   57MOL   C66143333   0.200   6.209   5.063  0.2111 -0.2607  0.6015
   57MOL   C66243334   0.261   6.160   5.195 -0.1557  0.6105  0.4765
   57MOL   N66343335   0.388   6.228   5.228  0.3005 -0.4304  0.4215
   57MOL   H66443336   7.296   6.518   5.313  0.7660 -0.1492  1.0761
   57MOL   H66543337   7.358   6.361   5.359 -0.1783 -1.1836 -1.0043
   57MOL   H66643338   7.445   6.363   5.164 -0.0410  0.5608 -0.3289
   57MOL   H66743339   7.314   6.255   5.151  0.7887  0.1827 -0.7244
   57MOL   H66843340   7.262   6.555   5.073  0.8139 -0.9682  0.9768
   57MOL   H66943341   7.172   6.417   5.014 -0.8365  0.3244  1.3556
   57MOL   H67043342   7.276   6.446   4.830  0.4132  0.7522 -0.4128
   57MOL   H67143343   7.393   6.344   4.907 -1.6989 -0.7638  1.9802
   57MOL   H67243344   7.556   6.428   4.784  1.4018 -0.1657 -1.0737
   57MOL   H67343345   0.005   6.552   4.707 -1.8534 -3.0982  0.6219
   57MOL   H67443346   7.670   6.704   4.786  0.2251 -0.2422 -2.4985
   57MOL   H67543347   0.167   6.594   4.916  1.2028 -3.3111 -0.1568
   57MOL   H67643348   0.024   6.602   5.012  1.2413 -1.6388  0.3310
   57MOL   H67743349   0.120   6.351   4.857  0.4702  2.4270  0.2883
   57MOL   H67843350   7.689   6.356   4.955  0.4507 -0.0557  1.7820
   57MOL   H67943351   0.259   6.419   5.052 -1.6196  2.5681 -0.1368
   57MOL   H68043352   0.132   6.377   5.161 -1.3752 -1.4078 -0.1365
   57MOL   H68143353   0.109   6.153   5.045  0.1021  0.2302 -0.4087
   57MOL   H68243354   0.258   6.190   4.972  0.9711 -2.3070  1.4846
   57MOL   H68343355   0.283   6.054   5.180  1.4696  0.6383  2.3428
   57MOL   H68443356   0.192   6.179   5.277  1.0832 -2.0338  2.2175
   57MOL   H68543357   0.386   6.276   5.317  0.9636 -1.1335  0.8288
   57MOL   C68643358   0.512   6.202   5.184  0.1282 -0.1344 -0.0265
   57MOL   O68743359   0.533   6.103   5.112 -0.5782  0.0904 -0.2309
   57MOL   C68843360   0.626   6.290   5.235 -0.2533 -0.3326 -0.3715
   57MOL   C68943361   0.768   6.252   5.194  0.1228  0.0316  0.3083
   57MOL   C69043362   0.875   6.334   5.253 -0.6282 -0.2154  0.2071
   57MOL   C69143363   1.017   6.295   5.195 -0.0216  0.0279  0.0476
   57MOL   C69243364   1.051   6.405   5.098 -0.2619 -1.2399  0.2904
   57MOL   O69343365   1.099   6.512   5.148 -0.0945 -0.1001 -0.6953
   57MOL   N69443366   1.029   6.384   4.969 -0.0317 -0.0316  0.0304
   57MOL   C69543367   1.012   6.469   4.852  0.2676 -0.7747 -0.5258
   57MOL   C69643368   0.878   6.453   4.782 -0.3185  0.4106 -0.4435
   57MOL   C69743369   0.843   6.322   4.708 -0.0932 -0.3590  0.3251
   57MOL   C69843370   0.701   6.326   4.642 -0.1532 -0.3975 -0.9179
   57MOL   C69943371   0.591   6.339   4.754 -0.3082 -0.1192  0.5364
   57MOL   C70043372   0.453   6.302   4.702  0.0705 -0.4342  0.0026
   57MOL   N70143373   0.401   6.399   4.613 -0.2862  0.0994 -0.3599
   57MOL   H70243374   0.620   6.395   5.206 -2.4324  0.2136  1.9380
   57MOL   H70343375   0.618   6.301   5.343 -0.4897  0.5068 -0.4667
   57MOL   H70443376   0.781   6.145   5.211  2.4171  0.1741 -0.4308
   57MOL   H70543377   0.770   6.267   5.086 -2.1869  0.5155  0.2906
   57MOL   H70643378   0.872   6.324   5.361 -0.3021 -1.1330  0.1357
   57MOL   H70743379   0.863   6.442   5.248  0.1874 -0.1492 -0.7618
   57MOL   H70843380   1.014   6.197   5.147  2.8438  1.4817 -3.3154
   57MOL   H70943381   1.087   6.273   5.276 -0.0096 -2.0621 -0.4995
   57MOL   H71043382   0.997   6.295   4.934  0.2755 -0.0371 -0.2396
   57MOL   H71143383   1.035   6.570   4.884 -0.8646 -0.4629 -0.6903
   57MOL   H71243384   1.097   6.452   4.785  1.3444  1.3369  0.2856
   57MOL   H71343385   0.800   6.461   4.858  0.0972 -0.4991  0.0881
   57MOL   H71443386   0.863   6.530   4.707  0.4142  2.4870  1.4681
   57MOL   H71543387   0.857   6.233   4.769  2.6107 -0.3706 -0.2401
   57MOL   H71643388   0.906   6.312   4.620  2.7332 -0.6661  2.3301
   57MOL   H71743389   0.694   6.409   4.571 -0.5677 -0.2731 -0.7370
   57MOL   H71843390   0.685   6.235   4.584 -1.0211 -0.4445 -0.6201
   57MOL   H71943391   0.603   6.268   4.836 -2.6999 -2.2385 -0.8585
   57MOL   H72043392   0.598   6.437   4.800 -2.1060 -0.4868  1.6739
   57MOL   H72143393   0.383   6.288   4.784  0.3621  0.0928  0.3502
   57MOL   H72243394   0.466   6.210   4.646 -0.2843  0.3808 -1.4630
   57MOL   H72343395   0.374   6.364   4.521 -2.1762 -1.1556  0.6396
   57MOL   C72443396   0.391   6.526   4.635 -0.2010  0.7634  0.2467
   57MOL   O72543397   0.420   6.581   4.740 -0.1877 -0.0390 -0.1498
   57MOL   C72643398   0.356   6.618   4.523 -0.1553  0.5032  0.1424
   57MOL   C72743399   0.382   6.776   4.536  0.5743 -0.1729 -0.2976
   57MOL   C72843400   0.367   6.866   4.409 -0.0915  0.6336 -0.9594
   57MOL   C72943401   0.487   6.844   4.319  0.1710  0.0465  0.0065
   57MOL   C73043402   0.619   6.903   4.360 -1.1063 -0.2234  0.3575
   57MOL   O73143403   0.624   7.027   4.358 -0.0061  0.0253  0.3378
   57MOL   N73243404   0.721   6.815   4.393  0.7171 -1.0749 -0.7096
   57MOL   C73343405   0.856   6.857   4.429  0.3084  0.2537  0.3477
   57MOL   C73443406   0.960   6.739   4.401  0.2905 -0.5224  0.4719
   57MOL   C73543407   0.982   6.718   4.252 -0.0853  0.0847  0.5930
   57MOL   C73643408   1.043   6.578   4.230  0.3946 -0.1699  0.0736
   57MOL   C73743409   1.093   6.570   4.081  0.0867  0.1120 -0.5374
   57MOL   C73843410   1.134   6.428   4.042 -0.1641 -0.1361  0.5057
   57MOL   N73943411   1.186   6.420   3.909  0.3089 -0.0850  0.0835
   57MOL   H74043412   0.416   6.586   4.438 -1.8547  1.0230 -1.2955
   57MOL   H74143413   0.253   6.604   4.487 -0.4885  1.5465  0.6624
   57MOL   H74243414   0.305   6.807   4.606  1.1540 -0.2517  0.3849
   57MOL   H74343415   0.472   6.797   4.594 -0.5130  1.5017  0.8106
   57MOL   H74443416   0.354   6.972   4.426  1.7881  0.7898 -0.4004
   57MOL   H74543417   0.279   6.822   4.362  0.8558 -3.5750  0.9349
   57MOL   H74643418   0.473   6.877   4.217 -0.9847 -1.7469 -0.4321
   57MOL   H74743419   0.500   6.736   4.314  1.0057  0.2111 -1.7318
   57MOL   H74843420   0.696   6.718   4.392  0.6800 -1.1561  2.3817
   57MOL   H74943421   0.895   6.939   4.369 -0.5636 -1.5430 -2.7770
   57MOL   H75043422   0.858   6.900   4.530  1.8298  0.4070  0.2649
   57MOL   H75143423   1.061   6.758   4.438 -0.6376  0.7419  2.4436
   57MOL   H75243424   0.931   6.647   4.451  2.5403 -1.6284 -0.2191
   57MOL   H75343425   1.055   6.793   4.223 -0.6444  1.1922  1.9951
   57MOL   H75443426   0.886   6.738   4.203 -0.4123 -0.0189  1.1823
   57MOL   H75543427   1.127   6.573   4.300 -0.8387  1.6860  1.7221
   57MOL   H75643428   0.979   6.492   4.247 -0.7773  0.1208 -2.5582
   57MOL   H75743429   1.005   6.589   4.020 -0.5477  0.4036  0.4528
   57MOL   H75843430   1.166   6.645   4.050  0.3200 -0.1181 -0.5510
   57MOL   H75943431   1.052   6.358   4.059  0.5061 -1.6476 -2.2182
   57MOL   H76043432   1.215   6.389   4.103  1.2522  0.8440 -0.7260
   57MOL   H76143433   1.202   6.322   3.891  0.0760  0.0487 -0.8346
   57MOL   H76243434   1.109   6.448   3.851 -1.1103  1.7062  2.7170
   58MOL     C143435   1.019   7.234   5.082 -1.2825  0.2329 -0.1518
   58MOL     O243436   0.960   7.169   5.000  0.8966 -0.4738  0.3186
   58MOL     C343437   0.971   7.226   5.229 -0.1677  0.0225  0.0503
   58MOL     C443438   0.842   7.293   5.243 -0.1835  0.9269 -0.8403
   58MOL     C543439   0.715   7.206   5.204 -0.7322  0.0406  0.3548
   58MOL     C643440   0.587   7.283   5.236  0.0596  0.1307 -0.2697
   58MOL     C743441   0.534   7.233   5.366 -0.4192  0.7283 -0.0870
   58MOL     O843442   0.594   7.266   5.468 -0.3576 -0.0750 -0.6946
   58MOL     N943443   0.418   7.167   5.357 -0.4708  0.5287 -0.4530
   58MOL    C1043444   0.362   7.103   5.472 -0.2509  0.0454 -0.4559
   58MOL    C1143445   0.438   6.969   5.493  0.1011 -0.7100  0.1713
   58MOL    C1243446   0.346   6.873   5.566  0.1688  0.3636  0.0987
   58MOL    C1343447   0.330   6.914   5.710  0.1840 -0.3795 -0.4072
   58MOL    C1443448   0.258   6.809   5.795 -0.0583 -0.8970 -0.1583
   58MOL    C1543449   0.220   6.865   5.935  0.0865 -1.0336 -0.1510
   58MOL    N1643450   0.335   6.859   6.021  0.1583 -0.1887 -0.4082
   58MOL    H1743451   0.967   7.123   5.263 -1.1415  0.2585  0.6697
   58MOL    H1843452   1.052   7.270   5.288  0.0491  1.0083 -0.9555
   58MOL    H1943453   0.842   7.317   5.350  1.1124  2.9538 -1.2691
   58MOL    H2043454   0.844   7.388   5.190 -0.3800  2.1107  1.1955
   58MOL    H2143455   0.712   7.104   5.244 -2.4411 -0.2158 -0.3638
   58MOL    H2243456   0.728   7.189   5.097  2.7519 -0.1974  0.7547
   58MOL    H2343457   0.519   7.262   5.153  1.1436  0.1451 -1.1785
   58MOL    H2443458   0.595   7.391   5.246 -2.2158  0.2287  0.7267
   58MOL    H2543459   0.381   7.137   5.268  0.9848 -1.0135 -0.5535
   58MOL    H2643460   0.371   7.175   5.553 -0.2012  0.5908 -0.9416
   58MOL    H2743461   0.256   7.088   5.450  0.2253  0.4579 -3.2541
   58MOL    H2843462   0.474   6.926   5.399 -0.1601 -0.3794 -0.0811
   58MOL    H2943463   0.528   6.990   5.550  1.3708  0.6102 -2.1998
   58MOL    H3043464   0.382   6.772   5.547 -1.1844 -0.0105 -0.5591
   58MOL    H3143465   0.246   6.870   5.522  0.3765  0.4528 -0.3854
   58MOL    H3243466   0.426   6.926   5.761 -0.6672 -1.6144  1.5301
   58MOL    H3343467   0.285   7.013   5.716  0.4677 -0.3145  0.6336
   58MOL    H3443468   0.170   6.780   5.738 -0.8769  0.6697  0.2681
   58MOL    H3543469   0.319   6.718   5.795 -0.4348 -1.1497 -0.1231
   58MOL    H3643470   0.142   6.803   5.980 -0.2834 -0.1186  0.4876
   58MOL    H3743471   0.179   6.965   5.922  0.7057 -0.7516  0.0308
   58MOL    H3843472   0.417   6.821   5.975  1.1102 -0.2869  1.3220
   58MOL    H3943473   1.106   7.297   5.063 -1.1128  0.9681  2.7950
   58MOL    C4043474   0.325   6.860   6.157  0.2305 -0.2981  0.2913
   58MOL    O4143475   0.221   6.883   6.215  0.2994  0.1797 -0.9081
   58MOL    C4243476   0.450   6.823   6.235  0.3491  0.2266  0.1141
   58MOL    C4343477   0.430   6.727   6.363 -0.3122 -0.7454  0.1133
   58MOL    C4443478   0.371   6.587   6.338  0.2986  0.0765  0.6231
   58MOL    C4543479   0.476   6.488   6.303 -0.4104  0.4128 -0.0003
   58MOL    C4643480   0.557   6.425   6.424 -0.2843 -0.0628  0.1287
   58MOL    O4743481   0.504   6.431   6.538  0.0410 -0.4109  0.0523
   58MOL    N4843482   0.680   6.369   6.393 -0.6542  0.3828  0.3515
   58MOL    C4943483   0.767   6.317   6.494 -0.1200 -0.1770  0.2960
   58MOL    C5043484   0.840   6.419   6.582  0.1105  0.4458  0.2918
   58MOL    C5143485   0.941   6.341   6.672 -0.1299 -0.2614 -0.5028
   58MOL    C5243486   1.038   6.431   6.740  0.2062 -0.3428 -1.1945
   58MOL    C5343487   0.981   6.507   6.870  0.8695  0.2312 -0.2001
   58MOL    C5443488   1.017   6.448   7.010  0.7297  0.2617  0.0248
   58MOL    N5543489   0.975   6.307   7.014  0.5785  0.0220 -0.1988
   58MOL    H5643490   0.515   6.773   6.163 -1.1808 -1.9342  0.1813
   58MOL    H5743491   0.493   6.918   6.267 -0.6347  0.7350 -0.0337
   58MOL    H5843492   0.524   6.720   6.418  0.5227  0.7604 -1.0646
   58MOL    H5943493   0.360   6.783   6.424  1.1770 -1.1334  2.2294
   58MOL    H6043494   0.298   6.601   6.258 -2.0672 -2.0164  2.3349
   58MOL    H6143495   0.321   6.562   6.431  0.8152  0.6199  1.0517
   58MOL    H6243496   0.544   6.526   6.227  1.6676 -0.7217  1.2102
   58MOL    H6343497   0.431   6.399   6.261 -0.6284  1.1631 -1.3558
   58MOL    H6443498   0.710   6.357   6.298 -1.8983  2.2287 -0.2974
   58MOL    H6543499   0.702   6.256   6.556 -0.6194 -0.6161 -0.6652
   58MOL    H6643500   0.848   6.259   6.450  0.3373 -0.1732  1.1020
   58MOL    H6743501   0.905   6.482   6.521  2.0492 -0.9163  0.9015
   58MOL    H6843502   0.777   6.498   6.624  0.5434 -0.4131  2.6570
   58MOL    H6943503   0.995   6.268   6.612  0.5937  0.5633 -0.8529
   58MOL    H7043504   0.890   6.279   6.746 -0.7124  1.0820  0.2485
   58MOL    H7143505   1.124   6.369   6.763  1.9102  1.4419 -2.5659
   58MOL    H7243506   1.062   6.510   6.669  0.3674  1.0716  0.3727
   58MOL    H7343507   1.029   6.605   6.871  0.5929  0.3703 -0.2545
   58MOL    H7443508   0.872   6.518   6.870  0.6911 -0.9993  3.4116
   58MOL    H7543509   0.975   6.513   7.086  0.0789  0.6276 -0.6482
   58MOL    H7643510   1.123   6.449   7.038  1.1698 -1.6214 -1.4735
   58MOL    H7743511   0.877   6.281   7.013  1.2156 -2.5490  0.5874
   58MOL    C7843512   1.046   6.196   7.004 -0.0460  0.7750 -0.4006
   58MOL    O7943513   1.169   6.202   7.002 -0.5881 -0.0083  0.1459
   58MOL    C8043514   0.976   6.060   6.996  0.1045  0.6220  0.5020
   58MOL    C8143515   1.068   5.952   6.941 -0.0935 -0.2384  0.4082
   58MOL    C8243516   1.109   5.974   6.804 -0.3359 -0.1949 -0.3390
   58MOL    C8343517   1.006   5.926   6.696  0.4852 -0.8296  0.3872
   58MOL    C8443518   1.056   5.944   6.556 -0.4055 -0.0888  0.9763
   58MOL    O8543519   1.054   6.050   6.499 -0.4025  0.1652 -0.2117
   58MOL    N8643520   1.114   5.838   6.493 -0.2165 -0.1654  0.0881
   58MOL    C8743521   1.163   5.842   6.359  0.2250 -0.1721  0.2980
   58MOL    C8843522   1.044   5.814   6.266 -0.6682  0.2922  0.8233
   58MOL    C8943523   1.086   5.821   6.117 -0.1114  0.3317 -0.3838
   58MOL    C9043524   0.979   5.881   6.029  0.9011  0.6856  0.7115
   58MOL    C9143525   0.873   5.776   5.990  0.9035  0.1402 -0.5879
   58MOL    C9243526   0.770   5.834   5.891 -0.1980  0.1451 -0.1135
   58MOL    N9343527   0.661   5.744   5.859  0.1828  0.8331 -0.1598
   58MOL    H9443528   0.944   6.031   7.096  0.3537  2.4314  1.1389
   58MOL    H9543529   0.881   6.058   6.942  1.9797  0.9618 -2.9739
   58MOL    H9643530   1.155   5.950   7.006  0.0859 -0.0358  0.1756
   58MOL    H9743531   1.022   5.854   6.955 -1.4150  0.2126 -0.7338
   58MOL    H9843532   1.204   5.923   6.787 -0.9787 -1.0126 -1.5977
   58MOL    H9943533   1.128   6.078   6.776 -0.7656  0.2466  0.9789
   58MOL   H10043534   0.918   5.989   6.706  1.4794  0.9868 -1.7802
   58MOL   H10143535   0.984   5.820   6.703 -0.3347 -0.7041 -0.2651
   58MOL   H10243536   1.116   5.752   6.545 -0.4397 -0.8666 -1.0433
   58MOL   H10343537   1.218   5.935   6.343  1.9268 -1.1530  0.2164
   58MOL   H10443538   1.222   5.750   6.366  0.2627 -0.0993  0.9594
   58MOL   H10543539   0.993   5.719   6.283  0.4266 -0.1691  1.5651
   58MOL   H10643540   0.969   5.888   6.294 -3.4342 -0.8100 -3.2382
   58MOL   H10743541   1.117   5.719   6.097 -0.0707  0.1162  0.7223
   58MOL   H10843542   1.180   5.875   6.119 -0.1129  0.3015  2.0410
   58MOL   H10943543   0.929   5.963   6.081  0.9370  1.7592 -0.9205
   58MOL   H11043544   1.020   5.921   5.937  1.4829  2.1917  1.6032
   58MOL   H11143545   0.919   5.689   5.944  1.6248  0.7106 -0.9677
   58MOL   H11243546   0.831   5.739   6.083  2.4374 -4.2276 -1.5217
   58MOL   H11343547   0.818   5.855   5.795 -0.4923  2.5484  0.2489
   58MOL   H11443548   0.740   5.930   5.931  0.6026  0.9009 -1.2972
   58MOL   H11543549   0.688   5.649   5.839 -0.0016 -0.6708  5.7716
   58MOL   C11643550   0.531   5.762   5.870 -0.6011 -0.7946  0.2124
   58MOL   O11743551   0.495   5.874   5.917  0.0740  0.1211 -0.2346
   58MOL   C11843552   0.440   5.632   5.865 -0.4477 -0.1759 -0.3499
   58MOL   C11943553   0.489   5.527   5.755 -0.0343 -0.4221  0.1676
   58MOL   C12043554   0.517   5.585   5.611  1.1319 -0.6612 -0.0401
   58MOL   C12143555   0.606   5.493   5.522 -0.6269  0.0631 -0.2439
   58MOL   C12243556   0.754   5.487   5.564  0.0428  0.0850 -0.6580
   58MOL   O12343557   0.795   5.560   5.655  0.6314 -0.0166 -0.1119
   58MOL   N12443558   0.833   5.397   5.503 -0.2680  0.0073  0.0345
   58MOL   C12543559   0.979   5.397   5.506  0.3976 -0.7057  0.3905
   58MOL   C12643560   1.044   5.383   5.364  0.1860 -0.0853  0.0911
   58MOL   C12743561   1.194   5.370   5.360  0.1654  0.4252  0.3132
   58MOL   C12843562   1.270   5.436   5.238  0.3804  0.4490 -0.1608
   58MOL   C12943563   1.412   5.384   5.229 -0.4281  0.3974  0.4460
   58MOL   C13043564   1.483   5.439   5.112 -0.1302  0.5474  0.0922
   58MOL   N13143565   1.487   5.588   5.117 -0.1041 -0.1701  0.0539
   58MOL   H13243566   0.428   5.586   5.963 -1.2670 -0.8888 -0.7822
   58MOL   H13343567   0.340   5.661   5.835 -0.1332 -0.4611 -1.7224
   58MOL   H13443568   0.573   5.469   5.795  1.5117  2.0243  0.5788
   58MOL   H13543569   0.412   5.451   5.745 -1.8002  1.5632 -1.9019
   58MOL   H13643570   0.567   5.681   5.616  0.7860 -0.4694 -0.2878
   58MOL   H13743571   0.423   5.608   5.560  0.3706  0.9593  2.0418
   58MOL   H13843572   0.597   5.526   5.418  0.9519  0.6057 -0.2218
   58MOL   H13943573   0.566   5.392   5.511 -0.5454 -0.0675  0.6756
   58MOL   H14043574   0.801   5.344   5.423 -0.8700 -2.0282  1.5837
   58MOL   H14143575   1.010   5.488   5.557 -0.0056 -0.4475  0.1808
   58MOL   H14243576   1.005   5.315   5.573  0.3808 -0.0536  1.2174
   58MOL   H14343577   0.988   5.305   5.312 -2.6904  1.8048  0.2218
   58MOL   H14443578   1.012   5.469   5.305  0.8821 -0.5103 -0.9115
   58MOL   H14543579   1.207   5.262   5.360  0.8944  0.4281 -3.7191
   58MOL   H14643580   1.237   5.414   5.450 -1.1644  0.7738  0.7870
   58MOL   H14743581   1.213   5.413   5.148  1.5571 -2.4310 -0.2138
   58MOL   H14843582   1.269   5.545   5.238 -0.0659  0.4468  0.2841
   58MOL   H14943583   1.467   5.409   5.320 -1.2885  1.0154  0.8050
   58MOL   H15043584   1.414   5.276   5.216  0.4263  0.5478 -0.7465
   58MOL   H15143585   1.445   5.416   5.012  0.8061  1.1084 -0.4058
   58MOL   H15243586   1.585   5.401   5.118 -1.4030 -2.7131  1.8122
   58MOL   H15343587   1.452   5.634   5.199  0.7412 -0.3649  0.5275
   58MOL   C15443588   1.512   5.664   5.011  0.7127 -0.1618 -0.0431
   58MOL   O15543589   1.541   5.617   4.898 -0.1195  0.0365  0.0485
   58MOL   C15643590   1.510   5.811   5.031  0.3983 -1.0056 -0.1494
   58MOL   C15743591   1.403   5.871   4.943  0.2488  0.1921 -0.1937
   58MOL   C15843592   1.258   5.871   4.996 -0.6526  0.0364 -0.1212
   58MOL   C15943593   1.162   5.888   4.877 -0.4515  0.0192 -0.3548
   58MOL   C16043594   1.156   6.022   4.805 -0.0053 -0.1929 -0.0982
   58MOL   O16143595   1.075   6.109   4.849 -0.8528 -0.1907  0.3464
   58MOL   N16243596   1.229   6.038   4.699 -0.0752  0.1869 -0.0448
   58MOL   C16343597   1.223   6.159   4.607 -0.2458  0.0530 -0.0595
   58MOL   C16443598   1.363   6.181   4.536 -0.0683 -0.0065 -0.7930
   58MOL   C16543599   1.483   6.147   4.623  0.2436  0.2847 -0.0266
   58MOL   C16643600   1.554   6.012   4.609 -0.2099  0.4484  0.2663
   58MOL   C16743601   1.680   5.993   4.688 -0.6958 -0.3450 -0.4710
   58MOL   C16843602   1.720   5.852   4.710 -0.0136 -0.2891  0.1199
   58MOL   N16943603   1.834   5.845   4.810 -0.7789  0.2326 -0.2733
   58MOL   H17043604   1.482   5.843   5.131 -0.9347  0.1121 -0.8632
   58MOL   H17143605   1.607   5.857   5.014 -0.0380  0.7913  1.9499
   58MOL   H17243606   1.438   5.974   4.929  0.7887 -0.1454 -1.2968
   58MOL   H17343607   1.409   5.825   4.845  1.3765 -0.7648  0.3267
   58MOL   H17443608   1.248   5.932   5.086  0.6059 -0.4769  0.3744
   58MOL   H17543609   1.232   5.775   5.041  0.9851 -1.6359 -2.6180
   58MOL   H17643610   1.059   5.865   4.905  0.4047 -2.2153  1.0959
   58MOL   H17743611   1.190   5.829   4.790 -0.4231 -0.2144 -0.1873
   58MOL   H17843612   1.274   5.958   4.658 -1.1875  0.0246 -0.9873
   58MOL   H17943613   1.152   6.148   4.526  0.4672  0.3479 -0.7313
   58MOL   H18043614   1.194   6.243   4.671  0.7738 -2.1621  3.4735
   58MOL   H18143615   1.369   6.117   4.448  1.2586  0.9840 -1.4328
   58MOL   H18243616   1.370   6.282   4.496  0.2725 -0.7966 -2.7730
   58MOL   H18343617   1.465   6.174   4.727 -1.7670  0.8329 -0.4957
   58MOL   H18443618   1.553   6.221   4.585 -0.4041  0.0172 -1.7837
   58MOL   H18543619   1.478   5.938   4.637 -0.5846  0.8901  0.4198
   58MOL   H18643620   1.579   5.995   4.504 -0.4235  0.9193  0.1380
   58MOL   H18743621   1.762   6.059   4.660 -1.5226 -0.0890 -2.4110
   58MOL   H18843622   1.655   6.026   4.789 -0.3234  0.7057 -0.7113
   58MOL   H18943623   1.741   5.794   4.620  4.2117  0.3037  0.6096
   58MOL   H19043624   1.640   5.798   4.761 -0.6439  0.4084 -0.1246
   58MOL   H19143625   1.812   5.823   4.907 -0.6590 -0.0720 -0.3146
   58MOL   C19243626   1.963   5.860   4.777 -0.0026 -0.5601 -0.2176
   58MOL   O19343627   1.994   5.871   4.659  0.3226  0.2607 -0.3847
   58MOL   C19443628   2.062   5.864   4.891 -0.6118 -0.8435 -0.6532
   58MOL   C19543629   2.200   5.911   4.845 -0.1460  0.3730 -0.2285
   58MOL   C19643630   2.293   5.819   4.768 -0.1274  0.2070 -0.1256
   58MOL   C19743631   2.437   5.861   4.767  0.0437 -0.1292  0.2438
   58MOL   C19843632   2.509   5.787   4.654  0.1896 -0.7213 -0.2325
   58MOL   O19943633   2.483   5.666   4.640  0.8076  0.1226  0.3419
   58MOL   N20043634   2.596   5.857   4.572 -0.4538 -0.1388  0.1940
   58MOL   C20143635   2.654   5.806   4.446 -0.4211 -0.9292 -0.4245
   58MOL   C20243636   2.795   5.773   4.477 -0.1182 -0.1563  0.0148
   58MOL   C20343637   2.879   5.894   4.538 -0.2425  0.3750  0.4396
   58MOL   C20443638   2.871   6.024   4.454 -0.0526  0.5533  0.2190
   58MOL   C20543639   2.987   6.108   4.503  0.0992  0.0490  0.7834
   58MOL   C20643640   2.978   6.257   4.463 -0.0618 -0.4144  0.1462
   58MOL   N20743641   2.992   6.264   4.319 -0.1385 -0.5277  0.2565
   58MOL   H20843642   2.026   5.923   4.975 -1.8289 -3.6395  0.8650
   58MOL   H20943643   2.068   5.766   4.939 -0.5503 -0.1581  0.7526
   58MOL   H21043644   2.188   6.001   4.785  0.4336  0.3100 -0.4441
   58MOL   H21143645   2.257   5.932   4.936 -1.9349 -0.5002  1.1410
   58MOL   H21243646   2.246   5.800   4.671 -0.3526  0.2617 -0.0271
   58MOL   H21343647   2.290   5.724   4.820  1.1359 -0.2407 -0.8434
   58MOL   H21443648   2.465   5.844   4.871  0.1954  0.1469  0.2489
   58MOL   H21543649   2.436   5.968   4.745 -2.2986 -0.8171 -3.3795
   58MOL   H21643650   2.604   5.956   4.590 -0.2509 -0.2797  0.8753
   58MOL   H21743651   2.597   5.721   4.410 -2.0131 -0.2689  0.4786
   58MOL   H21843652   2.647   5.885   4.371  1.5470 -1.5274 -1.2664
   58MOL   H21943653   2.799   5.698   4.555  0.6660  2.1573  2.2863
   58MOL   H22043654   2.838   5.720   4.392 -3.0017 -2.2586 -0.1750
   58MOL   H22143655   2.978   5.851   4.532 -0.3018  0.5568 -3.6295
   58MOL   H22243656   2.854   5.912   4.642 -3.2063  0.1101 -0.1628
   58MOL   H22343657   2.878   5.997   4.349  2.4025 -0.5012  0.6019
   58MOL   H22443658   2.780   6.074   4.486  0.0114 -0.0547  1.3693
   58MOL   H22543659   2.978   6.126   4.610  0.5175  2.7309  0.3997
   58MOL   H22643660   3.083   6.059   4.487 -0.8371 -1.7749  0.6195
   58MOL   H22743661   3.039   6.314   4.533 -2.3566  2.5881 -0.2281
   58MOL   H22843662   2.878   6.296   4.481 -0.5503 -2.1259  1.2220
   58MOL   H22943663   2.957   6.192   4.258 -0.0303 -2.4703  2.4210
   58MOL   C23043664   3.050   6.370   4.256  0.6437  0.8563 -0.2085
   58MOL   O23143665   3.094   6.468   4.318  0.1341 -0.2682  0.4377
   58MOL   C23243666   3.041   6.369   4.102  0.0989 -0.1930  0.6843
   58MOL   C23343667   2.990   6.498   4.049  0.4260  0.3163 -0.2863
   58MOL   C23443668   3.005   6.498   3.896  0.8638 -0.6257  0.0535
   58MOL   C23543669   2.970   6.635   3.838  0.5419 -0.2070  0.9069
   58MOL   C23643670   2.816   6.659   3.828 -0.4319 -0.3062  0.5677
   58MOL   O23743671   2.737   6.569   3.846  0.1542 -0.2590  0.1514
   58MOL   N23843672   2.772   6.776   3.784 -0.4006 -0.1279 -0.5098
   58MOL   C23943673   2.629   6.815   3.769 -0.3477 -0.3203 -0.2824
   58MOL   C24043674   2.619   6.969   3.774 -0.8966 -0.2122 -0.2555
   58MOL   C24143675   2.477   7.022   3.765 -0.2952 -0.4373 -0.2025
   58MOL   C24243676   2.467   7.172   3.760 -0.4963  0.6877 -0.5310
   58MOL   C24343677   2.467   7.238   3.616 -0.2142 -0.8727  0.1923
   58MOL   C24443678   2.475   7.387   3.617 -0.2262 -0.1810 -0.4879
   58MOL   N24543679   2.482   7.430   3.478  0.2963 -0.1488  0.4305
   58MOL   H24643680   3.146   6.352   4.077  0.8348  3.2541  1.1279
   58MOL   H24743681   2.970   6.295   4.066 -2.7238  3.2591 -1.1318
   58MOL   H24843682   2.885   6.497   4.076  0.5973  0.7217  0.3958
   58MOL   H24943683   3.053   6.577   4.090  1.6548 -0.6639 -0.2623
   58MOL   H25043684   2.936   6.424   3.856 -0.2286  0.1064  0.5548
   58MOL   H25143685   3.104   6.470   3.861  0.4507 -1.4390 -0.4942
   58MOL   H25243686   3.009   6.637   3.736  0.3967 -2.6569  0.7769
   58MOL   H25343687   3.027   6.714   3.887 -1.0938 -0.4202  3.1964
   58MOL   H25443688   2.835   6.830   3.726  0.0705 -0.5823 -0.4284
   58MOL   H25543689   2.597   6.773   3.674  0.2140 -0.6398 -0.3315
   58MOL   H25643690   2.567   6.767   3.845 -0.5344 -0.4992 -0.5461
   58MOL   H25743691   2.667   7.009   3.864 -0.6097  0.7796 -0.8386
   58MOL   H25843692   2.681   7.010   3.694  1.3016 -0.0531  1.4592
   58MOL   H25943693   2.424   6.990   3.855 -1.0736 -2.7817 -1.4425
   58MOL   H26043694   2.425   6.967   3.687 -1.6335  1.5603 -0.7675
   58MOL   H26143695   2.381   7.204   3.818 -2.0290 -2.6756 -0.8455
   58MOL   H26243696   2.554   7.210   3.814 -0.1789 -0.3862 -0.2830
   58MOL   H26343697   2.543   7.190   3.554  0.6389 -0.7525  1.1507
   58MOL   H26443698   2.365   7.232   3.576 -0.1745  1.4000 -0.3212
   58MOL   H26543699   2.564   7.417   3.673  0.2382  2.6713 -2.6367
   58MOL   H26643700   2.392   7.440   3.664 -0.9519 -1.8335  0.1665
   58MOL   H26743701   2.545   7.383   3.416 -0.4068  2.8927 -2.7370
   58MOL   C26843702   2.396   7.522   3.422 -0.3157 -0.0406  0.9883
   58MOL   O26943703   2.319   7.591   3.486  0.4029 -0.0608  0.2676
   58MOL   C27043704   2.421   7.540   3.273  0.5236  0.2132  0.4081
   58MOL   C27143705   2.331   7.646   3.212  0.6126 -0.4767  0.0233
   58MOL   C27243706   2.180   7.631   3.221  0.3689 -0.2031 -0.7021
   58MOL   C27343707   2.125   7.531   3.125  0.4898 -0.3633  0.6109
   58MOL   C27443708   1.978   7.537   3.110  0.0629 -0.1075 -0.1950
   58MOL   O27543709   1.901   7.592   3.192 -0.0402  0.4575 -0.0970
   58MOL   N27643710   1.918   7.479   3.003  0.4325  0.5230 -0.7806
   58MOL   C27743711   1.779   7.456   2.979 -1.1002  0.3052 -0.2420
   58MOL   C27843712   1.753   7.302   2.965  0.0851 -0.2718 -0.1716
   58MOL   C27943713   1.600   7.267   2.946  0.1677 -0.2126  0.0011
   58MOL   C28043714   1.512   7.290   3.072 -0.1901  0.6473  0.0892
   58MOL   C28143715   1.552   7.203   3.196 -0.3363  0.1089 -0.0649
   58MOL   C28243716   1.469   7.248   3.325 -0.9408  0.0284  0.1763
   58MOL   N28343717   1.537   7.358   3.397  0.3975  0.0563 -0.0912
   58MOL   H28443718   2.524   7.575   3.265  0.4278  1.1761  3.1589
   58MOL   H28543719   2.408   7.443   3.224 -0.6698  0.6012 -0.0883
   58MOL   H28643720   2.356   0.031   3.264  1.1377 -2.0312  2.6441
   58MOL   H28743721   2.362   7.658   3.108  2.7114  1.0466  0.7738
   58MOL   H28843722   2.136   0.020   3.198 -2.0422 -1.2817 -0.8445
   58MOL   H28943723   2.135   7.615   3.319 -1.2525 -2.8332 -1.8096
   58MOL   H29043724   2.153   7.429   3.152  0.3320 -0.8754 -1.0957
   58MOL   H29143725   2.160   7.553   3.025  2.4214 -1.5501  0.9985
   58MOL   H29243726   1.976   7.465   2.922  1.3309  1.6520 -0.3506
   58MOL   H29343727   1.714   7.499   3.055 -0.5358 -0.7914  0.8787
   58MOL   H29443728   1.750   7.500   2.884  1.0374  0.3075 -0.9102
   58MOL   H29543729   1.810   7.267   2.878  0.7401  1.4358 -0.4427
   58MOL   H29643730   1.800   7.248   3.047 -2.2784 -0.1087  1.3350
   58MOL   H29743731   1.585   7.162   2.920 -0.0567 -0.4834  1.1733
   58MOL   H29843732   1.566   7.322   2.859 -3.1633  1.6468  2.3508
   58MOL   H29943733   1.525   7.392   3.109  1.9286  0.5338 -0.3001
   58MOL   H30043734   1.406   7.284   3.047  0.0827 -0.1698 -0.8987
   58MOL   H30143735   1.544   7.097   3.169 -0.5351 -0.0123  0.4583
   58MOL   H30243736   1.659   7.211   3.214 -0.1986  1.2058 -1.3152
   58MOL   H30343737   1.445   7.173   3.401  3.2062  2.3272  4.0087
   58MOL   H30443738   1.368   7.281   3.303 -0.6574  1.0960  0.4601
   58MOL   H30543739   1.623   7.343   3.447 -0.3410  2.2078  1.9038
   58MOL   C30643740   1.498   7.485   3.415 -0.3936  0.2486  0.2679
   58MOL   O30743741   1.394   7.525   3.363 -0.1615 -0.0507 -0.5371
   58MOL   C30843742   1.598   7.574   3.500 -0.1255 -0.3495  0.3896
   58MOL   C30943743   1.531   7.620   3.632 -0.1311 -0.1973  0.0404
   58MOL   C31043744   1.522   7.520   3.747 -0.1859 -0.2872  0.5938
   58MOL   C31143745   1.664   7.504   3.800 -0.1001 -0.1503 -0.1430
   58MOL   C31243746   1.660   7.440   3.938 -0.7307  0.3277 -0.0979
   58MOL   O31343747   1.588   7.337   3.966 -0.0065 -0.4876  0.6216
   58MOL   N31443748   1.735   7.502   4.036 -0.1565  0.0077 -0.0948
   58MOL   C31543749   1.730   7.470   4.178  0.0797  0.2743 -0.8063
   58MOL   C31643750   1.799   7.334   4.193 -0.0054 -0.2103  0.6778
   58MOL   C31743751   1.797   7.288   4.341  0.2365 -0.0786 -0.5612
   58MOL   C31843752   1.882   7.166   4.369  0.8348 -0.2724  0.4913
   58MOL   C31943753   1.825   7.089   4.492 -0.1848  0.2113  0.6231
   58MOL   C32043754   1.885   7.115   4.623 -0.5470 -0.7269 -0.8269
   58MOL   N32143755   1.818   7.223   4.688 -0.2792  0.1499 -0.1440
   58MOL   H32243756   1.696   7.526   3.504 -0.4494 -1.2666 -1.9239
   58MOL   H32343757   1.628   7.656   3.435 -2.4936 -0.0339 -0.3211
   58MOL   H32443758   1.587   7.707   3.668 -0.7445  0.2729 -0.1386
   58MOL   H32543759   1.428   7.641   3.604 -0.3601  0.2160  1.1754
   58MOL   H32643760   1.464   7.430   3.724 -0.8569 -0.2598  2.1137
   58MOL   H32743761   1.467   7.573   3.825  0.8438  1.3302  0.2321
   58MOL   H32843762   1.712   7.600   3.815 -0.7865  0.1917 -0.1013
   58MOL   H32943763   1.723   7.442   3.732  1.5579  1.3124 -0.0690
   58MOL   H33043764   1.786   7.585   4.010  1.0910 -1.2501 -1.8169
   58MOL   H33143765   1.789   7.546   4.229  1.7713 -1.7201  0.2673
   58MOL   H33243766   1.626   7.467   4.211  0.3272 -1.6972 -0.1720
   58MOL   H33343767   1.752   7.260   4.127 -0.5299  0.1432  0.6543
   58MOL   H33443768   1.902   7.343   4.160 -0.4791 -0.4688 -0.9112
   58MOL   H33543769   1.694   7.265   4.371  0.7978  0.1445  1.5958
   58MOL   H33643770   1.831   7.364   4.411 -1.1593 -1.6083  1.8456
   58MOL   H33743771   1.883   7.101   4.281 -0.1277 -0.6557  0.7609
   58MOL   H33843772   1.983   7.200   4.395  0.5322 -0.8296  2.5276
   58MOL   H33943773   1.716   7.087   4.497 -0.2814  0.5523 -1.0931
   58MOL   H34043774   1.847   6.983   4.478 -0.9267  0.4606 -3.0063
   58MOL   H34143775   1.994   7.122   4.623 -0.4306 -1.6917  2.5416
   58MOL   H34243776   1.859   7.025   4.680 -1.7994  0.0047 -0.2287
   58MOL   H34343777   1.720   7.207   4.708 -0.6922 -0.4092 -2.5200
   58MOL   C34443778   1.887   7.323   4.743  0.3992  0.4635 -0.2377
   58MOL   O34543779   2.010   7.331   4.738 -0.0862 -0.5180 -0.2878
   58MOL   C34643780   1.804   7.430   4.812 -0.1183 -0.4901 -0.5255
   58MOL   C34743781   1.800   7.570   4.739 -0.0020 -0.1133  0.8984
   58MOL   C34843782   1.703   7.581   4.617  0.4342 -0.1028 -0.2711
   58MOL   C34943783   1.668   0.016   4.580  0.6983  0.2024  0.1783
   58MOL   C35043784   1.551   0.081   4.662  0.0460  0.3074  0.3827
   58MOL   O35143785   1.432   0.079   4.614  0.0953  0.7047  0.1095
   58MOL   N35243786   1.591   0.142   4.778 -1.3444  0.5821  1.1265
   58MOL   C35343787   1.501   0.229   4.841  0.5055 -0.1126  0.0993
   58MOL   C35443788   1.453   0.344   4.753  0.6652  0.1281 -0.3261
   58MOL   C35543789   1.347   0.434   4.816 -0.7235 -0.0365 -0.9176
   58MOL   C35643790   1.431   0.532   4.896  0.0967  0.3372 -0.7896
   58MOL   C35743791   1.351   0.619   4.991 -0.6205  0.3535  0.1270
   58MOL   C35843792   1.425   0.664   5.120 -0.1591 -0.0596 -0.5143
   58MOL   N35943793   1.492   0.558   5.183 -0.5670 -0.3504  0.0626
   58MOL   H36043794   1.702   7.397   4.827 -0.0973  1.6250  5.4989
   58MOL   H36143795   1.853   7.456   4.906  2.4576 -1.7791 -1.4689
   58MOL   H36243796   1.762   7.639   4.815  0.8518  1.0879  0.2470
   58MOL   H36343797   1.899   7.603   4.708 -1.1407  1.3369 -1.2966
   58MOL   H36443798   1.615   7.520   4.639  2.0281 -2.0296  0.8802
   58MOL   H36543799   1.746   7.536   4.528 -0.4231  0.4802 -0.9883
   58MOL   H36643800   1.638   0.005   4.475 -1.0914 -1.0697  0.7962
   58MOL   H36743801   1.749   0.088   4.586 -0.7316  2.2241 -3.1843
   58MOL   H36843802   1.686   0.144   4.810 -1.0164  0.7800  0.1564
   58MOL   H36943803   1.416   0.171   4.879  0.1994  0.2951  0.0389
   58MOL   H37043804   1.557   0.262   4.928  1.5551  0.1948 -0.6922
   58MOL   H37143805   1.543   0.401   4.732  2.1073 -1.4782  1.3351
   58MOL   H37243806   1.418   0.319   4.653 -1.7813  2.4491 -0.0876
   58MOL   H37343807   1.274   0.379   4.876 -0.5706  3.6136  2.8117
   58MOL   H37443808   1.288   0.490   4.745  0.5764 -0.1058 -2.0671
   58MOL   H37543809   1.502   0.469   4.950  0.6653  0.3000 -1.5646
   58MOL   H37643810   1.483   0.594   4.823  0.1446  0.6076 -0.5263
   58MOL   H37743811   1.318   0.713   4.947  3.0524  1.7996  0.3081
   58MOL   H37843812   1.257   0.570   5.018 -0.0287 -1.0453 -0.2742
   58MOL   H37943813   1.360   0.699   5.200 -0.7586  1.0138 -1.4432
   58MOL   H38043814   1.484   0.754   5.100 -1.3036  0.7982 -0.1414
   58MOL   H38143815   1.443   0.469   5.189 -1.2976  0.0918  0.5990
   58MOL   C38243816   1.610   0.558   5.245 -0.4466  0.5777  0.3304
   58MOL   O38343817   1.668   0.655   5.273  0.4462  0.0518 -0.4008
   58MOL   C38443818   1.657   0.418   5.295  0.0952  0.1103 -0.0790
   58MOL   C38543819   1.786   0.381   5.232 -0.1443  0.4649 -0.2211
   58MOL   C38643820   1.823   0.237   5.234 -0.3340  0.4757 -0.5245
   58MOL   C38743821   1.953   0.208   5.156 -0.0626  0.7449 -0.2306
   58MOL   C38843822   1.938   0.207   5.004 -0.4968 -0.6078 -0.0201
   58MOL   O38943823   1.894   0.105   4.951  0.3664 -0.1211 -0.4965
   58MOL   N39043824   1.966   0.321   4.941 -0.7952 -0.2464 -0.6216
   58MOL   C39143825   1.963   0.333   4.800 -0.0160 -0.1215  0.2609
   58MOL   C39243826   2.083   0.269   4.735 -0.0594  0.0346 -0.4029
   58MOL   C39343827   2.217   0.324   4.789  0.1503  0.0194 -1.1029
   58MOL   C39443828   2.343   0.287   4.703  0.5769  0.2061  0.0607
   58MOL   C39543829   2.343   0.356   4.572  1.1524 -0.3814  0.3016
   58MOL   C39643830   2.472   0.319   4.492  0.2766  0.6831 -0.2928
   58MOL   N39743831   2.483   0.403   4.374  0.0385 -0.2308  0.3681
   58MOL   H39843832   1.652   0.408   5.404 -0.4737 -1.7804 -0.2557
   58MOL   H39943833   1.586   0.345   5.253  2.0882 -1.5628 -0.6183
   58MOL   H40043834   1.796   0.421   5.132 -0.4709 -0.7404 -0.7457
   58MOL   H40143835   1.865   0.439   5.279  0.2813  0.9334 -1.4922
   58MOL   H40243836   1.741   0.184   5.185 -0.3481 -1.4835  1.5223
   58MOL   H40343837   1.825   0.202   5.337  0.3647 -0.8553 -0.9786
   58MOL   H40443838   1.996   0.113   5.186 -0.5144  1.1229  1.6548
   58MOL   H40543839   2.019   0.291   5.182  3.0088 -1.1686 -1.5975
   58MOL   H40643840   2.008   0.397   4.993 -0.2658  0.2540 -1.7729
   58MOL   H40743841   1.868   0.292   4.766 -0.0425 -0.4262  0.6943
   58MOL   H40843842   1.969   0.439   4.772  1.4923 -0.5429 -1.0507
   58MOL   H40943843   2.085   0.160   4.729 -0.4560  0.1656 -3.6404
   58MOL   H41043844   2.071   0.300   4.631 -5.0114  1.1330  0.3944
   58MOL   H41143845   2.230   0.279   4.887  1.0397  0.4555 -1.0176
   58MOL   H41243846   2.203   0.431   4.805 -1.6537 -0.4620  0.7605
   58MOL   H41343847   2.441   0.311   4.744  1.1634 -1.6452 -0.2222
   58MOL   H41443848   2.344   0.179   4.690  2.1040  0.4795 -2.5309
   58MOL   H41543849   2.255   0.330   4.514 -0.1590  0.3259  1.9174
   58MOL   H41643850   2.341   0.465   4.579  0.3701 -0.4834  2.0295
   58MOL   H41743851   2.460   0.215   4.462  2.4855  0.1240  0.6553
   58MOL   H41843852   2.561   0.328   4.555  1.4003 -2.8608 -1.2762
   58MOL   H41943853   2.425   0.366   4.300  2.6551  0.3801 -2.1123
   58MOL   C42043854   2.550   0.515   4.364  0.2488  0.4265 -0.3607
   58MOL   O42143855   2.636   0.546   4.448  0.0373 -0.1605  0.6417
   58MOL   C42243856   2.510   0.598   4.242 -0.2637 -0.1135 -0.1686
   58MOL   C42343857   2.620   0.665   4.151 -0.1567  0.8869 -0.0426
   58MOL   C42443858   2.651   0.813   4.174 -0.4346 -0.2977 -0.2132
   58MOL   C42543859   2.702   0.833   4.310 -0.2486 -0.3787  0.1602
   58MOL   C42643860   2.596   0.892   4.404  0.2720 -0.5928 -0.9256
   58MOL   O42743861   2.542   1.002   4.384  0.2988  0.0281 -0.1756
   58MOL   N42843862   2.572   0.813   4.510  0.9005  1.2499 -0.0219
   58MOL   C42943863   2.467   0.837   4.610 -0.9017 -0.1108  0.4708
   58MOL   C43043864   2.329   0.788   4.560  0.0480 -0.0709 -0.1548
   58MOL   C43143865   2.225   0.822   4.672  0.3196 -0.7152  0.0950
   58MOL   C43243866   2.070   0.831   4.629 -0.0269 -0.0003  0.0037
   58MOL   C43343867   2.012   0.701   4.573 -0.1730 -0.2464 -0.4696
   58MOL   C43443868   1.863   0.715   4.555  0.0779  0.3359  0.1387
   58MOL   N43543869   1.795   0.609   4.486 -0.1641  0.4126 -0.8088
   58MOL   H43643870   2.465   0.525   4.176  0.1366 -1.5587  1.1371
   58MOL   H43743871   2.425   0.660   4.271  0.5185  0.7349  0.3716
   58MOL   H43843872   2.714   0.611   4.147  0.6093  1.8173  3.2357
   58MOL   H43943873   2.580   0.664   4.050  0.8181 -0.0643 -0.4297
   58MOL   H44043874   2.565   0.870   4.139  0.8286  1.8303  0.0429
   58MOL   H44143875   2.738   0.832   4.111  1.0553 -1.5169  1.4261
   58MOL   H44243876   2.790   0.898   4.306  1.4517 -2.7297 -1.9788
   58MOL   H44343877   2.746   0.744   4.355 -1.6742 -0.7671  0.8219
   58MOL   H44443878   2.621   0.725   4.497  0.2759  0.8245  0.4538
   58MOL   H44543879   2.492   0.781   4.701  0.6994 -1.6732 -0.8909
   58MOL   H44643880   2.464   0.938   4.651  2.5887  0.0359  0.5307
   58MOL   H44743881   2.305   0.843   4.470  1.9312  2.1283  0.6432
   58MOL   H44843882   2.334   0.680   4.543  0.2416 -0.0581 -0.1800
   58MOL   H44943883   2.251   0.914   4.724  0.7362 -1.8497  1.9560
   58MOL   H45043884   2.230   0.748   4.752  0.8143 -1.0106 -0.2074
   58MOL   H45143885   1.999   0.855   4.708 -1.2104 -0.5271 -0.8957
   58MOL   H45243886   2.051   0.902   4.549 -0.8194 -0.7086 -0.4399
   58MOL   H45343887   2.065   0.688   4.479 -1.6173 -0.3049 -1.2946
   58MOL   H45443888   2.046   0.620   4.638  1.7724  0.2014 -0.9182
   58MOL   H45543889   1.842   0.801   4.491  0.2602  0.5296  0.3425
   58MOL   H45643890   1.819   0.727   4.653 -0.7266 -0.0027 -0.1752
   58MOL   H45743891   1.831   0.545   4.417 -0.0836  1.2171 -1.5187
   58MOL   C45843892   1.665   0.577   4.509 -0.0230 -0.3944 -1.1365
   58MOL   O45943893   1.595   0.631   4.590 -0.1193 -0.0858  0.1579
   58MOL   C46043894   1.611   0.465   4.420 -0.3458  0.2381  0.1186
   58MOL   C46143895   1.484   0.515   4.342  0.1772  0.2364 -0.2476
   58MOL   C46243896   1.507   0.643   4.261  0.2886  0.0797 -0.6728
   58MOL   C46343897   1.407   0.664   4.149  0.0445 -0.0929  0.9043
   58MOL   C46443898   1.384   0.808   4.105  0.5157 -1.0200  1.0216
   58MOL   O46543899   1.470   0.901   4.114  0.8326  1.1207  0.7791
   58MOL   N46643900   1.266   0.831   4.052  0.5072  0.6835 -0.4492
   58MOL   C46743901   1.210   0.963   4.022  0.4446 -0.0065  0.4587
   58MOL   C46843902   1.051   0.963   4.008  0.6557 -0.3087 -0.4747
   58MOL   C46943903   0.981   0.924   4.141 -0.4913  0.1284 -0.5614
   58MOL   C47043904   0.827   0.936   4.126 -0.5342  0.1616  0.3073
   58MOL   C47143905   0.754   0.897   4.249  0.2925  0.0338 -0.4462
   58MOL   C47243906   0.744   1.010   4.352 -0.0613  0.2281  0.3520
   58MOL   N47343907   0.680   0.970   4.475  0.3318 -0.4037  0.4983
   58MOL   H47443908   1.695   0.419   4.370 -0.1170  0.9599 -0.1628
   58MOL   H47543909   1.573   0.384   4.483  1.7569 -0.0874  1.0011
   58MOL   H47643910   1.457   0.429   4.280 -0.6740  0.8761 -0.7819
   58MOL   H47743911   1.397   0.534   4.405 -1.1511 -0.2058 -1.9143
   58MOL   H47843912   1.610   0.638   4.226  0.4310  0.8698 -0.3732
   58MOL   H47943913   1.504   0.726   4.332  0.3971  0.1639 -0.7657
   58MOL   H48043914   1.309   0.627   4.177 -1.8821  1.7668 -2.8862
   58MOL   H48143915   1.434   0.596   4.068 -0.9658  1.5285 -0.8510
   58MOL   H48243916   1.208   0.752   4.028 -0.7589  1.2720  0.5900
   58MOL   H48343917   1.249   1.028   4.100  0.4608  0.3552  0.1519
   58MOL   H48443918   1.254   0.998   3.929  0.4865 -1.8566 -0.2463
   58MOL   H48543919   1.027   1.064   3.974 -1.7311 -0.2357  1.2840
   58MOL   H48643920   1.031   0.892   3.928  0.6572 -0.6677 -0.1541
   58MOL   H48743921   1.018   0.982   4.226  0.1772 -1.4008  0.2178
   58MOL   H48843922   1.014   0.825   4.171 -0.8884 -0.0622 -0.7584
   58MOL   H48943923   0.799   1.033   4.087 -0.9954  0.3035  0.9760
   58MOL   H49043924   0.788   0.874   4.045  1.3569  1.0921 -1.3411
   58MOL   H49143925   0.655   0.863   4.219 -0.2818  0.8383  0.5090
   58MOL   H49243926   0.796   0.803   4.284 -0.6115 -0.0629  0.3930
   58MOL   H49343927   0.694   1.094   4.306  0.9186  0.5388 -0.1725
   58MOL   H49443928   0.845   1.042   4.380  0.8056 -1.7789 -0.3042
   58MOL   H49543929   0.687   0.873   4.502  1.8923 -0.6925 -0.9101
   58MOL   C49643930   0.624   1.056   4.561 -0.2992 -0.0730 -0.2464
   58MOL   O49743931   0.617   1.180   4.533 -0.7875  0.2038 -0.0917
   58MOL   C49843932   0.564   0.991   4.689 -0.4575 -0.0668 -0.3275
   58MOL   C49943933   0.416   0.962   4.669 -0.7229  0.6331  0.4783
   58MOL   C50043934   0.376   0.844   4.570  0.0002  0.5120  0.0199
   58MOL   C50143935   0.407   0.710   4.639 -0.5601  0.0474 -0.2169
   58MOL   C50243936   0.556   0.657   4.644  0.4565 -0.0711  0.5154
   58MOL   O50343937   0.643   0.693   4.563 -0.0111  0.1595  0.1830
   58MOL   N50443938   0.577   0.580   4.750  0.3800  1.0439  0.3778
   58MOL   C50543939   0.705   0.524   4.799  0.2336 -0.4157 -0.5276
   58MOL   C50643940   0.750   0.407   4.702  0.5761  0.2390 -0.0701
   58MOL   C50743941   0.885   0.337   4.732 -0.6317  0.2198 -0.5991
   58MOL   C50843942   0.924   0.232   4.625  0.1026 -0.4887  0.1074
   58MOL   C50943943   1.067   0.174   4.653  0.2205 -0.0460 -1.0689
   58MOL   C51043944   1.058   0.068   4.767  0.7192  0.0158  1.6362
   58MOL   N51143945   1.177   7.700   4.767  0.2635  0.5016  0.0905
   58MOL   H51243946   0.612   0.898   4.719  0.2116 -0.5710 -2.8665
   58MOL   H51343947   0.577   1.065   4.768  0.8313 -0.2420 -0.3644
   58MOL   H51443948   0.366   0.948   4.765  0.0928  1.1193  0.9795
   58MOL   H51543949   0.382   1.056   4.625 -1.3688  0.4227  0.5302
   58MOL   H51643950   0.436   0.846   4.479  0.8351  0.9272  0.5745
   58MOL   H51743951   0.273   0.849   4.535 -0.5815 -1.4129  1.4231
   58MOL   H51843952   0.342   0.632   4.599  0.2520 -1.0078  0.5083
   58MOL   H51943953   0.376   0.709   4.743  0.7182 -0.2596  0.1617
   58MOL   H52043954   0.496   0.573   4.810  2.0961  1.2699  2.7747
   58MOL   H52143955   0.772   0.609   4.804 -1.9790  1.4291 -1.5493
   58MOL   H52243956   0.689   0.498   4.904  2.5424  0.5644  0.0982
   58MOL   H52343957   0.667   0.337   4.707 -0.3836  1.2960 -1.1349
   58MOL   H52443958   0.756   0.450   4.602  2.1648  3.7708  1.4376
   58MOL   H52543959   0.891   0.288   4.830  1.2511 -0.5439 -1.0868
   58MOL   H52643960   0.960   0.415   4.742 -0.5876  0.3398 -1.8918
   58MOL   H52743961   0.855   0.148   4.619 -2.0706  1.2005  0.6279
   58MOL   H52843962   0.914   0.268   4.523  1.1632  0.5915  0.3749
   58MOL   H52943963   1.098   0.124   4.561 -1.2826 -3.0762  0.0052
   58MOL   H53043964   1.134   0.253   4.687  2.2069 -0.4331 -3.8795
   58MOL   H53143965   0.979   7.701   4.755 -0.3182  0.9396  2.4802
   58MOL   H53243966   1.047   0.110   4.867 -0.3604  1.4954  0.9202
   58MOL   H53343967   1.255   0.030   4.715  2.1146  1.0307  3.0952
   58MOL   C53443968   1.202   7.592   4.845  0.1288  0.1464  0.1832
   58MOL   O53543969   1.112   7.548   4.920  0.1794 -0.7129 -0.1162
   58MOL   C53643970   1.335   7.518   4.821  0.3114  0.2654 -0.8796
   58MOL   C53743971   1.363   7.395   4.918  0.1661 -0.3328 -0.0311
   58MOL   C53843972   1.400   7.261   4.859 -0.3892 -0.0768 -0.1116
   58MOL   C53943973   1.293   7.166   4.821 -0.2987 -0.4136  0.4174
   58MOL   C54043974   1.211   7.207   4.692 -0.6949  0.3628  0.3315
   58MOL   O54143975   1.265   7.251   4.589 -0.0944 -0.0105 -0.2267
   58MOL   N54243976   1.082   7.195   4.704  0.1735 -0.3160 -0.1962
   58MOL   C54343977   0.979   7.234   4.606 -0.1325  0.2383  0.2067
   58MOL   C54443978   0.901   7.361   4.652  0.7645  0.0343 -0.3585
   58MOL   C54543979   0.759   7.362   4.585  0.8862  0.6311  0.7712
   58MOL   C54643980   0.676   7.473   4.651 -0.2532  0.7183 -0.1096
   58MOL   C54743981   0.540   7.479   4.581  0.0045 -0.5585  0.1885
   58MOL   C54843982   0.455   7.579   4.662  0.7391 -0.4819  0.8517
   58MOL   N54943983   0.323   7.596   4.607 -0.2363 -0.2466 -0.0316
   58MOL   H55043984   1.350   7.487   4.718 -0.3253 -0.8377 -0.6486
   58MOL   H55143985   1.408   7.597   4.842 -0.4026 -0.0680  3.3769
   58MOL   H55243986   1.448   7.413   4.984  1.6993 -3.0469 -1.1551
   58MOL   H55343987   1.278   7.379   4.984 -0.2426 -0.9839 -0.7071
   58MOL   H55443988   1.444   7.212   4.947 -2.0346  1.6020  1.6993
   58MOL   H55543989   1.477   7.265   4.783 -0.4591  3.6269 -0.0689
   58MOL   H55643990   1.219   7.155   4.900 -0.7626 -1.1413 -0.1144
   58MOL   H55743991   1.335   7.070   4.791  2.6889  0.8487  0.4427
   58MOL   H55843992   1.046   7.170   4.795  0.1746  1.7512  0.4152
   58MOL   H55943993   1.009   7.247   4.502 -0.4155  1.0356  0.2242
   58MOL   H56043994   0.914   7.146   4.602  0.6412 -0.3069 -0.6738
   58MOL   H56143995   0.894   7.363   4.761  0.7603  0.4901 -0.3667
   58MOL   H56243996   0.960   7.449   4.631  0.6381  0.8550  2.5370
   58MOL   H56343997   0.712   7.267   4.611 -1.2692  1.7019  0.9077
   58MOL   H56443998   0.779   7.371   4.478  0.4088  1.7300  0.7676
   58MOL   H56543999   0.666   7.430   4.751 -0.4445  0.0298 -0.4212
   58MOL   H56644000   0.728   7.568   4.638  0.0206  0.3135 -2.0462
   58MOL   H56744001   0.540   7.511   4.476  1.3605 -0.8983  0.0732
   58MOL   H56844002   0.504   7.376   4.580  0.0857 -0.5819 -0.8358
   58MOL   H56944003   0.507   7.675   4.657  0.2312 -0.3415 -2.2578
   58MOL   H57044004   0.439   7.533   4.760 -0.6907 -0.2030  0.7596
   58MOL   H57144005   0.247   7.555   4.660  1.1504  0.9164  2.9973
   58MOL   C57244006   0.300   7.694   4.519  0.4345  0.0823 -0.3614
   58MOL   O57344007   0.387   0.051   4.462  0.4950 -0.5754  0.6886
   58MOL   C57444008   0.149   0.013   4.495 -0.3976 -0.2468 -0.3899
   58MOL   C57544009   0.118   0.121   4.393 -0.1286 -0.4404  0.2442
   58MOL   C57644010   0.110   0.079   4.242 -0.3007 -0.3014 -0.5630
   58MOL   C57744011   0.229   7.707   4.189 -0.2319  0.1590  0.1491
   58MOL   C57844012   0.202   7.671   4.046 -0.0025  0.2196 -0.2304
   58MOL   O57944013   0.100   7.704   3.990  0.4835  0.2475 -0.4357
   58MOL   N58044014   0.299   7.599   3.989  0.5286  0.0802 -1.0766
   58MOL   C58144015   0.300   7.571   3.844 -0.2604  1.0614 -0.0730
   58MOL   C58244016   0.426   7.494   3.782 -0.0962 -0.2868  0.1427
   58MOL   C58344017   0.426   7.479   3.632 -0.4438 -0.8530  0.3009
   58MOL   C58444018   0.552   7.411   3.574 -0.3086 -0.4244  0.0600
   58MOL   C58544019   0.542   7.404   3.418 -0.2071  0.4960 -0.6252
   58MOL   C58644020   0.652   7.328   3.355 -0.3117 -0.1527 -0.1734
   58MOL   N58744021   0.663   7.369   3.210  0.0426  0.8777  0.4280
   58MOL   H58844022   0.113   7.626   4.454 -0.3780  0.8937 -3.1408
   58MOL   H58944023   0.103   0.036   4.591 -0.3655 -2.1667  0.1069
   58MOL   H59044024   0.019   0.162   4.415  0.9734  2.1174  0.6452
   58MOL   H59144025   0.182   0.207   4.413 -0.1580 -0.3530 -0.0332
   58MOL   H59244026   0.094   0.168   4.181 -1.6044  0.5967  1.0374
   58MOL   H59344027   0.022   0.014   4.235  0.0302 -0.7365 -0.6957
   58MOL   H59444028   0.246   7.615   4.245  1.2117 -0.9044 -1.9509
   58MOL   H59544029   0.318   0.060   4.201 -0.7817  1.3123 -1.5634
   58MOL   H59644030   0.363   7.550   4.050 -1.1286 -1.3743 -0.4895
   58MOL   H59744031   0.206   7.518   3.834  0.7515 -0.8937  0.6041
   58MOL   H59844032   0.273   7.662   3.789 -3.9698  1.9601  3.0393
   58MOL   H59944033   0.508   7.562   3.806 -0.5278  0.2486  0.0954
   58MOL   H60044034   0.444   7.397   3.830 -4.6567 -1.2677  0.0678
   58MOL   H60144035   0.403   7.575   3.587 -0.3875 -0.8688  0.2382
   58MOL   H60244036   0.338   7.419   3.614  0.8236 -3.0640  1.2659
   58MOL   H60344037   0.633   7.476   3.607  0.6554 -0.8379 -1.4279
   58MOL   H60444038   0.559   7.309   3.612 -0.0775 -0.8028 -0.9861
   58MOL   H60544039   0.444   7.359   3.397  0.8820 -1.9989 -0.5467
   58MOL   H60644040   0.536   7.507   3.385  0.5977  0.8100  0.1908
   58MOL   H60744041   0.623   7.224   3.347  0.6200 -0.4628  0.3835
   58MOL   H60844042   0.743   7.345   3.413 -0.3503  0.3022 -0.2440
   58MOL   H60944043   0.740   7.427   3.181 -0.0041  0.8578  0.2666
   58MOL   C61044044   0.574   7.341   3.113  0.3239 -0.8665 -0.0751
   58MOL   O61144045   0.484   7.257   3.127 -0.0310  0.0290 -0.5668
   58MOL   C61244046   0.618   7.392   2.976  0.8121 -0.1137  0.0340
   58MOL   C61344047   0.530   7.502   2.913 -0.5128  0.2158 -0.2134
   58MOL   C61444048   0.543   7.643   2.979 -0.1182  0.1418 -0.1191
   58MOL   C61544049   0.423   0.022   2.947  0.1803  0.6956  0.6427
   58MOL   C61644050   0.308   0.004   3.044 -0.0714 -0.2626  0.1327
   58MOL   O61744051   0.210   7.648   3.004  0.2698  0.0085 -0.1626
   58MOL   N61844052   0.317   0.057   3.165  0.3929  0.0925 -0.0319
   58MOL   C61944053   0.229   0.034   3.275 -0.4144  0.5719 -0.4232
   58MOL   C62044054   0.237   0.152   3.372  0.1148 -0.5131 -1.0184
   58MOL   C62144055   0.167   0.115   3.510  0.0779 -0.5963  0.5995
   58MOL   C62244056   0.169   0.231   3.614 -0.1723  0.2142  0.0268
   58MOL   C62344057   0.089   0.204   3.742 -0.4125  0.3173  0.0760
   58MOL   C62444058   0.083   0.328   3.837 -0.3803  0.1500 -0.5046
   58MOL   N62544059   7.707   0.299   3.948 -0.4635  0.0814 -0.0084
   58MOL   H62644060   0.719   7.431   2.969  0.6452  0.1487 -1.0437
   58MOL   H62744061   0.610   7.302   2.915  0.5445 -0.7483  1.0000
   58MOL   H62844062   0.566   7.504   2.810  1.5776 -1.9987  0.4246
   58MOL   H62944063   0.427   7.468   2.904 -1.0685  2.4673 -2.7040
   58MOL   H63044064   0.641   7.685   2.957  1.0352 -2.4312 -0.1567
   58MOL   H63144065   0.542   7.611   3.084 -1.4315 -0.6380 -0.3503
   58MOL   H63244066   0.389   0.009   2.845 -0.3512 -1.2158  1.0454
   58MOL   H63344067   0.454   0.126   2.950 -2.7058  1.5786  3.3436
   58MOL   H63444068   0.392   0.123   3.180  1.4555 -0.9371 -0.8056
   58MOL   H63544069   0.131   0.006   3.236  0.7185 -2.1696 -1.3892
   58MOL   H63644070   0.267   7.648   3.314  1.5653  1.1365 -0.9153
   58MOL   H63744071   0.339   0.183   3.395 -1.8118  4.5127  1.4333
   58MOL   H63844072   0.204   0.243   3.323 -0.2047 -1.5524 -2.7946
   58MOL   H63944073   0.220   0.028   3.549  2.6501  0.8459  0.3846
   58MOL   H64044074   0.060   0.091   3.503 -0.3478  1.5749 -0.5284
   58MOL   H64144075   0.270   0.245   3.654 -0.4170 -0.5029  0.9333
   58MOL   H64244076   0.149   0.325   3.562  2.7230  1.7804  1.5870
   58MOL   H64344077   7.695   0.180   3.711 -0.3248 -0.1486  0.1581
   58MOL   H64444078   0.140   0.123   3.793 -0.5784 -0.1278 -0.4602
   58MOL   H64544079   0.035   0.399   3.770  0.3873 -0.3576 -1.6072
   58MOL   H64644080   0.175   0.374   3.873 -0.1945  0.7417 -1.7210
   58MOL   H64744081   7.682   0.201   3.952 -3.5530  0.8093 -0.0268
   58MOL   C64844082   7.672   0.388   4.035  0.1477  0.0550  0.0096
   58MOL   O64944083   0.007   0.502   4.038 -0.5481 -0.4412 -0.0863
   58MOL   C65044084   7.587   0.340   4.153  0.4063  0.3417  0.0980
   58MOL   C65144085   7.437   0.387   4.135 -0.2392  0.4206  0.0124
   58MOL   C65244086   7.343   0.393   4.259 -0.0573 -0.3532  0.0699
   58MOL   C65344087   7.279   0.256   4.286 -0.0434  0.2513  0.3774
   58MOL   C65444088   7.328   0.196   4.420 -0.0351  0.0048  0.8410
   58MOL   O65544089   7.297   0.262   4.519  0.6614 -0.0777 -0.3809
   58MOL   N65644090   7.404   0.089   4.413  0.2984  0.1351 -0.0037
   58MOL   C65744091   7.477   0.017   4.521 -0.3012 -0.3374 -0.3015
   58MOL   C65844092   7.411   7.591   4.548  0.0114 -0.3691 -0.0454
   58MOL   C65944093   7.494   7.501   4.643  0.3513  0.0378 -0.1836
   58MOL   C66044094   7.469   7.516   4.799 -0.0499 -0.1827 -0.2554
   58MOL   C66144095   7.536   7.401   4.870  0.3943 -0.2796  0.3216
   58MOL   C66244096   7.500   7.398   5.023 -0.0897  0.3055 -0.3996
   58MOL   N66344097   7.607   7.319   5.094 -0.2634 -0.0000  0.2298
   58MOL   H66444098   7.588   0.231   4.154  0.8594  0.3411  2.1316
   58MOL   H66544099   7.611   0.382   4.251  0.1225  0.5330  0.0851
   58MOL   H66644100   7.447   0.489   4.096  1.6667  0.2720  0.0872
   58MOL   H66744101   7.393   0.319   4.062 -0.1681  1.1399 -0.7078
   58MOL   H66844102   7.269   0.470   4.236  0.9707  0.4781 -0.5579
   58MOL   H66944103   7.405   0.420   4.344  0.0489 -3.7670  1.1236
   58MOL   H67044104   7.299   0.182   4.208  0.0672 -0.6615  1.2466
   58MOL   H67144105   7.173   0.274   4.273 -0.3043 -0.2239  1.7194
   58MOL   H67244106   7.428   0.058   4.320 -0.9695  0.2728 -0.3840
   58MOL   H67344107   7.583   7.705   4.503  0.3721  1.2844  1.7047
   58MOL   H67444108   7.496   0.073   4.612 -0.8017 -0.7807  0.0815
   58MOL   H67544109   7.306   7.601   4.576  0.4862  1.0129  1.2999
   58MOL   H67644110   7.400   7.533   4.456 -3.6443  0.8766 -0.4930
   58MOL   H67744111   7.599   7.513   4.618  0.6280  1.2819  1.4959
   58MOL   H67844112   7.463   7.403   4.605 -0.3113 -0.1176  0.7248
   58MOL   H67944113   7.514   7.605   4.844  1.0742 -0.9152  0.0957
   58MOL   H68044114   7.364   7.513   4.824 -0.4997 -1.2782 -2.1327
   58MOL   H68144115   7.492   7.311   4.828 -0.2009  0.3946 -0.5215
   58MOL   H68244116   7.638   7.415   4.836 -0.2354 -0.7382 -1.7998
   58MOL   H68344117   7.405   7.347   5.039 -0.3176  1.3263  1.5664
   58MOL   H68444118   7.508   7.491   5.079  0.1934  0.0303  0.0187
   58MOL   H68544119   7.653   7.370   5.169 -0.7818 -0.9428  1.1988
   58MOL   C68644120   7.611   7.188   5.113 -0.4725  0.0059  0.0572
   58MOL   O68744121   7.533   7.109   5.058  0.4052 -0.3981 -0.6959
   58MOL   C68844122   0.011   7.131   5.204 -0.4925  0.4371  0.2742
   58MOL   C68944123   7.704   6.978   5.231  0.0163  0.0886  0.2886
   58MOL   C69044124   0.075   6.892   5.133  0.3094 -0.1818 -0.0246
   58MOL   C69144125   0.220   6.867   5.178  0.0271  0.2172 -0.1207
   58MOL   C69244126   0.316   6.927   5.094  0.5703 -0.4206 -0.2249
   58MOL   O69344127   0.339   7.045   5.108  0.0870 -0.6631 -0.4905
   58MOL   N69444128   0.369   6.860   4.994 -0.3079 -0.7812  0.2904
   58MOL   C69544129   0.471   6.920   4.910 -0.5451 -0.6376  0.2397
   58MOL   C69644130   0.612   6.871   4.958 -0.4262 -0.4268  0.4804
   58MOL   C69744131   0.715   6.901   4.845 -0.7029 -0.0522 -0.5372
   58MOL   C69844132   0.860   6.865   4.884 -0.1172 -0.0161  1.1733
   58MOL   C69944133   0.963   6.875   4.768 -0.4454 -0.2630 -0.0690
   58MOL   C70044134   1.114   6.865   4.825  0.4297  0.1865 -0.5593
   58MOL   N70144135   1.218   6.856   4.720  0.4464  0.4426 -0.1955
   58MOL   H70244136   0.106   7.150   5.154 -1.0560 -0.3612 -1.1409
   58MOL   H70344137   7.705   7.187   5.297  1.6505 -0.3596  1.0914
   58MOL   H70444138   0.024   6.960   5.335 -1.2531  0.1055  0.6465
   58MOL   H70544139   7.599   6.955   5.215 -0.2256  0.8614  0.7448
   58MOL   H70644140   0.066   6.940   5.036 -1.2836  0.7384  0.5585
   58MOL   H70744141   0.013   6.803   5.123  0.1724  0.0748 -1.5315
   58MOL   H70844142   0.236   6.759   5.186 -0.5046  0.1410 -0.0944
   58MOL   H70944143   0.250   6.910   5.274  1.0485  2.5169 -1.4420
   58MOL   H71044144   0.340   6.767   4.970 -2.1179 -0.4736  1.2073
   58MOL   H71144145   0.452   6.877   4.812 -2.2735 -0.9092  0.6794
   58MOL   H71244146   0.462   7.029   4.907  0.0009 -0.4665  3.0838
   58MOL   H71344147   0.633   6.928   5.048  0.3205  1.3123 -0.7698
   58MOL   H71444148   0.606   6.765   4.984 -1.2205 -0.6293 -0.4861
   58MOL   H71544149   0.709   7.008   4.823 -0.1696 -0.1073 -0.9512
   58MOL   H71644150   0.678   6.842   4.761 -0.9303  0.7466 -1.0021
   58MOL   H71744151   0.885   6.920   4.974 -0.5723  1.6530  0.2901
   58MOL   H71844152   0.865   6.758   4.908 -0.7501 -0.2830  0.1636
   58MOL   H71944153   0.950   6.795   4.696  0.7464  1.2029 -1.9725
   58MOL   H72044154   0.949   6.966   4.709  1.5386  0.3685  0.3979
   58MOL   H72144155   1.123   6.778   4.890  2.1570  1.2667  0.7142
   58MOL   H72244156   1.142   6.945   4.893  1.5260 -1.9517  1.5696
   58MOL   H72344157   1.246   6.942   4.675  2.1210  0.1923  0.3175
   58MOL   C72444158   1.269   6.746   4.660  0.4557 -0.3649 -0.2024
   58MOL   O72544159   1.237   6.631   4.688 -0.0368 -0.1779 -0.5957
   58MOL   C72644160   1.375   6.776   4.550  0.2348  0.4447  0.7985
   58MOL   C72744161   1.458   6.671   4.468 -0.1238  0.2995  0.1924
   58MOL   C72844162   1.567   6.607   4.560 -0.7670 -0.1338 -0.0786
   58MOL   C72944163   1.676   6.704   4.599 -0.2235 -0.0781  0.3108
   58MOL   C73044164   1.799   6.631   4.660  0.1526 -1.0655 -0.1191
   58MOL   O73144165   1.897   6.602   4.599 -0.2708 -0.4219 -0.6115
   58MOL   N73244166   1.778   6.601   4.786  0.2743  0.2549  0.2895
   58MOL   C73344167   1.870   6.528   4.879  0.1460 -0.4513 -0.9606
   58MOL   C73444168   1.860   6.371   4.870 -0.5540  0.5081  0.3163
   58MOL   C73544169   1.965   6.299   4.958  0.5027 -0.4660  0.5774
   58MOL   C73644170   2.110   6.320   4.919 -0.6890  0.5313 -0.0331
   58MOL   C73744171   2.211   6.255   5.018 -0.2499 -0.9665  0.6525
   58MOL   C73844172   2.354   6.298   4.972 -0.2765 -0.0451 -0.1366
   58MOL   N73944173   2.456   6.205   5.015  0.2018 -0.0584 -0.5966
   58MOL   H74044174   1.330   6.841   4.475  0.8820 -0.3027 -0.2470
   58MOL   H74144175   1.441   6.852   4.592  2.3609 -0.6371 -0.5450
   58MOL   H74244176   1.397   6.583   4.450  0.4897  0.0871 -0.9617
   58MOL   H74344177   1.492   6.715   4.374  0.0574 -0.2387  0.0015
   58MOL   H74444178   1.612   6.516   4.521 -3.7084 -1.1523 -1.2010
   58MOL   H74544179   1.520   6.562   4.647  0.5938  1.0947  1.3274
   58MOL   H74644180   1.637   6.783   4.664  0.6772  0.3661  0.3140
   58MOL   H74744181   1.719   6.753   4.512  0.5330  2.6546  2.1694
   58MOL   H74844182   1.688   6.616   4.829 -0.1375  1.7066 -1.0531
   58MOL   H74944183   1.973   6.561   4.867  0.1826  0.6099  1.9066
   58MOL   H75044184   1.851   6.569   4.978 -0.4386 -1.9821 -0.4228
   58MOL   H75144185   1.762   6.332   4.899  0.3797 -2.0664  0.0742
   58MOL   H75244186   1.883   6.345   4.767  0.7128  1.3940  0.3703
   58MOL   H75344187   1.934   6.196   4.969  0.8915 -0.4585  1.7900
   58MOL   H75444188   1.936   6.356   5.046  1.1366 -0.3394  0.7099
   58MOL   H75544189   2.133   6.264   4.829 -0.6284  2.3430 -1.1838
   58MOL   H75644190   2.138   6.423   4.897 -1.0836  0.5563 -0.4259
   58MOL   H75744191   2.184   6.288   5.118  0.0441 -0.3120  0.5155
   58MOL   H75844192   2.200   6.146   5.018 -1.8201 -0.8342 -1.2803
   58MOL   H75944193   2.378   6.396   5.012 -0.7147  0.5937 -1.4239
   58MOL   H76044194   2.357   6.313   4.864 -0.2970 -0.7076 -0.2304
   58MOL   H76144195   2.545   6.238   4.980 -0.6312  2.4594 -0.4452
   58MOL   H76244196   2.442   6.110   4.982  1.8850 -0.8846  0.9786
   59MOL     C144197   6.066   4.950   3.651 -0.0605  0.2321  0.0129
   59MOL     O244198   6.136   4.870   3.587  0.0938  0.0775  0.1731
   59MOL     C344199   5.957   4.902   3.745 -0.0794 -0.4078 -0.2273
   59MOL     C444200   5.877   4.785   3.695  0.8563 -0.3574 -0.2641
   59MOL     C544201   5.899   4.657   3.770 -0.7378 -0.1342 -0.2856
   59MOL     C644202   5.836   4.537   3.698  0.0801  0.1529 -0.7829
   59MOL     C744203   5.695   4.557   3.635  0.0452  0.3646 -0.7380
   59MOL     O844204   5.612   4.627   3.699 -0.6388  0.0250  0.1293
   59MOL     N944205   5.668   4.493   3.522 -0.2290 -0.6243  0.1586
   59MOL    C1044206   5.543   4.494   3.461  0.5263 -0.0775 -0.2956
   59MOL    C1144207   5.479   4.359   3.493 -0.0307  0.0464  0.1155
   59MOL    C1244208   5.345   4.343   3.427 -0.2633  0.0101 -0.3093
   59MOL    C1344209   5.297   4.201   3.423  0.2112  0.1384 -0.0486
   59MOL    C1444210   5.295   4.121   3.549 -0.3524  0.7530  0.6480
   59MOL    C1544211   5.263   3.975   3.512 -0.5983 -0.6113  0.1923
   59MOL    N1644212   5.283   3.868   3.617 -0.2097 -0.0665 -0.2696
   59MOL    H1744213   5.980   4.885   3.850 -0.5498  2.1938  0.3389
   59MOL    H1844214   5.897   4.992   3.758  0.5205 -0.1881  1.0723
   59MOL    H1944215   5.777   4.816   3.727  0.4936 -1.4241 -0.3398
   59MOL    H2044216   5.890   4.773   3.588 -1.5725  2.5955 -0.9512
   59MOL    H2144217   5.854   4.658   3.869  1.0105  0.8711  0.5113
   59MOL    H2244218   6.003   4.639   3.798 -0.8931  0.4538  0.6823
   59MOL    H2344219   5.830   4.450   3.763 -0.3650  0.8588  0.1476
   59MOL    H2444220   5.905   4.506   3.621 -0.6370 -1.9940 -0.5994
   59MOL    H2544221   5.740   4.434   3.483  1.5823  1.4540  0.2746
   59MOL    H2644222   5.486   4.576   3.506 -0.7720 -1.9133  1.4659
   59MOL    H2744223   5.548   4.510   3.353 -0.6711 -3.4395 -0.8917
   59MOL    H2844224   5.549   4.284   3.455 -1.6790 -1.8254  0.6992
   59MOL    H2944225   5.484   4.349   3.601  2.6285  1.4663  0.1906
   59MOL    H3044226   5.345   4.387   3.327  0.2820 -0.8148 -0.6813
   59MOL    H3144227   5.271   4.405   3.477  2.4383  2.4859  0.7440
   59MOL    H3244228   5.193   4.210   3.392 -0.0433  1.2607  1.0618
   59MOL    H3344229   5.354   4.144   3.350  0.7973 -0.1330  0.6151
   59MOL    H3444230   5.391   4.106   3.599 -1.2019 -3.9347  1.1038
   59MOL    H3544231   5.224   4.159   3.622 -1.4170  0.0706 -0.0290
   59MOL    H3644232   5.327   3.948   3.427  0.8227  0.4583  0.8952
   59MOL    H3744233   5.164   3.972   3.468 -0.3156 -0.3473 -0.4733
   59MOL    H3844234   5.194   3.832   3.650 -2.0328  0.9992 -3.7817
   59MOL    H3944235   6.077   5.058   3.656  2.4618  0.0056  0.2720
   59MOL    C4044236   5.397   3.803   3.648  0.1850  0.3199 -0.1640
   59MOL    O4144237   5.503   3.814   3.588 -0.0984  0.1527  0.3280
   59MOL    C4244238   5.383   3.691   3.755 -0.0638 -0.1304  0.1246
   59MOL    C4344239   5.318   3.560   3.699  0.9518  0.0537  0.2241
   59MOL    C4444240   5.274   3.463   3.813  0.1372  0.2320  0.0197
   59MOL    C4544241   5.207   3.337   3.752 -0.6709 -0.2112  0.1990
   59MOL    C4644242   5.083   3.358   3.670  0.3387  0.1287  0.2802
   59MOL    O4744243   5.090   3.399   3.556  0.0866  0.0035 -0.2001
   59MOL    N4844244   4.971   3.335   3.736  0.2512  0.2086 -0.0030
   59MOL    C4944245   4.844   3.371   3.672 -0.2492 -0.2121 -0.3833
   59MOL    C5044246   4.786   3.487   3.752 -0.4084  0.1638 -0.7021
   59MOL    C5144247   4.655   3.543   3.693 -0.0457 -0.5627  0.2725
   59MOL    C5244248   4.536   3.447   3.682 -0.1728  0.0084 -0.3015
   59MOL    C5344249   4.474   3.407   3.816  0.5422 -0.5448 -0.0970
   59MOL    C5444250   4.341   3.345   3.795  0.4982  0.5025 -0.4731
   59MOL    N5544251   4.332   3.218   3.726 -0.1564  0.1322  0.0754
   59MOL    H5644252   5.478   3.680   3.807 -0.5791  1.4691  1.4603
   59MOL    H5744253   5.319   3.744   3.825  1.5639 -1.7927  2.9734
   59MOL    H5844254   5.224   3.587   3.651  0.7466 -1.8678 -0.4878
   59MOL    H5944255   5.376   3.516   3.618 -1.0404 -0.7548 -0.8044
   59MOL    H6044256   5.194   3.509   3.871 -0.4157  0.1439 -0.6652
   59MOL    H6144257   5.357   3.428   3.874  0.0502 -1.3478 -0.7428
   59MOL    H6244258   5.191   3.258   3.825 -1.9939  1.3175  1.6311
   59MOL    H6344259   5.275   3.286   3.684  1.5839  2.8017  0.0835
   59MOL    H6444260   4.970   3.298   3.830  1.8557 -0.2048 -0.1451
   59MOL    H6544261   4.841   3.388   3.564 -1.1739  1.7210 -0.0860
   59MOL    H6644262   4.791   3.278   3.695  1.1423 -0.8888  0.1599
   59MOL    H6744263   4.767   3.459   3.855  1.4588 -0.1829 -0.4316
   59MOL    H6844264   4.853   3.573   3.745 -1.5983  1.1595 -0.1237
   59MOL    H6944265   4.684   3.543   3.588  3.3849 -2.8681  1.1551
   59MOL    H7044266   4.632   3.644   3.729 -0.3683 -0.5916  0.1553
   59MOL    H7144267   4.466   3.473   3.603  0.9812  1.5224 -0.8493
   59MOL    H7244268   4.574   3.355   3.637 -1.0593 -0.1792 -0.6820
   59MOL    H7344269   4.541   3.349   3.879  0.5029 -0.8034 -0.2940
   59MOL    H7444270   4.451   3.502   3.865 -1.4507 -0.5438 -0.9909
   59MOL    H7544271   4.273   3.423   3.758 -0.5950  0.2394  0.9615
   59MOL    H7644272   4.310   3.322   3.897  1.1886  1.0044 -0.1453
   59MOL    H7744273   4.404   3.149   3.743 -0.6365 -0.8762 -1.8203
   59MOL    C7844274   4.222   3.176   3.653  0.2161  0.4474 -0.3654
   59MOL    O7944275   4.115   3.240   3.643 -0.2825  0.1177  0.1332
   59MOL    C8044276   4.243   3.040   3.596 -0.7340 -0.5194 -0.1649
   59MOL    C8144277   4.279   3.043   3.449 -0.1427  0.3231  0.3649
   59MOL    C8244278   4.427   3.097   3.417  0.1532 -0.1941  0.9893
   59MOL    C8344279   4.465   3.082   3.274 -0.4496  0.3501  0.5682
   59MOL    C8444280   4.503   2.939   3.230 -0.4582  0.3342  0.8632
   59MOL    O8544281   4.420   2.868   3.169  0.1068  0.0866 -0.1106
   59MOL    N8644282   4.624   2.893   3.254  0.3967  0.3619  0.0843
   59MOL    C8744283   4.671   2.766   3.193  0.4038  0.5623  0.7912
   59MOL    C8844284   4.811   2.726   3.234  0.8134  0.3403 -0.0837
   59MOL    C8944285   4.867   2.604   3.153 -0.0563 -0.2824  0.4388
   59MOL    C9044286   4.993   2.538   3.216 -0.4086 -0.0944  1.0734
   59MOL    C9144287   5.024   2.403   3.143  0.0599  0.1179  0.3175
   59MOL    C9244288   5.150   2.335   3.205  0.3407 -0.3944 -0.0100
   59MOL    N9344289   5.169   2.205   3.145 -0.2530  0.1092 -0.2902
   59MOL    H9444290   4.314   2.977   3.648 -0.0440  0.1105 -0.3353
   59MOL    H9544291   4.150   2.991   3.625 -1.2747  1.5901  1.8249
   59MOL    H9644292   4.274   2.938   3.421  1.3309  0.5340 -0.7286
   59MOL    H9744293   4.208   3.099   3.389 -2.6148 -2.8426  0.2494
   59MOL    H9844294   4.494   3.033   3.475  3.1132 -0.3109 -2.3790
   59MOL    H9944295   4.457   3.197   3.448 -0.4922  0.3648 -0.1777
   59MOL   H10044296   4.544   3.155   3.257 -0.7954 -0.0537 -3.2530
   59MOL   H10144297   4.390   3.122   3.206 -1.6553 -0.1461  1.5878
   59MOL   H10244298   4.688   2.959   3.295 -0.0679  1.0968 -0.3453
   59MOL   H10344299   4.603   2.688   3.229  0.8676 -0.1661  0.1259
   59MOL   H10444300   4.656   2.767   3.085 -0.3928  0.5789  0.8977
   59MOL   H10544301   4.881   2.810   3.231  0.6957  0.4142 -1.1781
   59MOL   H10644302   4.809   2.698   3.339  0.8607  1.1758  0.1471
   59MOL   H10744303   4.888   2.633   3.051  1.7253  1.2253  1.2119
   59MOL   H10844304   4.784   2.534   3.141 -0.6577  0.5532 -0.2720
   59MOL   H10944305   5.077   2.607   3.205 -1.0433  0.1979 -2.5950
   59MOL   H11044306   4.988   2.532   3.325  1.7112 -1.8497  1.1022
   59MOL   H11144307   4.936   2.342   3.163  0.9239 -1.0005  0.7756
   59MOL   H11244308   5.031   2.416   3.035  0.0007 -0.5170  0.2353
   59MOL   H11344309   5.124   2.331   3.311  2.0790  2.5831  0.5824
   59MOL   H11444310   5.239   2.395   3.190 -0.9132  1.6378  0.4311
   59MOL   H11544311   5.229   2.200   3.064 -0.0024 -1.3030 -0.0297
   59MOL   C11644312   5.106   2.094   3.186  0.2053  0.5180 -0.6115
   59MOL   O11744313   5.053   2.086   3.295 -0.4498  0.4459  0.0927
   59MOL   C11844314   5.104   1.971   3.093 -0.3426 -0.1370  0.1447
   59MOL   C11944315   4.961   1.935   3.039  0.1208  0.2757 -0.0029
   59MOL   C12044316   4.885   2.051   2.979  0.4346  0.2516 -0.3855
   59MOL   C12144317   4.750   2.014   2.918 -0.3698  0.1614  0.0358
   59MOL   C12244318   4.761   1.971   2.769 -0.0641 -0.0076 -0.1755
   59MOL   O12344319   4.774   2.057   2.680 -0.3751 -0.5581 -0.4907
   59MOL   N12444320   4.765   1.836   2.732  0.0729 -0.0129 -0.0494
   59MOL   C12544321   4.730   1.732   2.821 -0.0155 -0.2083 -0.0260
   59MOL   C12644322   4.697   1.607   2.740 -0.2034 -0.1951 -1.3031
   59MOL   C12744323   4.809   1.512   2.696  0.3767 -0.7118 -1.1397
   59MOL   C12844324   4.763   1.383   2.646 -0.0412 -0.3432  0.0815
   59MOL   C12944325   4.861   1.275   2.644  0.0305  0.2010 -0.0067
   59MOL   C13044326   4.811   1.149   2.568 -0.6552  0.5553  0.0982
   59MOL   N13144327   4.916   1.051   2.588  0.0684  0.2104  0.2264
   59MOL   H13244328   5.175   1.983   3.011 -0.3671  3.4457  0.5843
   59MOL   H13344329   5.137   1.893   3.162  1.4736 -1.2286 -1.8852
   59MOL   H13444330   4.969   1.863   2.957  0.6367 -0.0139  0.2977
   59MOL   H13544331   4.900   1.891   3.118  1.4432 -2.9577 -0.7048
   59MOL   H13644332   4.950   2.107   2.911  0.2894  1.0008  0.0943
   59MOL   H13744333   4.872   2.126   3.056  0.7623 -0.8367  0.7420
   59MOL   H13844334   4.700   2.111   2.909  0.8617  0.8115  0.1243
   59MOL   H13944335   4.690   1.949   2.981 -0.1588  0.1355  0.2096
   59MOL   H14044336   4.782   1.819   2.634  1.4086 -1.9667  0.4975
   59MOL   H14144337   4.811   1.710   2.892 -1.6822 -1.4635  1.5226
   59MOL   H14244338   4.646   1.760   2.884 -2.2827  1.1051 -3.5215
   59MOL   H14344339   4.626   1.547   2.798  0.3577  0.2900 -0.0963
   59MOL   H14444340   4.642   1.640   2.652 -1.4498 -1.7045 -1.1232
   59MOL   H14544341   4.863   1.483   2.787 -0.2245  1.9749  0.1432
   59MOL   H14644342   4.889   1.562   2.641  0.8196  0.7937  0.7670
   59MOL   H14744343   4.679   1.352   2.709  1.1798  0.1585  1.9958
   59MOL   H14844344   4.730   1.405   2.544 -1.0282 -0.3489  0.3897
   59MOL   H14944345   4.956   1.305   2.600  0.1948 -0.7113 -0.2915
   59MOL   H15044346   4.890   1.241   2.744 -2.5209  1.0096  1.0633
   59MOL   H15144347   4.796   1.168   2.462 -3.9618  1.2236  0.6266
   59MOL   H15244348   4.720   1.098   2.601  1.0398 -3.5495 -1.2927
   59MOL   H15344349   4.997   1.060   2.528 -1.4099 -1.0299 -2.0215
   59MOL   C15444350   4.911   0.957   2.683  0.3138  0.5524 -0.4775
   59MOL   O15544351   4.824   0.950   2.770  0.0357  0.1920  0.3523
   59MOL   C15644352   5.026   0.851   2.687  0.7726 -0.1404  0.1447
   59MOL   C15744353   4.979   0.720   2.611  0.0533 -0.0473 -0.5510
   59MOL   C15844354   4.870   0.625   2.679  0.1659  0.1787 -0.0542
   59MOL   C15944355   4.832   0.496   2.609 -0.1615 -0.2873  0.4014
   59MOL   C16044356   4.768   0.410   2.711 -0.0188  0.4235  0.3907
   59MOL   O16144357   4.675   0.454   2.780 -0.0158 -0.2836 -0.1599
   59MOL   N16244358   4.816   0.284   2.718 -0.6828  0.3218  0.2002
   59MOL   C16344359   4.743   0.179   2.784 -0.8595  1.1048 -0.5570
   59MOL   C16444360   4.647   0.104   2.684 -0.8197 -0.2577 -0.1277
   59MOL   C16544361   4.513   0.173   2.656 -0.0611 -0.0861 -0.2634
   59MOL   C16644362   4.401   0.090   2.595 -0.0678 -0.5238  0.4619
   59MOL   C16744363   4.264   0.161   2.590 -0.1302  0.5833 -0.5248
   59MOL   C16844364   4.153   0.081   2.521 -0.1527 -0.5430  0.4572
   59MOL   N16944365   4.034   0.165   2.482 -0.3976  0.1413 -0.5133
   59MOL   H17044366   5.118   0.893   2.646  1.1202 -1.6839 -0.6762
   59MOL   H17144367   5.060   0.848   2.791 -0.9700  1.1780  0.7783
   59MOL   H17244368   4.951   0.746   2.509  0.0570 -0.9957 -0.8002
   59MOL   H17344369   5.078   0.674   2.613  0.9688  1.9318  0.3820
   59MOL   H17444370   4.784   0.692   2.687  0.5602  0.7836 -0.8118
   59MOL   H17544371   4.904   0.597   2.778  1.4821  0.5221 -0.4051
   59MOL   H17644372   4.925   0.456   2.569 -0.9323  0.7441 -2.5568
   59MOL   H17744373   4.767   0.508   2.522  0.5174 -1.5179 -0.2825
   59MOL   H17844374   4.876   0.263   2.639 -0.5452  1.3553  0.0214
   59MOL   H17944375   4.826   0.118   2.820  0.8125  2.0257 -2.7500
   59MOL   H18044376   4.676   0.212   2.863  0.5746  0.5789  0.9284
   59MOL   H18144377   4.708   0.091   2.595  0.5188  1.8392  0.4540
   59MOL   H18244378   4.624   7.706   2.697 -0.7527 -0.1963  0.5201
   59MOL   H18344379   4.535   0.259   2.593  1.5994 -2.0386 -2.4419
   59MOL   H18444380   4.481   0.211   2.753  0.3643 -1.5365  0.4646
   59MOL   H18544381   4.429   0.049   2.498  0.8417  0.0956  0.4581
   59MOL   H18644382   4.400   0.005   2.663 -1.0774 -0.0593  1.0406
   59MOL   H18744383   4.241   0.172   2.696 -0.6065 -0.5077 -0.5119
   59MOL   H18844384   4.274   0.261   2.546  1.1143  0.9896  0.6723
   59MOL   H18944385   4.139   7.699   2.580 -1.0076 -0.3738  0.5309
   59MOL   H19044386   4.199   0.036   2.434  2.3485  1.5999  0.6013
   59MOL   H19144387   4.041   0.264   2.464  0.3885  0.4972  1.5136
   59MOL   C19244388   3.916   0.100   2.449  0.4530 -0.1472  0.5543
   59MOL   O19344389   3.898   7.687   2.463 -0.0213  0.1413 -0.1023
   59MOL   C19444390   3.802   0.190   2.407  0.1564  0.2850 -0.3241
   59MOL   C19544391   3.663   0.126   2.413 -0.8333  0.0424  0.5473
   59MOL   C19644392   3.532   0.210   2.379  0.1307  0.2922 -0.2866
   59MOL   C19744393   3.504   0.330   2.477  0.6645 -0.2699  0.1425
   59MOL   C19844394   3.479   0.285   2.623  0.5515 -1.0109  0.3479
   59MOL   O19944395   3.388   0.207   2.648 -0.1834  0.3346  0.3032
   59MOL   N20044396   3.562   0.334   2.719  0.5611 -0.0897  0.5129
   59MOL   C20144397   3.551   0.319   2.870  0.8315  1.1906 -0.1442
   59MOL   C20244398   3.670   0.388   2.946 -0.6691 -0.0963  0.1445
   59MOL   C20344399   3.651   0.388   3.093 -0.0792  0.5865  0.1136
   59MOL   C20444400   3.760   0.471   3.156 -0.5069 -0.5061 -0.1724
   59MOL   C20544401   3.896   0.412   3.173 -0.3316  0.1115  0.1070
   59MOL   C20644402   3.896   0.284   3.260 -0.6020  0.3321 -0.3976
   59MOL   N20744403   3.840   0.308   3.390 -0.1362  0.3986  0.1501
   59MOL   H20844404   3.806   0.282   2.465 -0.7270  0.9550 -1.3101
   59MOL   H20944405   3.837   0.217   2.307 -1.0994  0.1737 -0.7903
   59MOL   H21044406   3.659   0.035   2.354  2.6508  0.0375  0.2188
   59MOL   H21144407   3.651   0.083   2.513 -0.2178 -2.2696 -0.3475
   59MOL   H21244408   3.450   0.139   2.374 -0.9590  1.5645 -0.7758
   59MOL   H21344409   3.531   0.266   2.285 -0.3277 -1.6647 -1.4605
   59MOL   H21444410   3.417   0.384   2.441  0.3660 -1.8342 -1.5851
   59MOL   H21544411   3.590   0.397   2.467  0.4913 -0.0758 -0.0227
   59MOL   H21644412   3.628   0.408   2.696 -0.8442  0.6286 -1.3659
   59MOL   H21744413   3.449   0.343   2.900 -0.0212 -2.1296 -0.1205
   59MOL   H21844414   3.564   0.212   2.888  0.6590  0.5311 -3.6211
   59MOL   H21944415   3.770   0.353   2.922 -0.3589 -0.0626  1.3755
   59MOL   H22044416   3.677   0.485   2.897  0.2908  0.8132  2.0399
   59MOL   H22144417   3.646   0.288   3.136 -2.6679  0.5192 -0.2564
   59MOL   H22244418   3.562   0.445   3.122 -0.9974  0.1409 -1.8160
   59MOL   H22344419   3.773   0.567   3.107  0.8113 -0.4441  0.2838
   59MOL   H22444420   3.711   0.500   3.249  0.4530 -1.8958  0.7958
   59MOL   H22544421   3.951   0.385   3.083  1.8470 -0.5688  1.6030
   59MOL   H22644422   3.956   0.481   3.233 -0.1496 -1.0975  1.3480
   59MOL   H22744423   3.998   0.250   3.277 -0.3730  1.1138 -0.1973
   59MOL   H22844424   3.847   0.208   3.200  1.1514 -0.3613 -0.9997
   59MOL   H22944425   3.828   0.404   3.419 -1.4291  0.1430  0.4584
   59MOL   C23044426   3.788   0.212   3.471  0.1270  0.4981  0.7867
   59MOL   O23144427   3.796   0.089   3.446 -0.0823 -0.4135 -0.3839
   59MOL   C23244428   3.729   0.255   3.608 -0.5582 -0.3275  0.7266
   59MOL   C23344429   3.761   0.174   3.738 -0.2173  0.1802 -0.1975
   59MOL   C23444430   3.914   0.187   3.775  0.5594  0.3874  0.2222
   59MOL   C23544431   3.968   0.088   3.876 -0.1768  0.3231  0.0677
   59MOL   C23644432   4.120   0.104   3.892  0.1096  0.5485 -0.2823
   59MOL   O23744433   4.178   0.177   3.813 -0.0785 -0.0371  0.0350
   59MOL   N23844434   4.176   0.052   4.002 -1.0897  0.2736  0.4645
   59MOL   C23944435   4.315   0.072   4.034  0.5753  0.0596  0.6556
   59MOL   C24044436   4.413   7.693   3.959  0.1675 -0.0709  0.2678
   59MOL   C24144437   4.553   7.701   4.027  0.0188 -0.3008 -0.3577
   59MOL   C24244438   4.662   7.642   3.936 -0.0332 -0.1267 -0.3772
   59MOL   C24344439   4.798   7.618   4.003  0.6231  0.0107 -0.4926
   59MOL   C24444440   4.870   0.040   4.034 -0.6442  0.0131  0.1590
   59MOL   N24544441   4.973   0.001   4.127 -0.1886 -0.0230  0.6021
   59MOL   H24644442   3.740   0.361   3.631  0.4799 -0.0089 -1.0956
   59MOL   H24744443   3.622   0.246   3.588 -0.2774 -2.3185  0.0328
   59MOL   H24844444   3.697   0.205   3.820  0.5718 -0.2950  0.5969
   59MOL   H24944445   3.749   0.067   3.721  0.9948  0.3065 -2.0556
   59MOL   H25044446   3.946   0.291   3.779  0.4928  0.4964 -1.7580
   59MOL   H25144447   3.959   0.156   3.681 -1.4329  2.6434 -1.5605
   59MOL   H25244448   3.936   7.695   3.852  0.9437 -0.4734  1.7953
   59MOL   H25344449   3.932   0.114   3.976 -0.0412  0.6595  0.0287
   59MOL   H25444450   4.126   7.690   4.055  1.9888 -1.9817  0.5046
   59MOL   H25544451   4.348   0.175   4.016  2.0159 -0.9628 -2.9696
   59MOL   H25644452   4.328   0.063   4.142 -1.1971  0.7778  0.9504
   59MOL   H25744453   4.381   7.589   3.964 -0.8300  0.2604  0.8903
   59MOL   H25844454   4.410   0.009   3.853 -1.2347 -2.7119 -0.3399
   59MOL   H25944455   4.551   7.645   4.121 -1.6334  2.4637  1.3488
   59MOL   H26044456   4.573   0.095   4.059  1.9317 -1.0058  0.8071
   59MOL   H26144457   4.634   7.544   3.897  1.7300 -0.5379 -0.6624
   59MOL   H26244458   4.674   0.000   3.850  0.5241 -0.0253 -0.2245
   59MOL   H26344459   4.764   7.570   4.095 -1.7214 -0.3571 -1.5067
   59MOL   H26444460   4.868   7.561   3.943  0.8148  0.8127 -1.0455
   59MOL   H26544461   4.816   0.119   4.086 -0.1913  1.0892 -0.9600
   59MOL   H26644462   4.927   0.090   3.956  0.0949  0.9770  1.2999
   59MOL   H26744463   5.029   7.627   4.106  1.3218  1.1386  0.0107
   59MOL   C26844464   4.987   0.052   4.252  0.1122 -0.5375  0.9331
   59MOL   O26944465   4.914   0.138   4.298  0.2173 -0.3227  0.0640
   59MOL   C27044466   5.110   7.702   4.335  0.0577 -0.3104  0.7220
   59MOL   C27144467   5.063   7.591   4.435  0.2092  0.0475 -0.0240
   59MOL   C27244468   4.972   7.480   4.372  0.0268 -0.1953  0.6299
   59MOL   C27344469   4.945   7.368   4.475 -0.4023 -0.1350 -0.6928
   59MOL   C27444470   5.059   7.274   4.507 -0.6306 -0.1378 -0.0473
   59MOL   O27544471   5.123   7.290   4.606 -0.4471  0.2626  0.1309
   59MOL   N27644472   5.086   7.183   4.413 -0.4345  0.3742 -0.8374
   59MOL   C27744473   5.201   7.094   4.418 -0.2181  0.4814  0.2221
   59MOL   C27844474   5.216   7.015   4.292  0.0147 -0.5848 -0.1314
   59MOL   C27944475   5.094   6.918   4.260  0.1706  0.7694  0.3340
   59MOL   C28044476   5.120   6.824   4.150 -0.2469 -0.8506  0.2092
   59MOL   C28144477   5.207   6.706   4.191 -0.5156  0.2760 -0.0095
   59MOL   C28244478   5.241   6.601   4.085  0.3182  0.8904  0.5347
   59MOL   N28344479   5.352   6.519   4.132  0.3355 -0.5718 -0.4230
   59MOL   H28444480   5.186   7.658   4.270  0.0954 -0.8166  1.1093
   59MOL   H28544481   5.141   0.091   4.375 -0.9129  0.0450  0.6465
   59MOL   H28644482   5.149   7.542   4.480  1.4280  3.8419  2.0319
   59MOL   H28744483   5.003   7.639   4.513  0.1767  2.6580 -1.5848
   59MOL   H28844484   5.029   7.441   4.288 -0.0665  1.5335 -0.2665
   59MOL   H28944485   4.879   7.523   4.335 -1.8205 -3.9678  0.5857
   59MOL   H29044486   4.870   7.308   4.425  0.5109 -0.3682 -1.8285
   59MOL   H29144487   4.918   7.391   4.578  0.0804  1.2109 -0.8549
   59MOL   H29244488   5.020   7.180   4.336 -2.8539 -3.5231  1.2333
   59MOL   H29344489   5.295   7.146   4.435  1.2859 -2.3320  0.8130
   59MOL   H29444490   5.179   7.030   4.504  0.4134  2.0218  1.5572
   59MOL   H29544491   5.258   7.082   4.216  3.2436 -0.6081  1.5194
   59MOL   H29644492   5.301   6.947   4.298 -0.8198 -1.4914  1.6844
   59MOL   H29744493   5.011   6.982   4.232 -0.4179 -1.3877 -3.2001
   59MOL   H29844494   5.076   6.864   4.353  1.4748  0.7498  0.5828
   59MOL   H29944495   5.027   6.795   4.102 -0.0535  0.4294 -0.9435
   59MOL   H30044496   5.171   6.879   4.071 -2.3520 -0.2164 -0.7283
   59MOL   H30144497   5.299   6.752   4.228 -1.4241  2.8338 -0.8241
   59MOL   H30244498   5.162   6.652   4.275 -0.5664 -0.7348 -0.6721
   59MOL   H30344499   5.263   6.639   3.986 -2.0969 -1.0322 -0.7742
   59MOL   H30444500   5.155   6.536   4.068  1.5864 -1.2816  2.1551
   59MOL   H30544501   5.339   6.440   4.193 -2.1269 -0.9953 -1.4655
   59MOL   C30644502   5.474   6.538   4.085  0.2101  0.2140 -0.4503
   59MOL   O30744503   5.492   6.632   4.004 -1.0635  0.5445 -0.6953
   59MOL   C30844504   5.597   6.436   4.119  0.2814 -0.3754 -0.6757
   59MOL   C30944505   5.610   6.323   4.020 -0.4980  0.0307 -0.7740
   59MOL   C31044506   5.633   6.368   3.868 -0.3780  0.3543  0.4855
   59MOL   C31144507   5.641   6.251   3.770 -0.3941  0.1103  0.8022
   59MOL   C31244508   5.746   6.144   3.811  0.0116 -0.1033  0.7743
   59MOL   O31344509   5.843   6.172   3.879  0.3886  0.3036 -0.1301
   59MOL   N31444510   5.722   6.017   3.767 -0.0718 -0.5382  0.1469
   59MOL   C31544511   5.596   5.977   3.689 -0.0501  0.4434  0.2506
   59MOL   C31644512   5.609   5.846   3.617 -0.6553 -0.5255 -0.0760
   59MOL   C31744513   5.732   5.838   3.525 -0.0697  0.0724 -0.2271
   59MOL   C31844514   5.738   5.708   3.438 -0.4655  0.3418  0.7957
   59MOL   C31944515   5.858   5.711   3.348  0.4055  0.3348  0.3217
   59MOL   C32044516   5.864   5.595   3.247  0.2844  0.1635 -0.0719
   59MOL   N32144517   5.991   5.563   3.192  0.0549  0.0241  0.1190
   59MOL   H32244518   5.687   6.495   4.137  0.5839 -0.8603 -0.5870
   59MOL   H32344519   5.570   6.391   4.215 -0.2317 -0.4366 -0.8472
   59MOL   H32444520   5.701   6.268   4.045 -0.7682 -0.4307 -0.7841
   59MOL   H32544521   5.528   6.251   4.031 -0.2201 -0.2036 -0.2221
   59MOL   H32644522   5.722   6.430   3.861  1.8272 -2.6971  0.9709
   59MOL   H32744523   5.554   6.437   3.838 -0.8367 -0.7882 -1.0282
   59MOL   H32844524   5.659   6.300   3.674  1.2390 -0.4254  0.8130
   59MOL   H32944525   5.539   6.213   3.775 -1.3141  2.6389  1.5463
   59MOL   H33044526   5.795   5.947   3.774  3.4452  2.4609 -3.5060
   59MOL   H33144527   5.512   5.969   3.758  0.5218 -1.5556  0.7704
   59MOL   H33244528   5.562   6.054   3.620  1.8073 -0.4041 -1.6584
   59MOL   H33344529   5.620   5.778   3.702 -2.6413 -1.5041 -0.5803
   59MOL   H33444530   5.516   5.818   3.569 -0.9399  1.1993 -0.5463
   59MOL   H33544531   5.819   5.843   3.591 -1.0869 -2.4523  1.3797
   59MOL   H33644532   5.744   5.930   3.468  0.5675 -0.4243 -0.9121
   59MOL   H33744533   5.744   5.632   3.516  0.3071  0.5053  0.8946
   59MOL   H33844534   5.646   5.701   3.380 -0.0649  1.3950  0.0177
   59MOL   H33944535   5.870   5.797   3.283  0.0934  0.6572  0.6889
   59MOL   H34044536   5.947   5.713   3.412 -0.0126  0.1063  0.9135
   59MOL   H34144537   5.790   5.622   3.171 -0.3468 -0.6525  0.2524
   59MOL   H34244538   5.842   5.507   3.306  2.2409  1.1984  2.2925
   59MOL   H34344539   6.028   5.469   3.201  1.6208  0.6608  0.6594
   59MOL   C34444540   6.096   5.643   3.159 -0.6863  0.2826  0.7667
   59MOL   O34544541   6.086   5.766   3.155  0.1774 -0.0463  0.0359
   59MOL   C34644542   6.225   5.573   3.121 -0.0669 -0.2673  0.7093
   59MOL   C34744543   6.342   5.661   3.082  0.0401 -0.0802 -0.3785
   59MOL   C34844544   6.476   5.586   3.060  0.4401  0.6746 -0.2363
   59MOL   C34944545   6.583   5.680   2.996 -0.1148 -0.3467 -0.0459
   59MOL   C35044546   6.573   5.691   2.843  0.1019 -0.1322 -0.9372
   59MOL   O35144547   6.470   5.739   2.798 -0.5098 -0.0658 -0.0384
   59MOL   N35244548   6.682   5.655   2.769  0.0714  0.5928 -0.3380
   59MOL   C35344549   6.706   5.677   2.630  0.3840  0.2858 -0.6536
   59MOL   C35444550   6.668   5.557   2.548  0.2630  0.2971  0.4801
   59MOL   C35544551   6.773   5.449   2.530 -0.0713 -0.3676 -0.2230
   59MOL   C35644552   6.730   5.323   2.450 -0.3423  0.0138 -0.9015
   59MOL   C35744553   6.814   5.197   2.459  0.7884 -0.9459 -0.0941
   59MOL   C35844554   6.739   5.065   2.441  0.2593 -0.2301 -0.4552
   59MOL   N35944555   6.670   5.062   2.318  0.2526 -0.1266 -0.3378
   59MOL   H36044556   6.240   5.502   3.203  0.8714  0.6647  1.3543
   59MOL   H36144557   6.217   5.509   3.034 -2.0015 -0.6098  1.1114
   59MOL   H36244558   6.316   5.721   2.995 -1.1940 -0.9739 -0.6389
   59MOL   H36344559   6.363   5.734   3.160  0.5180  0.1396 -0.7093
   59MOL   H36444560   6.455   5.490   3.014  0.9939  0.9461 -1.0519
   59MOL   H36544561   6.519   5.543   3.151  1.0288  0.3400 -0.6716
   59MOL   H36644562   6.680   5.635   3.017 -0.5389 -1.3264 -0.1431
   59MOL   H36744563   6.587   5.774   3.050 -0.2199 -1.1455  1.3869
   59MOL   H36844564   6.759   5.615   2.821  0.3538  1.3760 -0.1573
   59MOL   H36944565   6.647   5.765   2.606 -1.6473 -0.6175  0.8676
   59MOL   H37044566   6.812   5.704   2.630  0.6876 -0.8841 -0.4647
   59MOL   H37144567   6.576   5.520   2.592 -0.3329  0.5618 -0.5326
   59MOL   H37244568   6.653   5.597   2.448 -2.1258  0.2603  0.8060
   59MOL   H37344569   6.787   5.413   2.632 -1.3889 -1.3511 -0.3695
   59MOL   H37444570   6.866   5.481   2.485 -0.9362 -1.1751 -2.6578
   59MOL   H37544571   6.629   5.293   2.476 -0.5182 -1.0015 -2.6471
   59MOL   H37644572   6.711   5.343   2.344 -1.0012  3.0964 -0.2341
   59MOL   H37744573   6.893   5.192   2.383  0.5837  0.7642 -0.4272
   59MOL   H37844574   6.861   5.193   2.557 -0.3958  0.0737  0.5145
   59MOL   H37944575   6.665   5.054   2.521 -0.4627 -2.4625 -1.3968
   59MOL   H38044576   6.809   4.984   2.461 -1.5125 -1.8505 -0.6900
   59MOL   H38144577   6.733   5.040   2.241  0.2662 -0.6138 -0.1871
   59MOL   C38244578   6.541   5.072   2.297  0.9414  0.7373  0.8447
   59MOL   O38344579   6.467   5.128   2.369  0.4070  0.3221 -0.7729
   59MOL   C38444580   6.495   5.038   2.159  0.2771  0.3120  0.5157
   59MOL   C38544581   6.486   5.157   2.062  0.4639  0.0413  0.0415
   59MOL   C38644582   6.620   5.228   2.027 -0.3167 -0.5507  0.5501
   59MOL   C38744583   6.713   5.142   1.930 -0.8621 -1.0494 -0.2683
   59MOL   C38844584   6.853   5.101   1.991 -0.0874 -0.1781 -0.3201
   59MOL   O38944585   6.863   5.018   2.078 -0.2875  0.0960 -0.3272
   59MOL   N39044586   6.953   5.171   1.940 -0.3272 -0.4028  0.1703
   59MOL   C39144587   7.093   5.142   1.945  0.4636 -0.6810 -0.0345
   59MOL   C39244588   7.129   5.040   1.837  0.2571  0.2423  0.1070
   59MOL   C39344589   7.079   5.090   1.702 -0.3116  0.2477  0.3455
   59MOL   C39444590   7.129   5.004   1.591 -0.2011  0.3256  0.3459
   59MOL   C39544591   7.119   5.069   1.448 -0.5432 -0.1138 -0.0052
   59MOL   C39644592   7.196   4.982   1.346 -0.1508 -0.6991  0.5359
   59MOL   N39744593   7.170   5.033   1.215  0.0038 -0.1146  0.4677
   59MOL   H39844594   6.564   4.963   2.121  0.4784  1.0741 -0.6826
   59MOL   H39944595   6.397   4.991   2.166 -0.4646  0.9589 -4.0259
   59MOL   H40044596   6.428   5.129   1.974  0.0856 -2.6701  1.1072
   59MOL   H40144597   6.422   5.232   2.108 -0.5772 -0.4942 -0.5260
   59MOL   H40244598   6.675   5.252   2.119  1.8513 -0.6339 -0.7011
   59MOL   H40344599   6.598   5.314   1.964  0.2872 -1.3670 -0.8016
   59MOL   H40444600   6.728   5.194   1.835 -0.3169 -2.1265 -0.7819
   59MOL   H40544601   6.672   5.050   1.889  0.4207 -1.8349  0.1616
   59MOL   H40644602   6.924   5.247   1.881  0.4130 -0.5651 -0.4125
   59MOL   H40744603   7.141   5.240   1.938 -0.4830 -0.1590  0.6556
   59MOL   H40844604   7.124   5.101   2.041  1.2143  1.3896  0.6414
   59MOL   H40944605   7.237   5.024   1.832  0.0564 -1.3452  0.8003
   59MOL   H41044606   7.097   4.939   1.861  1.4238 -0.3186 -0.6607
   59MOL   H41144607   7.121   5.189   1.690  0.2504 -0.2174 -1.7395
   59MOL   H41244608   6.973   5.105   1.682  0.0808  0.0062 -2.0671
   59MOL   H41344609   7.230   4.966   1.603 -0.3612  0.0304  0.8106
   59MOL   H41444610   7.063   4.919   1.574  2.0161 -0.7897 -3.2467
   59MOL   H41544611   7.013   5.080   1.428 -0.4358  0.0600 -0.5042
   59MOL   H41644612   7.166   5.167   1.449 -0.6746 -0.0470 -0.2528
   59MOL   H41744613   7.165   4.878   1.353  1.0887 -1.0419  1.0439
   59MOL   H41844614   7.302   4.994   1.366 -0.6213  0.9571  2.1808
   59MOL   H41944615   7.112   5.115   1.199  1.0268  0.2155 -1.6251
   59MOL   C42044616   7.228   4.989   1.109 -0.0169  1.1039  0.1992
   59MOL   O42144617   7.316   4.897   1.111  0.2767  0.2749 -0.2185
   59MOL   C42244618   7.176   5.037   0.972  0.6761  0.0912 -0.5406
   59MOL   C42344619   7.074   4.939   0.920 -0.7650  0.1676 -0.9416
   59MOL   C42444620   6.928   4.996   0.951  0.7526  0.6447 -0.2269
   59MOL   C42544621   6.826   4.882   0.943  0.0940  0.2049  0.1052
   59MOL   C42644622   6.685   4.935   0.939  0.3921  0.0638  0.3551
   59MOL   O42744623   6.649   5.026   0.864  0.1258  0.4189 -0.1821
   59MOL   N42844624   6.594   4.868   1.013  0.6197  0.1967  0.0811
   59MOL   C42944625   6.468   4.932   1.046 -0.1621 -0.2886  0.5110
   59MOL   C43044626   6.465   4.986   1.196 -0.5846 -0.4119  0.2346
   59MOL   C43144627   6.592   5.074   1.224  0.4992  0.4444  0.3473
   59MOL   C43244628   6.612   5.113   1.373  0.3269 -0.9112 -0.6029
   59MOL   C43344629   6.715   5.225   1.393  0.6470  0.3609 -0.4481
   59MOL   C43444630   6.761   5.259   1.535  0.1877 -0.3691 -0.4079
   59MOL   N43544631   6.869   5.354   1.530  0.1721 -0.4164  0.2005
   59MOL   H43644632   7.130   5.134   0.993 -0.4139 -0.1093 -1.9406
   59MOL   H43744633   7.267   5.040   0.913  0.7063  0.4472 -0.4753
   59MOL   H43844634   7.079   4.923   0.813 -0.0106 -1.5655 -0.6598
   59MOL   H43944635   7.090   4.836   0.952  1.1633  0.5485 -0.6623
   59MOL   H44044636   6.903   5.078   0.884 -1.3901  0.0196 -0.2234
   59MOL   H44144637   6.934   5.029   1.055 -0.4860  0.4351 -0.0879
   59MOL   H44244638   6.849   4.816   1.027 -0.4653 -0.2662 -0.1123
   59MOL   H44344639   6.823   4.831   0.847 -2.8465  1.6273 -0.6008
   59MOL   H44444640   6.622   4.795   1.077  2.5442  0.4013 -0.5039
   59MOL   H44544641   6.440   5.011   0.976  0.4598  1.0567  1.7643
   59MOL   H44644642   6.385   4.864   1.031 -1.1842  0.9205  0.6288
   59MOL   H44744643   6.369   5.038   1.203  0.1137  0.9609 -0.2035
   59MOL   H44844644   6.470   4.904   1.267 -0.0355  1.8381  2.8691
   59MOL   H44944645   6.587   5.152   1.149 -4.1995 -0.3615 -0.3268
   59MOL   H45044646   6.681   5.017   1.195 -0.0483 -0.4209  0.3476
   59MOL   H45144647   6.521   5.149   1.422  0.0032 -2.1826 -0.2595
   59MOL   H45244648   6.641   5.031   1.438  2.6111  0.1674 -0.1797
   59MOL   H45344649   6.800   5.200   1.331  2.1691  0.2887  1.6165
   59MOL   H45444650   6.676   5.315   1.345 -2.1426  0.0789  1.1262
   59MOL   H45544651   6.814   5.174   1.576  2.1115  0.7820 -0.4335
   59MOL   H45644652   6.679   5.290   1.600  2.0459  2.6394  0.6014
   59MOL   H45744653   6.873   5.391   1.436 -1.8380 -1.3440 -0.2905
   59MOL   C45844654   6.944   5.396   1.631  0.7465 -0.5370  0.2809
   59MOL   O45944655   6.918   5.367   1.745 -0.3333 -0.1668  0.1835
   59MOL   C46044656   7.058   5.499   1.594 -0.7721 -0.5318  0.1353
   59MOL   C46144657   7.090   5.598   1.703  0.8520  0.2343  0.3585
   59MOL   C46244658   7.177   5.566   1.829 -0.0175  0.3134 -0.1361
   59MOL   C46344659   7.330   5.565   1.814  0.1825  0.5547 -0.4290
   59MOL   C46444660   7.393   5.443   1.749  0.9193 -0.2293 -0.6664
   59MOL   O46544661   7.340   5.329   1.761  0.0037  0.1838 -0.5160
   59MOL   N46644662   7.488   5.462   1.656  0.5737 -0.9854 -0.2785
   59MOL   C46744663   7.554   5.345   1.596 -1.0775 -0.4883  0.7731
   59MOL   C46844664   7.542   5.337   1.443 -0.5890 -0.3953  0.0010
   59MOL   C46944665   7.398   5.351   1.397  0.5142  0.2236 -0.2484
   59MOL   C47044666   7.406   5.362   1.241  0.0792 -0.0749 -0.3930
   59MOL   C47144667   7.271   5.384   1.171  0.0259  0.0887  0.3269
   59MOL   C47244668   7.211   5.528   1.189  0.2708  0.2417 -0.4719
   59MOL   N47344669   7.082   5.551   1.122 -0.1327  0.2958  0.0702
   59MOL   H47444670   7.150   5.450   1.562  0.5897  1.9853  0.0890
   59MOL   H47544671   7.018   5.553   1.509  0.7642 -2.2324 -1.7260
   59MOL   H47644672   7.125   5.687   1.651 -0.0453  1.0325  1.1106
   59MOL   H47744673   6.993   5.638   1.732  0.2700  0.0544 -1.3070
   59MOL   H47844674   7.149   5.465   1.861  1.1998  0.1055  0.2885
   59MOL   H47944675   7.142   5.634   1.906 -2.6201  2.4059 -3.0312
   59MOL   H48044676   7.373   5.566   1.915  1.2763 -0.7022 -0.8705
   59MOL   H48144677   7.366   5.660   1.775  0.6536  0.4381 -0.2806
   59MOL   H48244678   7.529   5.555   1.651 -1.1599 -0.2255 -0.6307
   59MOL   H48344679   7.659   5.339   1.625 -1.1983 -0.4980  1.2145
   59MOL   H48444680   7.508   5.250   1.622 -1.1516 -0.4026  0.9611
   59MOL   H48544681   7.592   5.429   1.412 -0.7033 -0.1493  0.5470
   59MOL   H48644682   7.587   5.245   1.407 -1.2343 -0.5057 -0.5262
   59MOL   H48744683   7.362   5.446   1.436  0.1499  0.2482 -0.6378
   59MOL   H48844684   7.345   5.261   1.428 -0.3063  0.8515  0.2117
   59MOL   H48944685   7.477   5.435   1.203 -0.6401  1.0353  0.3581
   59MOL   H49044686   7.449   5.272   1.197  0.1436 -0.4599  0.4588
   59MOL   H49144687   7.290   5.368   1.065 -0.2413 -4.1944  0.8426
   59MOL   H49244688   7.198   5.318   1.217 -2.2671  2.8161  0.7236
   59MOL   H49344689   7.276   5.600   1.138  0.7725  1.5486  1.9180
   59MOL   H49444690   7.204   5.547   1.296  1.4778  0.2698 -0.3861
   59MOL   H49544691   7.068   5.607   1.038  1.1166  1.3325  0.5218
   59MOL   C49644692   6.973   5.509   1.183  0.1589  1.1367  0.0042
   59MOL   O49744693   6.981   5.435   1.283 -0.2975  0.1414 -0.7519
   59MOL   C49844694   6.841   5.546   1.120  0.0903  0.8662  0.8489
   59MOL   C49944695   6.789   5.438   1.013  0.0786  0.4985 -0.3229
   59MOL   C50044696   6.639   5.455   0.979  0.3828  0.9960 -0.5199
   59MOL   C50144697   6.574   5.355   0.885 -0.1610 -0.6016  0.0793
   59MOL   C50244698   6.628   5.358   0.744 -0.6551 -0.2234 -0.6259
   59MOL   O50344699   6.596   5.449   0.669 -0.4120 -0.0183  0.0895
   59MOL   N50444700   6.707   5.257   0.702 -0.3481 -0.3772  0.3741
   59MOL   C50544701   6.760   5.235   0.566  0.1520  0.6248  0.4137
   59MOL   C50644702   6.899   5.186   0.572 -0.5437 -0.1165 -0.3797
   59MOL   C50744703   6.999   5.277   0.651 -0.0920  0.6862  0.0076
   59MOL   C50844704   7.152   5.239   0.664 -0.2406  0.3796  0.0104
   59MOL   C50944705   7.224   5.346   0.755 -0.0573 -0.0707  0.1126
   59MOL   C51044706   7.373   5.301   0.774 -0.6956  0.3441  0.7676
   59MOL   N51144707   7.465   5.394   0.834 -0.1969  0.3497 -0.1475
   59MOL   H51244708   6.770   5.546   1.202 -0.1091 -1.7424  0.7219
   59MOL   H51344709   6.858   5.647   1.081  1.7399  0.9178  1.6532
   59MOL   H51444710   6.856   5.424   0.928 -2.0302  1.1183 -2.1233
   59MOL   H51544711   6.798   5.341   1.062  0.3719  0.9647  0.5590
   59MOL   H51644712   6.614   5.559   0.958  0.2310  1.7250  2.9929
   59MOL   H51744713   6.580   5.436   1.068  1.0653 -1.7617 -0.6157
   59MOL   H51844714   6.471   5.391   0.873 -0.9620 -1.3291  4.0537
   59MOL   H51944715   6.566   5.253   0.922  3.4024 -1.7603 -2.0968
   59MOL   H52044716   6.710   5.181   0.769 -2.0559 -1.8503 -1.1647
   59MOL   H52144717   6.702   5.162   0.509  0.0955 -1.3282  2.8440
   59MOL   H52244718   6.763   5.331   0.515 -1.0280 -0.3256 -1.5422
   59MOL   H52344719   6.888   5.086   0.614 -1.2553  0.5911  1.1427
   59MOL   H52444720   6.945   5.168   0.475  2.5575  0.9587  0.8124
   59MOL   H52544721   6.963   5.289   0.753 -0.6028 -1.4310  0.0947
   59MOL   H52644722   7.004   5.378   0.610 -0.0443  0.3012 -0.9438
   59MOL   H52744723   7.150   5.146   0.720  1.8979  0.8047  0.8176
   59MOL   H52844724   7.207   5.225   0.571 -3.1794  0.8437 -1.8640
   59MOL   H52944725   7.199   5.440   0.706  0.2326 -0.2059 -0.2974
   59MOL   H53044726   7.185   5.339   0.857 -2.6631 -1.0873 -0.9111
   59MOL   H53144727   7.408   5.278   0.674 -2.7655 -0.7571  0.2603
   59MOL   H53244728   7.377   5.205   0.826 -2.0445  0.6122  1.4062
   59MOL   H53344729   7.528   5.346   0.897 -1.3097 -0.7685  0.1545
   59MOL   C53444730   7.484   5.525   0.809  0.7142  0.1456 -0.2199
   59MOL   O53544731   7.421   5.587   0.721 -0.1519 -0.3197  0.1935
   59MOL   C53644732   7.592   5.589   0.898  0.1473  0.1323 -0.0470
   59MOL   C53744733   7.640   5.733   0.867  0.4481  0.2638  0.1784
   59MOL   C53844734   7.547   5.851   0.912 -0.4703  0.2045  0.3771
   59MOL   C53944735   7.544   5.887   1.058  0.0878  0.0066 -0.1919
   59MOL   C54044736   7.679   5.919   1.121 -0.4505  0.1836  0.7041
   59MOL   O54144737   0.049   5.984   1.052  0.4647 -0.3166 -0.3136
   59MOL   N54244738   7.703   5.886   1.247 -0.1179  0.1358  0.4051
   59MOL   C54344739   0.102   5.943   1.332 -0.0989  1.2749 -0.8943
   59MOL   C54444740   0.242   5.875   1.321  0.8966 -0.3122 -0.2617
   59MOL   C54544741   0.216   5.725   1.349  0.7646 -0.1962 -0.0526
   59MOL   C54644742   0.257   5.638   1.232 -0.0995 -0.5268 -0.2914
   59MOL   C54744743   0.196   5.493   1.229  0.6621 -0.1261 -0.1588
   59MOL   C54844744   0.204   5.430   1.088  0.1911 -0.0019  0.6135
   59MOL   N54944745   0.165   5.293   1.092 -0.5674  0.4783 -0.2175
   59MOL   H55044746   7.564   5.588   1.003  0.6533  1.3216  0.0961
   59MOL   H55144747   7.672   5.515   0.906  0.8088  0.6245 -1.8239
   59MOL   H55244748   0.035   5.742   0.902  0.2872  0.1625  0.6934
   59MOL   H55344749   7.647   5.730   0.759 -1.6700 -1.6114  0.0431
   59MOL   H55444750   7.447   5.832   0.873  0.4172  0.7813 -2.2203
   59MOL   H55544751   7.593   5.933   0.858  0.4839  0.1300  1.0503
   59MOL   H55644752   7.505   5.798   1.108 -1.8125  1.4856  0.9894
   59MOL   H55744753   7.471   5.966   1.073 -1.2414 -1.1424 -0.4736
   59MOL   H55844754   7.623   5.854   1.300  0.0267  1.9810  1.7810
   59MOL   H55944755   0.120   6.047   1.306  0.2820  1.1608 -1.1106
   59MOL   H56044756   0.088   5.935   1.439  1.7690 -1.1177 -0.7844
   59MOL   H56144757   0.309   5.906   1.242  1.8006  2.1621  1.4028
   59MOL   H56244758   0.296   5.915   1.407  1.3588  0.4538 -0.9015
   59MOL   H56344759   0.112   5.710   1.380 -0.1350  2.2520 -1.7206
   59MOL   H56444760   0.291   5.700   1.424  1.2788  3.1083  0.5818
   59MOL   H56544761   0.226   5.694   1.143 -0.9344  1.4308  1.1998
   59MOL   H56644762   0.366   5.639   1.229 -0.0839 -1.3224 -0.1541
   59MOL   H56744763   0.253   5.432   1.299 -0.1131 -0.4111  0.2335
   59MOL   H56844764   0.090   5.501   1.255  0.5055 -1.9517 -0.1683
   59MOL   H56944765   0.308   5.438   1.055  0.4477 -0.4042  1.3183
   59MOL   H57044766   0.142   5.485   1.017  0.4084  0.1700  0.5549
   59MOL   H57144767   0.239   5.226   1.110  0.0317  1.3753  0.7388
   59MOL   C57244768   0.046   5.236   1.066 -0.2369 -0.8095  0.7632
   59MOL   O57344769   7.646   5.295   1.035  0.0057  0.3375  0.1601
   59MOL   C57444770   0.047   5.081   1.081 -0.3233  0.7315  0.1060
   59MOL   C57544771   0.009   5.046   1.227  0.2230  0.2910  0.2532
   59MOL   C57644772   0.115   5.101   1.328 -0.1971 -0.3994 -0.0589
   59MOL   C57744773   0.112   5.038   1.471  0.3295  0.2665 -0.0611
   59MOL   C57844774   0.225   5.067   1.567  0.6294  0.7672 -0.8448
   59MOL   O57944775   0.326   5.132   1.528 -0.1076  0.5559 -0.5040
   59MOL   N58044776   0.213   4.996   1.682 -0.0659 -0.7372  0.0100
   59MOL   C58144777   0.324   4.986   1.772  0.1353  0.1653  0.1389
   59MOL   C58244778   0.428   4.883   1.731 -0.0730  0.1668 -0.1819
   59MOL   C58344779   0.518   4.836   1.842 -0.0781  0.3694  0.2722
   59MOL   C58444780   0.643   4.771   1.790  0.0772 -0.0145 -0.3976
   59MOL   C58544781   0.741   4.738   1.910 -0.1307 -0.1592  0.6733
   59MOL   C58644782   0.865   4.661   1.862  0.0784 -0.0168  0.5796
   59MOL   N58744783   0.947   4.631   1.980  0.3488 -0.5333  0.1000
   59MOL   H58844784   7.690   5.020   1.019 -0.8517  0.9297  0.4598
   59MOL   H58944785   0.142   5.045   1.041  0.1806  2.5673 -0.3894
   59MOL   H59044786   7.615   5.067   1.257  0.5093  0.5400  1.0760
   59MOL   H59144787   0.025   4.939   1.239  2.0716  0.7621  2.4094
   59MOL   H59244788   0.100   5.208   1.345 -1.0273 -1.1275  4.1190
   59MOL   H59344789   0.218   5.081   1.296  1.0758 -0.2404  3.7277
   59MOL   H59444790   0.128   4.932   1.453 -0.9306 -0.0088  0.3731
   59MOL   H59544791   0.021   5.073   1.520  0.0259 -0.3775 -0.1635
   59MOL   H59644792   0.136   4.930   1.685  0.3424 -1.1819  0.7249
   59MOL   H59744793   0.377   5.081   1.759  1.4412 -0.8635 -2.7083
   59MOL   H59844794   0.282   4.966   1.870 -0.3765  0.6739  0.0250
   59MOL   H59944795   0.377   4.790   1.707 -1.1881  0.5810  0.5221
   59MOL   H60044796   0.482   4.928   1.648  1.8143 -1.1501  0.2991
   59MOL   H60144797   0.466   4.762   1.903  4.1099 -2.4625  0.5563
   59MOL   H60244798   0.546   4.920   1.906  0.0045  0.3168  0.3043
   59MOL   H60344799   0.610   4.675   1.750 -3.1592  1.3970 -1.2787
   59MOL   H60444800   0.697   4.829   1.716 -0.0415  1.4047  0.6069
   59MOL   H60544801   0.779   4.831   1.953  0.2807 -1.6351  3.6421
   59MOL   H60644802   0.684   4.695   1.992  0.1456 -0.7877  0.5396
   59MOL   H60744803   0.913   4.730   1.792 -2.4912  1.9024  0.6010
   59MOL   H60844804   0.834   4.566   1.819  0.6488  0.5298 -1.0700
   59MOL   H60944805   0.921   4.679   2.065  0.9846 -2.7518  1.5815
   59MOL   C61044806   1.038   4.536   1.985 -0.2795 -1.0133  0.0878
   59MOL   O61144807   1.086   4.471   1.898 -0.1284  0.4051 -0.0694
   59MOL   C61244808   1.086   4.516   2.137 -0.7896  0.5510  0.0580
   59MOL   C61344809   1.237   4.541   2.146  0.2843 -0.2936  0.6621
   59MOL   C61444810   1.303   4.492   2.281 -0.2428 -0.3198  0.2365
   59MOL   C61544811   1.270   4.576   2.407 -0.4630  0.9260 -0.0937
   59MOL   C61644812   1.325   4.721   2.405  0.3082 -0.3997  0.2982
   59MOL   O61744813   1.384   4.766   2.302 -0.0529  0.1748  0.2491
   59MOL   N61844814   1.303   4.790   2.522  0.5668  0.6100 -0.7401
   59MOL   C61944815   1.353   4.917   2.558 -0.4539  0.1334  0.1405
   59MOL   C62044816   1.415   4.929   2.708  0.4408 -0.2468  0.4816
   59MOL   C62144817   1.456   5.068   2.757  0.1887  0.0915  0.8128
   59MOL   C62244818   1.535   5.075   2.888 -0.7757 -0.1820 -0.1021
   59MOL   C62344819   1.439   5.042   3.002 -0.2109 -0.9065  0.3828
   59MOL   C62444820   1.500   5.088   3.131 -0.2762  0.0485 -0.7650
   59MOL   N62544821   1.634   5.037   3.164  0.3259  0.0992 -0.0577
   59MOL   H62644822   1.024   4.562   2.214  0.9960  0.3183  1.6761
   59MOL   H62744823   1.072   4.409   2.150  0.2756  0.4902  0.7530
   59MOL   H62844824   1.274   4.504   2.050 -3.1109 -1.9871 -0.0859
   59MOL   H62944825   1.239   4.650   2.146 -1.5327 -0.2314 -0.0493
   59MOL   H63044826   1.410   4.478   2.264 -0.4785  1.2039 -2.7299
   59MOL   H63144827   1.272   4.388   2.297 -0.2335 -0.7675 -2.4088
   59MOL   H63244828   1.302   4.525   2.498  1.8656  0.7845 -0.9668
   59MOL   H63344829   1.161   4.587   2.405 -0.3923  1.5626 -0.6753
   59MOL   H63444830   1.240   4.748   2.589  1.5987 -2.0758 -1.4044
   59MOL   H63544831   1.428   4.954   2.487 -1.0144  1.0021 -0.0101
   59MOL   H63644832   1.269   4.984   2.543 -0.1707  0.3053 -0.7514
   59MOL   H63744833   1.338   4.899   2.780 -0.0574  0.8004  0.3886
   59MOL   H63844834   1.499   4.860   2.715  1.9132  1.3594 -0.9456
   59MOL   H63944835   1.365   5.128   2.748  0.0094 -0.1859  0.7441
   59MOL   H64044836   1.522   5.102   2.677 -0.5724 -0.9834 -0.2864
   59MOL   H64144837   1.618   5.004   2.886 -1.1445 -0.6971  2.0685
   59MOL   H64244838   1.581   5.171   2.913  0.7642 -1.2174  1.1262
   59MOL   H64344839   1.339   5.085   2.993 -0.1766 -0.6105  1.4111
   59MOL   H64444840   1.412   4.936   3.001 -2.3323 -0.3857 -1.0864
   59MOL   H64544841   1.438   5.072   3.219  0.5445 -0.0739 -0.1999
   59MOL   H64644842   1.503   5.196   3.147  0.7842 -0.1770  0.6616
   59MOL   H64744843   1.662   4.961   3.103  0.3385  1.0685 -1.2757
   59MOL   C64844844   1.715   5.094   3.248 -0.0048  0.1547  0.0174
   59MOL   O64944845   1.683   5.191   3.328 -0.0837 -0.3611  0.2190
   59MOL   C65044846   1.855   5.031   3.269 -0.0306 -0.4118 -0.0376
   59MOL   C65144847   1.967   5.065   3.165  0.6059  0.0235  0.6580
   59MOL   C65244848   2.047   5.187   3.206 -1.0013 -0.5122 -0.2987
   59MOL   C65344849   2.167   5.236   3.120  0.5588 -0.2879 -1.2295
   59MOL   C65444850   2.270   5.122   3.103  0.6360  1.3294  0.7686
   59MOL   O65544851   2.324   5.074   3.201 -0.1037  0.3721  0.0311
   59MOL   N65644852   2.296   5.060   2.990 -0.1391  0.7025 -0.1190
   59MOL   C65744853   2.402   4.958   2.971  0.3920  0.0523  0.3984
   59MOL   C65844854   2.547   5.010   2.987  0.1981 -0.1791  1.0288
   59MOL   C65944855   2.652   4.903   2.971  0.1987  0.0366 -1.0910
   59MOL   C66044856   2.682   4.827   3.099 -0.3333 -0.2703 -0.0314
   59MOL   C66144857   2.799   4.727   3.088  0.5605 -0.2776  0.5362
   59MOL   C66244858   2.798   4.618   3.198 -0.4970 -0.4216 -0.6447
   59MOL   N66344859   2.685   4.533   3.205  0.3557  0.6568 -0.5626
   59MOL   H66444860   1.891   5.076   3.362 -2.0190  0.4232  0.3519
   59MOL   H66544861   1.850   4.923   3.282  2.0082 -0.2274  2.7605
   59MOL   H66644862   2.035   4.980   3.163  0.1249 -0.4543  3.2189
   59MOL   H66744863   1.930   5.065   3.063  1.7879 -2.1742  0.1961
   59MOL   H66844864   2.098   5.166   3.300  1.9594  3.2306 -0.9354
   59MOL   H66944865   1.983   5.272   3.231  1.3791  1.3567 -0.3791
   59MOL   H67044866   2.220   5.318   3.167  1.2002  0.5646 -3.3972
   59MOL   H67144867   2.132   5.266   3.021 -1.1684  0.0342 -0.5398
   59MOL   H67244868   2.241   5.075   2.907 -1.5800 -0.9320  0.5182
   59MOL   H67344869   2.381   4.879   3.044  0.3724  1.4084  1.8775
   59MOL   H67444870   2.396   4.920   2.869  1.1967 -1.2728  0.8378
   59MOL   H67544871   2.565   5.095   2.920  0.8655 -1.6787 -0.7425
   59MOL   H67644872   2.553   5.043   3.090 -0.1118  0.5187  0.8283
   59MOL   H67744873   2.746   4.951   2.942  1.6092 -2.0183 -0.0365
   59MOL   H67844874   2.632   4.837   2.886  0.3635  0.8508 -1.7721
   59MOL   H67944875   2.697   4.888   3.188  0.7758 -0.7996  0.1478
   59MOL   H68044876   2.593   4.770   3.122 -1.5241  1.1978 -0.8775
   59MOL   H68144877   2.785   4.681   2.990 -1.7732 -0.4696  0.9162
   59MOL   H68244878   2.894   4.776   3.068  0.3603  0.0410  0.3682
   59MOL   H68344879   2.821   4.661   3.295 -1.2454  0.8006 -1.0080
   59MOL   H68444880   2.885   4.555   3.177 -0.8970 -1.2207  0.0550
   59MOL   H68544881   2.621   4.532   3.127  0.1872  0.4033 -0.4253
   59MOL   C68644882   2.654   4.452   3.304  0.4397  0.0291  0.4910
   59MOL   O68744883   2.722   4.427   3.405 -0.8591  0.2341 -0.3360
   59MOL   C68844884   2.520   4.383   3.288  0.2765 -0.5504  0.0187
   59MOL   C68944885   2.537   4.238   3.253 -0.3745 -0.3266 -0.0130
   59MOL   C69044886   2.576   4.200   3.112 -0.2536  0.2308  0.0775
   59MOL   C69144887   2.686   4.093   3.096  1.1189  0.0580  0.1652
   59MOL   C69244888   2.822   4.149   3.135  0.5762 -0.5206  0.3773
   59MOL   O69344889   2.894   4.208   3.054 -0.1923 -0.3005  0.1012
   59MOL   N69444890   2.875   4.123   3.255 -0.0492  0.1116  0.0010
   59MOL   C69544891   3.011   4.157   3.280 -0.0717  0.0518  0.0081
   59MOL   C69644892   3.024   4.292   3.348  0.3972 -0.5366  0.2208
   59MOL   C69744893   3.181   4.329   3.362  0.0908 -0.7298  0.2156
   59MOL   C69844894   3.203   4.458   3.453  0.7952  0.1518 -0.5187
   59MOL   C69944895   3.138   4.583   3.396 -0.9616  0.3098  0.2022
   59MOL   C70044896   3.111   4.678   3.514  0.5008  0.1417  0.6397
   59MOL   N70144897   3.077   4.812   3.459 -1.0591  0.0376  0.4402
   59MOL   H70244898   2.457   4.392   3.376  1.2554 -1.1354  0.7853
   59MOL   H70344899   2.458   4.433   3.213 -0.4657 -0.4423  0.7050
   59MOL   H70444900   2.596   4.195   3.334  2.1213 -0.8641 -2.0765
   59MOL   H70544901   2.438   4.191   3.260 -0.5900 -0.0679 -1.1811
   59MOL   H70644902   2.603   4.292   3.061  0.1342  0.9649  1.5628
   59MOL   H70744903   2.484   4.162   3.068  0.3181 -0.1518 -0.7927
   59MOL   H70844904   2.693   4.061   2.993 -2.8586 -1.3106  0.2578
   59MOL   H70944905   2.658   4.007   3.157  2.7839  0.4252  1.5082
   59MOL   H71044906   2.822   4.054   3.307 -0.0419  0.9946  1.1918
   59MOL   H71144907   3.055   4.076   3.339 -0.1578 -0.1739 -0.2412
   59MOL   H71244908   3.077   4.151   3.193  2.7152  1.2212  1.9393
   59MOL   H71344909   2.980   4.364   3.280 -0.1235 -0.6182  0.4667
   59MOL   H71444910   2.976   4.287   3.446  1.7331 -2.5350  0.8091
   59MOL   H71544911   3.223   4.335   3.262 -0.6500 -0.3012 -0.0759
   59MOL   H71644912   3.223   4.245   3.417 -1.8911 -2.4909 -0.8871
   59MOL   H71744913   3.167   4.443   3.555  2.7272  0.4771  0.2385
   59MOL   H71844914   3.309   4.469   3.472  0.5533 -0.6901  1.4375
   59MOL   H71944915   3.200   4.631   3.321 -1.2892 -0.9527 -0.9020
   59MOL   H72044916   3.043   4.562   3.346  0.1274  0.2178 -1.8980
   59MOL   H72144917   3.192   4.686   3.587 -0.6890  1.8079  1.8157
   59MOL   H72244918   3.034   4.646   3.584 -0.1167 -0.2205 -0.1891
   59MOL   H72344919   3.127   4.835   3.374 -1.2710  0.2845  0.3807
   59MOL   C72444920   3.015   4.899   3.538  0.0525  0.1483  0.4372
   59MOL   O72544921   2.983   4.875   3.654  0.0011 -0.6058  0.4265
   59MOL   C72644922   2.968   5.027   3.469  0.3527  1.2353 -0.2592
   59MOL   C72744923   2.811   5.032   3.430 -0.4721 -0.2627 -0.2021
   59MOL   C72844924   2.749   5.167   3.383 -0.1402  0.0461 -0.2277
   59MOL   C72944925   2.596   5.161   3.359 -0.0752 -0.0228  0.6639
   59MOL   C73044926   2.502   5.169   3.484 -0.5592  0.2928  0.1239
   59MOL   O73144927   2.539   5.195   3.596 -0.3390  0.3783 -0.2858
   59MOL   N73244928   2.373   5.146   3.459 -0.4769  0.3752 -0.3225
   59MOL   C73344929   2.265   5.171   3.553 -0.3126  0.3758  0.1416
   59MOL   C73444930   2.243   5.049   3.651  0.5474 -0.5187 -0.4999
   59MOL   C73544931   2.122   5.056   3.740 -0.7957  0.3637  0.5504
   59MOL   C73644932   1.983   5.055   3.670 -0.3131 -0.6862  0.0216
   59MOL   C73744933   1.865   5.086   3.754 -0.5535  0.3026  0.2291
   59MOL   C73844934   1.734   5.059   3.686  0.4002  0.7758  0.5028
   59MOL   N73944935   1.626   5.063   3.782 -0.3607 -0.1489  0.5303
   59MOL   H74044936   3.001   5.117   3.520  3.1398 -0.5649  1.2865
   59MOL   H74144937   3.029   5.026   3.379 -1.1691  1.0256 -1.3136
   59MOL   H74244938   2.811   4.949   3.359 -0.5593  1.3639 -2.1645
   59MOL   H74344939   2.745   5.001   3.511 -1.3576 -2.9536 -1.8855
   59MOL   H74444940   2.794   5.190   3.286  0.2946 -0.4050 -0.1345
   59MOL   H74544941   2.788   5.253   3.438  1.6985 -0.3040 -0.9603
   59MOL   H74644942   2.570   5.072   3.302  0.3933  1.0418 -1.2558
   59MOL   H74744943   2.564   5.243   3.295 -1.0908  0.7178  2.0774
   59MOL   H74844944   2.347   5.126   3.364  1.6151  0.3954 -0.9218
   59MOL   H74944945   2.298   5.259   3.610 -0.4364  0.4005  0.1744
   59MOL   H75044946   2.176   5.204   3.500  0.2255  0.6123 -0.6313
   59MOL   H75144947   2.224   4.965   3.584 -0.0210 -0.7384 -0.0661
   59MOL   H75244948   2.331   5.026   3.711  0.8630  1.5603 -0.1130
   59MOL   H75344949   2.143   5.152   3.787  1.7002 -0.0214  0.2684
   59MOL   H75444950   2.126   4.981   3.818 -1.1163 -1.8027 -1.4453
   59MOL   H75544951   1.981   5.122   3.584 -2.4275 -2.2992 -1.2332
   59MOL   H75644952   1.972   4.959   3.621 -0.3677 -1.6114  1.7951
   59MOL   H75744953   1.878   5.024   3.843  0.6324  0.8528  0.4485
   59MOL   H75844954   1.862   5.188   3.791 -0.9650  0.8309 -1.2396
   59MOL   H75944955   1.719   4.969   3.627 -3.1371  1.4528  0.2621
   59MOL   H76044956   1.724   5.141   3.614 -0.2672  0.2166 -0.0484
   59MOL   H76144957   1.539   5.035   3.739  0.2864  0.7855 -1.4836
   59MOL   H76244958   1.605   5.156   3.816  0.2317  0.0659  0.3083
   60MOL     C144959   5.591   0.159   0.564 -0.9527  0.5940  0.1316
   60MOL     O244960   5.643   0.264   0.530  0.1594  0.1953 -0.4234
   60MOL     C344961   5.658   0.033   0.540  0.1570 -0.4226  0.3586
   60MOL     C444962   5.635   7.693   0.394  0.7747  0.0069 -0.3384
   60MOL     C544963   5.704   7.558   0.367  0.0823  0.4223  0.4595
   60MOL     C644964   5.686   7.487   0.236 -0.4917 -0.0182  0.3191
   60MOL     C744965   5.787   7.531   0.136 -0.0623  0.3749 -0.2678
   60MOL     O844966   5.835   7.646   0.136 -0.1030 -0.2789 -0.0092
   60MOL     N944967   5.835   7.440   0.051  0.4967  0.5009 -0.0655
   60MOL    C1044968   5.951   7.451   7.669 -0.3400 -0.2654  0.0732
   60MOL    C1144969   5.982   7.316   7.584  0.3919  0.7862 -1.0621
   60MOL    C1244970   5.972   7.183   7.667 -0.5085 -0.0813  0.7442
   60MOL    C1344971   6.027   7.071   7.573 -0.7438 -0.1993 -0.1017
   60MOL    C1444972   6.031   6.936   7.632  0.0805 -0.1840 -0.3868
   60MOL    C1544973   5.904   6.856   7.638  0.1811 -0.5583  0.4449
   60MOL    N1644974   5.841   6.841   7.506  0.1990  0.2332  0.4210
   60MOL    H1744975   5.764   0.048   0.558 -0.5938  1.8091  3.1557
   60MOL    H1844976   5.617   7.668   0.610 -3.0431  0.6106 -0.3592
   60MOL    H1944977   5.533   7.666   0.367  0.1100  1.8875  0.2757
   60MOL    H2044978   5.670   0.063   0.327 -0.8054  0.2676 -0.8690
   60MOL    H2144979   5.662   7.489   0.440  1.3251 -0.0431  0.7567
   60MOL    H2244980   5.811   7.562   0.387  0.3997 -0.5758 -0.9196
   60MOL    H2344981   5.582   7.495   0.202 -0.3373  1.2097  0.1244
   60MOL    H2444982   5.708   7.380   0.236  1.9537  0.4571 -0.1568
   60MOL    H2544983   5.802   7.345   0.067  1.1119  0.5534  1.5822
   60MOL    H2644984   5.931   7.538   7.607  3.0964 -0.1737 -0.9937
   60MOL    H2744985   6.033   7.478   0.027  0.1577  1.0064 -1.0499
   60MOL    H2844986   5.899   7.307   7.514 -2.0543 -1.7909  2.0423
   60MOL    H2944987   6.084   7.332   7.551  0.6293  0.6024 -0.4197
   60MOL    H3044988   5.874   7.174   0.005 -1.4680 -0.7395 -1.3743
   60MOL    H3144989   6.049   7.179   0.037  0.9681 -2.7995 -0.7606
   60MOL    H3244990   5.967   7.069   7.482  1.3856  1.2729 -1.5935
   60MOL    H3344991   6.122   7.100   7.530 -1.0251  0.6168 -0.1850
   60MOL    H3444992   6.094   6.875   7.567  0.6666  1.3213 -1.2545
   60MOL    H3544993   6.084   6.936   0.019 -0.3250  0.7578 -0.1569
   60MOL    H3644994   5.834   6.904   7.706 -0.5622 -2.5923  1.1298
   60MOL    H3744995   5.931   6.759   7.679 -1.0742 -1.3926 -0.6596
   60MOL    H3844996   5.900   6.791   7.442  0.1094  0.1051  0.4363
   60MOL    H3944997   5.510   0.154   0.637 -0.9265 -1.7833  0.0394
   60MOL    C4044998   5.720   6.887   7.472  0.3113  0.9760  0.2316
   60MOL    O4144999   5.656   6.955   7.555  0.5498 -0.2672 -0.4431
   60MOL    C4245000   5.663   6.864   7.332 -0.1349 -0.0021 -0.4918
   60MOL    C4345001   5.569   6.967   7.272  0.2859 -0.7743  0.8622
   60MOL    C4445002   5.554   6.949   7.119 -0.6041 -0.4271  0.8388
   60MOL    C4545003   5.467   7.059   7.054 -0.1156  0.4230 -0.3196
   60MOL    C4645004   5.469   7.046   6.904  0.6863 -0.4355 -0.7394
   60MOL    O4745005   5.526   6.954   6.845  0.1666 -0.2016  0.4321
   60MOL    N4845006   5.398   7.137   6.832 -0.1927 -0.0780  0.1041
   60MOL    C4945007   5.374   7.130   6.688  0.4230  0.0775 -0.1131
   60MOL    C5045008   5.456   7.231   6.607  0.3689 -0.1127 -0.7310
   60MOL    C5145009   5.431   7.218   6.453  0.6507  0.6532 -0.3618
   60MOL    C5245010   5.499   7.318   6.365  0.3314  0.2532 -0.3518
   60MOL    C5345011   5.651   7.293   6.359 -0.7602  0.1386 -0.3515
   60MOL    C5445012   5.720   7.337   6.226  0.3786  0.1116  0.1623
   60MOL    N5545013   5.673   7.468   6.176  0.3645  0.1719  0.5770
   60MOL    H5645014   5.754   6.871   7.272  0.7574  1.3306  0.9678
   60MOL    H5745015   5.630   6.761   7.320 -1.0555  0.3311 -0.8170
   60MOL    H5845016   5.477   6.961   7.329  0.5286 -0.5190  1.2807
   60MOL    H5945017   5.615   7.063   7.294 -0.2113 -0.7206  1.6359
   60MOL    H6045018   5.521   6.849   7.089 -0.5986  0.2846 -1.7337
   60MOL    H6145019   5.656   6.952   7.080 -0.9382  2.1119  0.0546
   60MOL    H6245020   5.500   7.155   7.093 -0.7455  0.3318  0.4438
   60MOL    H6345021   5.364   7.041   7.087  0.2387 -0.4892  0.3064
   60MOL    H6445022   5.329   7.186   6.888 -0.9154  0.6920 -1.4564
   60MOL    H6545023   5.384   7.027   6.656  0.9780 -0.2875  1.1932
   60MOL    H6645024   5.268   7.155   6.679  0.1022 -1.2815 -0.1544
   60MOL    H6745025   5.445   7.334   6.639  3.8054  0.0130  0.2386
   60MOL    H6845026   5.562   7.218   6.630  0.3896  0.2874 -0.6084
   60MOL    H6945027   5.324   7.220   6.435  0.6692  0.0658 -0.5248
   60MOL    H7045028   5.458   7.117   6.424  0.1322  0.0782  1.1058
   60MOL    H7145029   5.448   7.318   6.268  0.3252  0.3371 -0.3484
   60MOL    H7245030   5.486   7.423   6.391  1.8050  0.8228 -1.8942
   60MOL    H7345031   5.701   7.339   6.445 -1.8454 -0.5683  0.6628
   60MOL    H7445032   5.662   7.185   6.350  1.5453  0.2752  0.5679
   60MOL    H7545033   5.715   7.264   6.145  2.4895 -1.2160  1.1640
   60MOL    H7645034   5.827   7.346   6.248  0.1875 -0.0074  1.1306
   60MOL    H7745035   5.592   7.475   6.116  0.5111  1.4901  0.5025
   60MOL    C7845036   5.715   7.596   6.190  0.1522  0.2346 -0.5218
   60MOL    O7945037   5.795   7.632   6.274  0.3216  0.5285 -0.1959
   60MOL    C8045038   5.637   7.696   6.113 -1.0241  0.3828 -0.5641
   60MOL    C8145039   5.701   0.130   6.101 -0.3443 -0.0557  0.0051
   60MOL    C8245040   5.634   0.207   5.985 -0.3621  0.1108 -0.7762
   60MOL    C8345041   5.699   0.346   5.970  0.0127  0.4655  0.3239
   60MOL    C8445042   5.689   0.434   6.089  0.4617  0.1522  0.0001
   60MOL    O8545043   5.591   0.431   6.164  0.3950  0.7529 -0.3046
   60MOL    N8645044   5.790   0.523   6.108 -0.2862  0.4783 -0.7851
   60MOL    C8745045   5.785   0.627   6.204 -0.4423 -0.8297 -0.1358
   60MOL    C8845046   5.908   0.702   6.209  0.3619 -0.5293 -0.1934
   60MOL    C8945047   5.914   0.824   6.303 -0.2871  0.0656  0.1095
   60MOL    C9045048   6.057   0.872   6.336 -0.2910  0.0852 -0.2623
   60MOL    C9145049   6.138   0.937   6.214 -0.5802  0.4579 -0.3419
   60MOL    C9245050   6.072   1.071   6.177  1.0579  0.8156  0.6495
   60MOL    N9345051   6.146   1.140   6.066  0.4139 -0.5163 -0.0510
   60MOL    H9445052   5.619   7.655   6.014 -1.8890  0.9393 -0.6417
   60MOL    H9545053   5.541   7.707   6.164 -0.2952 -0.4928  1.0314
   60MOL    H9645054   5.673   0.182   6.193 -2.6245  1.5494 -1.5406
   60MOL    H9745055   5.810   0.127   6.108 -0.5119  0.2156  3.7916
   60MOL    H9845056   5.526   0.214   6.000 -0.4553  0.1519 -1.4614
   60MOL    H9945057   5.664   0.158   5.892  1.9228  0.6572 -0.3689
   60MOL   H10045058   5.655   0.385   5.878  2.2166  2.0833 -0.1121
   60MOL   H10145059   5.802   0.325   5.941 -0.0225  0.5913  0.0981
   60MOL   H10245060   5.854   0.515   6.030 -0.0293  0.5167 -0.5803
   60MOL   H10345061   5.708   0.694   6.166 -1.6641 -1.7216  0.7416
   60MOL   H10445062   5.764   0.596   6.307 -0.4345  0.6412  0.3227
   60MOL   H10545063   5.994   0.643   6.237  0.2987  0.2964  1.8297
   60MOL   H10645064   5.927   0.735   6.107 -1.0196 -0.7799 -0.5444
   60MOL   H10745065   5.862   0.799   6.395  2.0920  2.6726  2.2955
   60MOL   H10845066   5.856   0.905   6.257  1.4294 -0.1590 -2.5651
   60MOL   H10945067   6.045   0.947   6.415 -0.3312  0.1835 -0.3611
   60MOL   H11045068   6.117   0.785   6.362 -1.9584 -0.8008  0.6967
   60MOL   H11145069   6.240   0.964   6.243 -0.2609  1.2590 -2.1132
   60MOL   H11245070   6.155   0.869   6.130  1.5709  1.6593 -0.9267
   60MOL   H11345071   6.060   1.133   6.266 -0.1125  2.7148 -0.7953
   60MOL   H11445072   5.976   1.047   6.131  2.0119 -1.1367 -0.3775
   60MOL   H11545073   6.242   1.113   6.055  0.9562  1.5728 -0.6946
   60MOL   C11645074   6.107   1.249   5.998 -0.5556 -0.3613 -0.0960
   60MOL   O11745075   5.985   1.289   6.006 -0.3945  0.5663  0.3345
   60MOL   C11845076   6.210   1.314   5.905 -0.3059  0.2004  0.4979
   60MOL   C11945077   6.148   1.342   5.769 -0.5285  0.4072  1.0325
   60MOL   C12045078   6.124   1.204   5.696 -0.2279 -0.5045 -0.6723
   60MOL   C12145079   6.080   1.224   5.552 -0.0749 -0.7037 -0.4035
   60MOL   C12245080   6.073   1.098   5.463 -0.3528 -0.4723  0.3917
   60MOL   O12345081   6.170   1.030   5.432 -0.7218  0.1128  0.1264
   60MOL   N12445082   5.956   1.060   5.419 -0.4411  0.0817 -0.4580
   60MOL   C12545083   5.921   0.944   5.339  0.3603  0.2917 -0.3890
   60MOL   C12645084   5.971   0.939   5.197  0.0068 -0.1179  0.2962
   60MOL   C12745085   5.940   0.808   5.124  0.5312  0.1754  0.2097
   60MOL   C12845086   5.963   0.817   4.977 -0.2061  0.1445  0.5806
   60MOL   C12945087   5.987   0.694   4.895  0.1199  0.4575 -0.0683
   60MOL   C13045088   5.994   0.717   4.744 -0.1441  0.3922  0.1243
   60MOL   N13145089   6.101   0.808   4.699  0.0835 -0.2437 -0.6058
   60MOL   H13245090   6.235   1.410   5.950 -1.3097 -0.3376  2.2462
   60MOL   H13345091   6.309   1.269   5.905 -0.4610 -0.1565  0.9969
   60MOL   H13445092   6.057   1.403   5.772 -0.7794  0.0472  0.6369
   60MOL   H13545093   6.226   1.390   5.710 -1.2040  3.3882  2.4599
   60MOL   H13645094   6.038   1.156   5.741 -0.6075 -1.3064 -2.2298
   60MOL   H13745095   6.221   1.154   5.704 -0.1768 -0.2370  0.3813
   60MOL   H13845096   6.152   1.289   5.503  0.9912 -0.4496  1.4806
   60MOL   H13945097   5.987   1.281   5.554  0.5467  0.3157 -0.3713
   60MOL   H14045098   5.875   1.118   5.440 -1.3829 -2.0912  2.1847
   60MOL   H14145099   5.947   0.858   5.400  1.0661  0.5745 -0.2914
   60MOL   H14245100   5.812   0.936   5.347  0.3204 -0.4450 -1.5495
   60MOL   H14345101   5.950   1.028   5.139  1.5536 -1.7082 -2.8156
   60MOL   H14445102   6.079   0.940   5.180 -0.1181  0.8018 -0.4749
   60MOL   H14545103   5.841   0.763   5.136  0.4418 -0.3298 -2.1884
   60MOL   H14645104   6.005   0.730   5.164  0.6728 -0.6399 -1.5471
   60MOL   H14745105   5.881   0.869   4.928 -0.7772 -1.1976  0.0846
   60MOL   H14845106   6.044   0.887   4.959  0.3180 -0.7223 -0.4686
   60MOL   H14945107   6.077   0.648   4.936 -0.6435 -0.5262  0.5307
   60MOL   H15045108   5.915   0.617   4.924  3.0720 -1.1500  3.4241
   60MOL   H15145109   5.900   0.731   4.692 -1.0221 -0.9199  1.3065
   60MOL   H15245110   6.009   0.622   4.692 -0.5435 -0.7362  2.0287
   60MOL   H15345111   6.180   0.821   4.761 -0.7713  1.7422  0.1261
   60MOL   C15445112   6.110   0.881   4.588  0.1457  0.3585 -0.1419
   60MOL   O15545113   6.006   0.909   4.526  0.2539  0.2064  0.1778
   60MOL   C15645114   6.240   0.925   4.527 -0.7087  0.1738  0.3501
   60MOL   C15745115   6.264   0.878   4.384 -0.4795  0.2777 -0.5835
   60MOL   C15845116   6.412   0.897   4.347  0.1760 -0.0962 -0.0602
   60MOL   C15945117   6.407   0.872   4.189 -0.2021  0.3933  0.5993
   60MOL   C16045118   6.545   0.867   4.116 -0.0364 -0.0601  0.5445
   60MOL   O16145119   6.649   0.908   4.167 -0.1118 -0.1650  0.1757
   60MOL   N16245120   6.542   0.809   3.998 -0.4663 -0.7134  0.4907
   60MOL   C16345121   6.641   0.829   3.895  0.6501 -0.1137  0.1985
   60MOL   C16445122   6.595   0.755   3.766 -0.3302 -1.0646 -0.1167
   60MOL   C16545123   6.580   0.601   3.791 -0.2816 -0.3088 -0.4319
   60MOL   C16645124   6.586   0.519   3.664 -0.1594  0.7834 -0.2945
   60MOL   C16745125   6.606   0.374   3.690 -0.0346 -0.5011 -0.2358
   60MOL   C16845126   6.648   0.286   3.572  0.3745 -0.1593  0.3152
   60MOL   N16945127   6.623   0.141   3.591  0.3183  0.8402 -0.0183
   60MOL   H17045128   6.245   1.034   4.534 -0.8487  0.1459  0.8988
   60MOL   H17145129   6.317   0.878   4.587 -1.3101 -0.3477  0.7192
   60MOL   H17245130   6.227   0.775   4.380 -1.2111  0.4546  1.3460
   60MOL   H17345131   6.200   0.935   4.317 -0.9100  0.9995  0.4313
   60MOL   H17445132   6.474   0.823   4.399 -1.2987 -1.5486 -0.3430
   60MOL   H17545133   6.450   0.996   4.374  0.9572 -1.1060  2.7715
   60MOL   H17645134   6.339   0.946   4.147  0.3229 -0.7264 -2.3262
   60MOL   H17745135   6.348   0.781   4.187  0.0277  0.2626 -0.5502
   60MOL   H17845136   6.461   0.754   3.974  0.6800 -2.2628  0.0836
   60MOL   H17945137   6.649   0.937   3.887 -0.4521  0.2675  3.4040
   60MOL   H18045138   6.738   0.789   3.925  0.9281  0.4399  0.0479
   60MOL   H18145139   6.500   0.785   3.723 -0.4975 -2.8322 -1.0528
   60MOL   H18245140   6.662   0.772   3.682  1.2334  3.6580  1.9092
   60MOL   H18345141   6.491   0.582   3.850 -1.0794  0.6542 -1.3131
   60MOL   H18445142   6.657   0.575   3.864 -0.6198 -1.9750 -0.6558
   60MOL   H18545143   6.503   0.542   3.597 -1.1293  0.3670  0.7452
   60MOL   H18645144   6.672   0.553   3.608  0.2688 -2.2979 -1.5652
   60MOL   H18745145   6.659   0.357   3.784 -2.0358  0.6539  1.1387
   60MOL   H18845146   6.507   0.333   3.712 -0.1753 -1.5918 -2.6956
   60MOL   H18945147   6.751   0.300   3.539 -0.0070  0.0047 -0.8427
   60MOL   H19045148   6.576   0.311   3.494 -1.6438 -3.8678  0.8720
   60MOL   H19145149   6.530   0.101   3.589  1.3175 -1.5396 -2.2337
   60MOL   C19245150   6.714   0.045   3.585  0.3242  0.0314 -0.2018
   60MOL   O19345151   6.833   0.059   3.582 -0.0981  0.3731  0.2089
   60MOL   C19445152   6.656   7.606   3.571 -0.3407 -0.1978  0.4699
   60MOL   C19545153   6.695   7.528   3.703 -0.3107 -0.0045 -1.4646
   60MOL   C19645154   6.613   7.580   3.836  0.2306  0.0563 -0.6980
   60MOL   C19745155   6.461   7.581   3.813 -0.5704  0.1933 -0.0664
   60MOL   C19845156   6.405   7.452   3.762 -0.1825 -0.1687  0.2313
   60MOL   O19945157   6.418   7.345   3.824 -0.2881 -0.4288  0.2956
   60MOL   N20045158   6.349   7.463   3.641 -0.7952  0.0153  0.0477
   60MOL   C20145159   6.276   7.362   3.561 -0.1119  0.6453  0.0389
   60MOL   C20245160   6.184   7.438   3.456  0.6522  0.2663 -0.3085
   60MOL   C20345161   6.092   7.543   3.514 -0.4062  0.3961  0.0514
   60MOL   C20445162   6.000   7.595   3.412 -0.5178 -0.2527  0.7205
   60MOL   C20545163   5.904   7.708   3.461 -0.1039 -0.1263 -0.0716
   60MOL   C20645164   5.793   0.051   3.363  0.4966  0.6333 -0.2822
   60MOL   N20745165   5.725   0.175   3.403 -0.0123 -0.6996 -0.1730
   60MOL   H20845166   6.548   7.609   3.558 -0.1026  3.8940 -1.3562
   60MOL   H20945167   6.692   7.564   3.478 -1.2154  1.2645 -0.5558
   60MOL   H21045168   6.670   7.423   3.688  1.3988 -0.2610 -2.6974
   60MOL   H21145169   6.803   7.533   3.719 -0.2715  1.6138 -2.1212
   60MOL   H21245170   6.652   7.671   3.882  0.1751 -0.7414  0.9519
   60MOL   H21345171   6.628   7.513   3.920  1.2412  1.0445 -0.0756
   60MOL   H21445172   6.425   7.661   3.749 -0.0345 -1.3767 -2.4100
   60MOL   H21545173   6.411   7.603   3.907  0.7108 -1.5042  1.0362
   60MOL   H21645174   6.361   7.548   3.587 -0.2352 -1.4412 -2.1561
   60MOL   H21745175   6.353   7.295   3.523  2.3577  0.4118  5.0220
   60MOL   H21845176   6.209   7.308   3.628  0.5606  1.2538  1.2263
   60MOL   H21945177   6.252   7.488   3.387  2.7911 -1.6724  0.3182
   60MOL   H22045178   6.120   7.368   3.402 -0.1342  1.8175 -1.4037
   60MOL   H22145179   6.148   7.630   3.545 -1.4370  1.3061 -0.6117
   60MOL   H22245180   6.031   7.498   3.592 -0.4861  0.4046 -0.0060
   60MOL   H22345181   6.056   7.640   3.330  0.4513 -2.3221  0.2177
   60MOL   H22445182   5.945   7.507   3.380  0.4863 -0.9584  0.8945
   60MOL   H22545183   5.862   7.662   3.550 -0.8092 -1.2008 -0.9425
   60MOL   H22645184   5.962   0.084   3.499  0.0367 -0.1449 -0.2409
   60MOL   H22745185   5.717   7.682   3.350  1.0825  0.2296 -1.4647
   60MOL   H22845186   5.842   0.058   3.265 -0.2022  0.8330 -0.6216
   60MOL   H22945187   5.745   0.260   3.352  2.8219  0.3391  2.4770
   60MOL   C23045188   5.665   0.187   3.521 -0.5612 -0.3738  0.1903
   60MOL   O23145189   5.613   0.090   3.574 -0.6836 -0.0135 -0.3035
   60MOL   C23245190   5.640   0.332   3.569 -0.2383 -0.3910  0.3588
   60MOL   C23345191   5.520   0.356   3.662 -0.0121 -0.0172 -0.1866
   60MOL   C23445192   5.381   0.355   3.594 -0.2291 -0.3581 -0.3414
   60MOL   C23545193   5.345   0.224   3.510 -0.3711 -0.5021  0.2922
   60MOL   C23645194   5.204   0.235   3.465 -0.6082 -0.7747 -0.6496
   60MOL   O23745195   5.176   0.274   3.347 -0.2179  0.3789 -0.4455
   60MOL   N23845196   5.110   0.195   3.546 -0.6975  0.1330  0.1394
   60MOL   C23945197   4.967   0.205   3.526  1.1155  0.2290  0.3826
   60MOL   C24045198   4.895   0.241   3.654  0.8765  0.1370  0.5100
   60MOL   C24145199   4.739   0.248   3.656  0.4218 -0.4847  0.4264
   60MOL   C24245200   4.681   0.307   3.785 -0.2776 -0.4211  0.8241
   60MOL   C24345201   4.530   0.332   3.786 -0.6142  0.2547  0.0523
   60MOL   C24445202   4.479   0.401   3.918 -0.3228  0.0282 -0.0267
   60MOL   N24545203   4.335   0.410   3.916  0.1345 -0.3310  0.3554
   60MOL   H24645204   5.723   0.354   3.635  0.3661 -1.4428 -0.0460
   60MOL   H24745205   5.651   0.402   3.486  0.3617  0.5549  1.2260
   60MOL   H24845206   5.522   0.276   3.736 -0.5879 -0.6199 -0.8107
   60MOL   H24945207   5.534   0.449   3.717  1.6383 -0.6122  0.4231
   60MOL   H25045208   5.345   0.443   3.541  0.7945 -1.3187 -2.7250
   60MOL   H25145209   5.322   0.350   3.685  0.5064 -1.7887  0.0655
   60MOL   H25245210   5.364   0.134   3.569  1.2260 -0.4265 -0.0728
   60MOL   H25345211   5.409   0.213   3.422  0.0493 -1.6390  0.7219
   60MOL   H25445212   5.145   0.168   3.637  0.2378 -0.4199 -0.3851
   60MOL   H25545213   4.941   0.284   3.456 -1.1490 -0.3313  0.5582
   60MOL   H25645214   4.928   0.115   3.479 -2.2241  0.6271  2.2068
   60MOL   H25745215   4.933   0.173   3.731 -0.2567 -1.3058 -0.1864
   60MOL   H25845216   4.940   0.334   3.689 -0.0305  0.7424  0.0954
   60MOL   H25945217   4.692   0.153   3.629 -1.0200  0.3879 -0.1930
   60MOL   H26045218   4.698   0.322   3.588 -0.4015 -1.0891  0.2559
   60MOL   H26145219   4.695   0.242   3.871 -1.5871 -1.0406  0.5813
   60MOL   H26245220   4.725   0.406   3.802 -2.3008  0.9145 -1.4333
   60MOL   H26345221   4.498   0.397   3.705 -0.1275  0.2012 -0.1875
   60MOL   H26445222   4.483   0.235   3.771  0.4798 -0.3636  0.4882
   60MOL   H26545223   4.528   0.498   3.918 -1.8619  0.9358 -4.6965
   60MOL   H26645224   4.509   0.339   4.002 -2.2874  1.5699  1.8705
   60MOL   H26745225   4.288   0.342   3.858 -3.3711  0.2318  2.4109
   60MOL   C26845226   4.259   0.480   3.999  0.5332  0.1482  0.5566
   60MOL   O26945227   4.302   0.559   4.080 -0.0432 -0.1904  0.2241
   60MOL   C27045228   4.104   0.477   3.977  0.1640 -0.6772 -0.1128
   60MOL   C27145229   4.066   0.587   3.877 -0.5123 -0.3604  0.3280
   60MOL   C27245230   4.130   0.569   3.733 -0.4536 -0.0495  0.6161
   60MOL   C27345231   4.091   0.678   3.635  0.5189 -0.0415  0.0162
   60MOL   C27445232   3.961   0.650   3.553  0.6584 -0.6424  0.6896
   60MOL   O27545233   3.950   0.550   3.483 -0.2394  0.0340 -1.1014
   60MOL   N27645234   3.857   0.723   3.590 -0.9512 -0.2646  0.5929
   60MOL   C27745235   3.725   0.702   3.542 -0.2365 -0.1093 -0.5919
   60MOL   C27845236   3.688   0.795   3.430  0.5617  0.0276 -0.1690
   60MOL   C27945237   3.536   0.814   3.402 -0.1869 -0.2875  0.2386
   60MOL   C28045238   3.503   0.886   3.265  0.3353 -0.5637 -0.2917
   60MOL   C28145239   3.501   1.042   3.291 -0.3599  0.0298  0.1542
   60MOL   C28245240   3.489   1.115   3.155 -0.1009 -0.0937 -0.5693
   60MOL   N28345241   3.478   1.255   3.173  0.4388 -0.0311  0.7254
   60MOL   H28445242   4.082   0.376   3.940 -1.3586 -0.1133 -0.7849
   60MOL   H28545243   4.059   0.509   4.071 -1.2255 -1.7864 -0.3850
   60MOL   H28645244   3.960   0.579   3.853 -0.3519 -0.4411 -0.3563
   60MOL   H28745245   4.075   0.688   3.919  2.3868 -0.6647  0.5638
   60MOL   H28845246   4.104   0.472   3.692 -0.2502  0.8174 -1.6005
   60MOL   H28945247   4.238   0.583   3.740 -0.2630 -1.2091  0.0677
   60MOL   H29045248   4.171   0.711   3.569 -0.9831  0.1132 -1.7911
   60MOL   H29145249   4.065   0.767   3.692 -1.1933  0.8405 -2.0645
   60MOL   H29245250   3.875   0.805   3.645 -0.0116  0.1659 -0.3410
   60MOL   H29345251   3.700   0.601   3.509 -0.2832 -0.1242 -0.5112
   60MOL   H29445252   3.669   0.732   3.631  0.5460  1.7224 -0.6903
   60MOL   H29545253   3.736   0.889   3.457  0.2628 -0.3712  1.8345
   60MOL   H29645254   3.733   0.766   3.335 -1.7988 -0.0438 -1.3112
   60MOL   H29745255   3.513   0.870   3.492 -0.9906  0.3006 -0.3354
   60MOL   H29845256   3.478   0.721   3.400 -1.9965  0.8395 -0.6663
   60MOL   H29945257   3.582   0.864   3.193 -0.5015 -0.5043 -1.2418
   60MOL   H30045258   3.409   0.850   3.224  0.2885 -0.2329 -0.4744
   60MOL   H30145259   3.425   1.069   3.364 -0.0607  0.6103  0.2542
   60MOL   H30245260   3.602   1.055   3.330 -0.3632  0.2566  0.0905
   60MOL   H30345261   3.398   1.077   3.108  0.0944  0.5869 -1.5180
   60MOL   H30445262   3.575   1.091   3.092  0.5423  2.6995 -0.8312
   60MOL   H30545263   3.569   1.297   3.165 -0.2526  0.8915 -2.8703
   60MOL   C30645264   3.360   1.319   3.177  0.6975  0.4744 -0.1606
   60MOL   O30745265   3.247   1.266   3.199 -0.1971 -0.0693  0.7410
   60MOL   C30845266   3.368   1.476   3.157 -0.3095  0.1433 -0.0872
   60MOL   C30945267   3.225   1.540   3.171  0.0012  0.0164 -0.5615
   60MOL   C31045268   3.226   1.626   3.298  0.1492  0.8481 -0.0602
   60MOL   C31145269   3.078   1.674   3.329 -0.1964 -0.0127  0.3167
   60MOL   C31245270   3.064   1.727   3.470  0.1199 -0.0339  0.2744
   60MOL   O31345271   3.103   1.657   3.560  0.0789 -0.4236 -0.9100
   60MOL   N31445272   3.020   1.855   3.489  0.0327  0.1321 -0.0344
   60MOL   C31545273   3.028   1.935   3.608 -0.2200  0.9303 -0.1833
   60MOL   C31645274   3.170   1.991   3.627 -0.3527 -0.6117  0.0320
   60MOL   C31745275   3.208   2.070   3.499  0.3909  0.0353 -0.4275
   60MOL   C31845276   3.342   2.145   3.501  0.1219 -0.7066 -0.5624
   60MOL   C31945277   3.380   2.207   3.368  0.1263 -0.5483  0.7517
   60MOL   C32045278   3.521   2.271   3.359  0.2027 -0.1144  1.2305
   60MOL   N32145279   3.541   2.370   3.459 -0.5643  0.7044  0.5232
   60MOL   H32245280   3.446   1.524   3.217 -0.5364 -0.1599  0.4497
   60MOL   H32345281   3.390   1.481   3.050  0.1171 -1.4500 -0.0927
   60MOL   H32445282   3.198   1.603   3.085 -2.8960 -0.0307  0.2570
   60MOL   H32545283   3.146   1.465   3.175  0.6342 -0.7575 -2.0786
   60MOL   H32645284   3.290   1.713   3.286  0.7953  0.6005  1.5474
   60MOL   H32745285   3.265   1.569   3.382 -0.2394  1.9486  0.8733
   60MOL   H32845286   3.014   1.592   3.299  0.8375 -0.1596 -1.5715
   60MOL   H32945287   3.053   1.754   3.259 -1.9419  0.2660  1.2403
   60MOL   H33045288   2.987   1.890   3.400 -1.1458 -1.5661 -0.3067
   60MOL   H33145289   2.956   2.015   3.592 -1.8829 -0.3549  0.7303
   60MOL   H33245290   2.990   1.871   3.687  2.2048  0.3651  0.5707
   60MOL   H33345291   3.186   2.056   3.713  1.8754 -1.6328  0.4137
   60MOL   H33445292   3.243   1.913   3.648  1.0151  0.6097 -0.1595
   60MOL   H33545293   3.128   2.144   3.484 -0.3800 -0.8346 -0.6312
   60MOL   H33645294   3.208   2.006   3.411  3.0505 -1.8251  0.8843
   60MOL   H33745295   3.351   2.223   3.576  1.7643 -0.3944 -1.0640
   60MOL   H33845296   3.420   2.072   3.523  1.1183  0.5177  0.0006
   60MOL   H33945297   3.376   2.143   3.280  1.0570  0.1216  0.1999
   60MOL   H34045298   3.308   2.286   3.347 -0.8850 -1.9085 -0.9715
   60MOL   H34145299   3.532   2.328   3.266 -0.9698 -0.8557  0.6302
   60MOL   H34245300   3.598   2.194   3.365  0.8132  0.5348  1.9498
   60MOL   H34345301   3.594   2.347   3.542  1.2040 -1.5003 -1.1263
   60MOL   C34445302   3.497   2.494   3.449 -0.5208  0.0242 -0.9161
   60MOL   O34545303   3.420   2.525   3.359  1.0589  0.5894 -0.2039
   60MOL   C34645304   3.538   2.603   3.551  0.4366  0.7503  0.5310
   60MOL   C34745305   3.424   2.669   3.633 -0.4760  0.7046 -0.0059
   60MOL   C34845306   3.457   2.806   3.698  0.3010  0.5458 -0.2341
   60MOL   C34945307   3.486   2.922   3.599  0.3192  0.3520 -0.2005
   60MOL   C35045308   3.634   2.944   3.572  0.9031  0.2502  0.6044
   60MOL   O35145309   3.712   2.971   3.664 -0.4218 -0.0104  0.2800
   60MOL   N35245310   3.665   2.946   3.441  0.1472  0.2303  0.3004
   60MOL   C35345311   3.804   2.978   3.404 -0.2049  0.5560  0.5247
   60MOL   C35445312   3.820   2.950   3.253  0.0793 -0.0726 -0.2238
   60MOL   C35545313   3.958   2.996   3.211  0.5525 -0.4002  0.0900
   60MOL   C35645314   3.972   3.009   3.062  0.4816 -0.8652 -0.5916
   60MOL   C35745315   4.111   3.046   3.013 -0.6075  0.2300  0.1523
   60MOL   C35845316   4.132   3.009   2.862 -0.9448 -0.4666  0.1871
   60MOL   N35945317   4.271   2.981   2.838 -0.2384 -0.6271 -0.0738
   60MOL   H36045318   3.614   2.557   3.614  0.7481  0.4576 -0.0557
   60MOL   H36145319   3.597   2.676   3.495  1.9427 -1.7720 -1.2205
   60MOL   H36245320   3.338   2.682   3.567 -1.3720  0.1656  1.0421
   60MOL   H36345321   3.394   2.596   3.708 -3.6671  1.2710 -0.6728
   60MOL   H36445322   3.533   2.798   3.775  0.4574 -0.1735 -0.4665
   60MOL   H36545323   3.367   2.825   3.757 -0.7314 -1.8745 -0.9986
   60MOL   H36645324   3.443   3.014   3.639  0.4959 -0.4238  1.8730
   60MOL   H36745325   3.427   2.915   3.508  0.6856 -0.4492 -0.3834
   60MOL   H36845326   3.592   2.938   3.373 -0.4713 -0.4207  1.0307
   60MOL   H36945327   3.814   3.084   3.425 -1.2516  0.9899 -1.0339
   60MOL   H37045328   3.882   2.923   3.457  0.3601  1.3703  0.5512
   60MOL   H37145329   3.790   2.849   3.227 -2.4195  0.6206 -0.1521
   60MOL   H37245330   3.737   3.002   3.205  1.2314  0.6043 -1.5094
   60MOL   H37345331   4.032   2.932   3.259  0.2037 -2.3018 -1.8198
   60MOL   H37445332   3.953   3.097   3.251 -0.5960  0.3148 -1.8007
   60MOL   H37545333   3.943   2.912   3.020 -2.0397  0.4158 -1.9145
   60MOL   H37645334   3.905   3.085   3.023  0.5633 -0.9354 -0.8716
   60MOL   H37745335   4.136   3.151   3.029  0.6048 -0.2636  1.5610
   60MOL   H37845336   4.190   2.994   3.067 -0.6312  1.1257  1.0747
   60MOL   H37945337   4.087   3.094   2.810  2.4355  0.0268 -2.0717
   60MOL   H38045338   4.062   2.933   2.828 -1.6290  0.7430 -1.1843
   60MOL   H38145339   4.333   3.060   2.835  0.3458 -1.1015 -0.7862
   60MOL   C38245340   4.328   2.860   2.839  0.1820 -0.2127  0.0490
   60MOL   O38345341   4.265   2.751   2.856 -0.2386  0.3998  0.6117
   60MOL   C38445342   4.474   2.856   2.812  0.3092 -0.3698  0.4441
   60MOL   C38545343   4.513   2.749   2.707  0.8441  0.2374  0.3838
   60MOL   C38645344   4.495   2.787   2.557  0.3743  0.6621  0.8464
   60MOL   C38745345   4.527   2.677   2.452  0.2404  0.7176  0.2200
   60MOL   C38845346   4.478   2.713   2.308 -0.3635 -0.7331  0.1119
   60MOL   O38945347   4.370   2.757   2.285  0.5949 -0.1022  0.1757
   60MOL   N39045348   4.561   2.695   2.208 -0.2286  0.4954 -0.3942
   60MOL   C39145349   4.534   2.713   2.071  0.2197 -0.0490  0.5415
   60MOL   C39245350   4.439   2.609   2.015 -0.4120 -0.3953  0.2869
   60MOL   C39345351   4.417   2.613   1.862 -0.4678 -0.3497 -0.0169
   60MOL   C39445352   4.321   2.502   1.819  0.2825  0.5869  0.2862
   60MOL   C39545353   4.281   2.479   1.671  0.3376  0.4517 -0.5528
   60MOL   C39645354   4.190   2.358   1.640 -1.0643  0.2769 -0.2431
   60MOL   N39745355   4.079   2.348   1.729 -0.5595 -0.5467 -0.2445
   60MOL   H39845356   4.524   2.948   2.782  1.0900 -0.1864  2.2421
   60MOL   H39945357   4.522   2.836   2.908 -2.0691 -1.2992  1.4678
   60MOL   H40045358   4.621   2.741   2.715  0.7325 -0.5822  1.2138
   60MOL   H40145359   4.469   2.652   2.729  1.7705 -0.2058  0.3061
   60MOL   H40245360   4.555   2.871   2.523 -1.2750  0.7162 -2.0685
   60MOL   H40345361   4.391   2.804   2.530 -0.3217 -1.2544  2.1847
   60MOL   H40445362   4.466   2.591   2.480 -1.7144  2.5732  1.7855
   60MOL   H40545363   4.631   2.643   2.446  0.0887  0.3854 -0.6698
   60MOL   H40645364   4.649   2.650   2.231  0.4776  0.0708 -3.6015
   60MOL   H40745365   4.485   2.808   2.054  0.9850  0.5401  1.5575
   60MOL   H40845366   4.634   2.696   2.034  1.0659  0.4499  2.5140
   60MOL   H40945367   4.487   2.518   2.051  0.1256 -0.6549 -1.0551
   60MOL   H41045368   4.346   2.615   2.072 -1.0854  1.7440 -0.9795
   60MOL   H41145369   4.513   2.594   1.814  1.4445  3.9715  1.8332
   60MOL   H41245370   4.368   2.707   1.835 -0.5079 -0.1127  0.8590
   60MOL   H41345371   4.362   2.408   1.857 -0.4486  1.4920  3.4673
   60MOL   H41445372   4.230   2.516   1.877 -1.4811 -1.0992 -1.9471
   60MOL   H41545373   4.249   2.574   1.628 -0.3445  0.2939 -0.4043
   60MOL   H41645374   4.371   2.456   1.614  1.3753 -0.4268  1.3914
   60MOL   H41745375   4.252   2.269   1.632 -0.4162  0.8144 -1.3126
   60MOL   H41845376   4.152   2.363   1.538  1.8551 -1.5069 -1.4841
   60MOL   H41945377   4.042   2.437   1.758 -3.2899 -0.8602 -2.5504
   60MOL   C42045378   4.029   2.241   1.786 -0.0290  0.7896 -0.1913
   60MOL   O42145379   4.071   2.125   1.762  0.2638  0.2104 -0.1950
   60MOL   C42245380   3.912   2.254   1.887 -0.1970  0.2078  0.6065
   60MOL   C42345381   3.790   2.167   1.864 -0.4091 -0.2961  0.3707
   60MOL   C42445382   3.682   2.220   1.761  0.3496  0.3387  0.3717
   60MOL   C42545383   3.581   2.100   1.738  0.2746 -0.0629 -0.3184
   60MOL   C42645384   3.475   2.127   1.638 -0.6951  0.3040 -0.7914
   60MOL   O42745385   3.491   2.209   1.549  0.2297 -0.0530  0.2272
   60MOL   N42845386   3.364   2.055   1.653 -0.2431 -0.6220 -0.3827
   60MOL   C42945387   3.248   2.092   1.573  0.3242 -0.0545 -0.1113
   60MOL   C43045388   3.168   2.223   1.618  0.1563  0.1098 -0.5538
   60MOL   C43145389   3.126   2.221   1.758  0.1151  0.2847  0.2074
   60MOL   C43245390   3.056   2.355   1.799  0.3304 -0.5291  0.9050
   60MOL   C43345391   3.152   2.470   1.816 -0.3410  0.1998  0.1775
   60MOL   C43445392   3.083   2.605   1.815 -0.1203  0.0608 -0.1353
   60MOL   N43545393   3.176   2.719   1.799  0.2573  0.5978  0.3397
   60MOL   H43645394   3.967   2.242   1.981  2.9702 -1.9407 -1.4312
   60MOL   H43745395   3.872   2.355   1.878  0.0185  0.4083  1.8126
   60MOL   H43845396   3.841   2.078   1.826 -1.6247  0.0583 -2.2286
   60MOL   H43945397   3.739   2.131   1.953  2.8094 -0.6650  2.0978
   60MOL   H44045398   3.716   2.262   1.666  1.4536  0.4367  0.7993
   60MOL   H44145399   3.632   2.305   1.808 -0.5535 -1.1201  2.0925
   60MOL   H44245400   3.541   2.076   1.836  0.8178  0.4416  0.0270
   60MOL   H44345401   3.631   2.006   1.709 -0.5764 -0.1959 -1.4012
   60MOL   H44445402   3.344   1.997   1.734 -0.8343  0.8340  0.5499
   60MOL   H44545403   3.274   2.087   1.467  0.5733  2.8984 -0.2260
   60MOL   H44645404   3.160   2.027   1.581  1.3825 -1.7557 -1.8887
   60MOL   H44745405   3.239   2.304   1.599  0.6518 -0.4503 -1.1496
   60MOL   H44845406   3.090   2.250   1.547 -1.1132 -1.1253  0.3480
   60MOL   H44945407   3.212   2.219   1.825  0.6564  0.9466 -0.4508
   60MOL   H45045408   3.049   2.147   1.781  0.9112 -0.0236  2.0191
   60MOL   H45145409   2.982   2.380   1.723  0.9549 -1.5138 -0.0460
   60MOL   H45245410   3.002   2.337   1.892 -2.5506 -3.2536 -1.1946
   60MOL   H45345411   3.202   2.462   1.912 -1.1140 -1.6115  0.4383
   60MOL   H45445412   3.233   2.462   1.744 -1.0416  2.0998 -0.8661
   60MOL   H45545413   3.014   2.615   1.898 -0.2656 -1.3476 -0.0763
   60MOL   H45645414   3.022   2.613   1.725  1.0952  0.4068 -0.9459
   60MOL   H45745415   3.212   2.742   1.707 -0.1220 -0.5173 -0.0974
   60MOL   C45845416   3.205   2.803   1.904  0.1775 -0.7315  0.1553
   60MOL   O45945417   3.164   2.778   2.017 -0.9610 -0.0737 -0.1735
   60MOL   C46045418   3.297   2.918   1.869 -0.1015 -0.1275 -0.3805
   60MOL   C46145419   3.286   3.045   1.960  0.6231  0.0741  0.1989
   60MOL   C46245420   3.320   3.182   1.891  0.0085 -0.9630 -0.1275
   60MOL   C46345421   3.232   3.235   1.774  0.4106  0.6746 -0.5926
   60MOL   C46445422   3.298   3.222   1.634 -0.6428 -0.5063  0.4528
   60MOL   O46545423   3.390   3.145   1.608  0.1355 -0.2216  0.4752
   60MOL   N46645424   3.224   3.280   1.538 -0.0226 -0.6694 -0.2868
   60MOL   C46745425   3.251   3.262   1.399 -0.5602 -0.6232 -1.3970
   60MOL   C46845426   3.123   3.254   1.322 -0.5768  0.8407  0.0220
   60MOL   C46945427   3.157   3.258   1.174 -0.7426 -1.0528  0.5461
   60MOL   C47045428   3.037   3.245   1.081 -0.1326 -0.3013  0.2022
   60MOL   C47145429   3.050   3.278   0.930  0.3046  0.1147  0.3457
   60MOL   C47245430   2.908   3.268   0.860  0.4764  0.0558  0.7562
   60MOL   N47345431   2.907   3.316   0.722  0.0830  0.1889  0.4195
   60MOL   H47445432   3.399   2.881   1.872  0.0128 -0.0340 -2.5026
   60MOL   H47545433   3.274   2.948   1.767 -0.5929 -1.7509 -0.7608
   60MOL   H47645434   3.188   3.051   2.008  0.2200  0.8967 -0.7237
   60MOL   H47745435   3.349   3.026   2.047 -3.5916 -1.9703  2.9819
   60MOL   H47845436   3.427   3.184   1.870  0.2437 -1.7951  0.9452
   60MOL   H47945437   3.336   3.263   1.962 -0.4210 -0.5892 -0.4521
   60MOL   H48045438   3.209   3.339   1.796 -0.2779 -0.3524  4.2873
   60MOL   H48145439   3.128   3.202   1.769  0.2630  1.1659 -0.7521
   60MOL   H48245440   3.159   3.348   1.574  0.0337  1.0103 -3.1792
   60MOL   H48345441   3.301   3.354   1.366 -1.9396  0.1281 -1.4120
   60MOL   H48445442   3.312   3.175   1.373 -0.5806 -1.2935  0.6944
   60MOL   H48545443   3.059   3.169   1.348  2.8037 -1.6850  0.4092
   60MOL   H48645444   3.062   3.342   1.340 -3.0053 -0.7571 -0.0706
   60MOL   H48745445   3.224   3.176   1.146 -0.1046 -0.4184  0.1904
   60MOL   H48845446   3.213   3.349   1.153 -0.1683 -1.0231  2.0691
   60MOL   H48945447   3.007   3.141   1.090 -0.4340 -0.2723 -0.4110
   60MOL   H49045448   2.961   3.316   1.113  0.1713  1.4032 -2.6561
   60MOL   H49145449   3.089   3.379   0.919 -0.6773  0.6768  1.9051
   60MOL   H49245450   3.131   3.221   0.882  0.0293 -1.2376  1.4518
   60MOL   H49345451   2.824   3.305   0.919 -2.6591 -0.5922 -3.0741
   60MOL   H49445452   2.885   3.162   0.852 -0.0460  0.1853  0.5211
   60MOL   H49545453   2.988   3.307   0.661 -0.7904  2.0734 -1.0741
   60MOL   C49645454   2.807   3.376   0.661  0.4307 -0.0565 -0.0106
   60MOL   O49745455   2.700   3.401   0.710  0.9014 -0.0061  0.3667
   60MOL   C49845456   2.832   3.418   0.517 -0.0664 -0.2230  0.8498
   60MOL   C49945457   2.918   3.538   0.507 -0.1972  0.1348 -0.6359
   60MOL   C50045458   2.942   3.586   0.356  0.1123  0.0668  0.3264
   60MOL   C50145459   2.814   3.645   0.286  0.8225  0.0116  0.1386
   60MOL   C50245460   2.834   3.723   0.158 -0.4432  0.1016  0.5385
   60MOL   O50345461   2.914   3.688   0.069  0.5605 -0.1703 -0.0525
   60MOL   N50445462   2.758   3.830   0.154 -0.1494  0.6514 -0.1791
   60MOL   C50545463   2.775   3.939   0.058  0.3212 -0.6026  0.0080
   60MOL   C50645464   2.647   3.965   7.694 -0.0501  0.6072 -1.0117
   60MOL   C50745465   2.660   4.079   7.596 -0.8421  0.2559  0.0154
   60MOL   C50845466   2.521   4.131   7.531 -0.8045  0.3191 -0.0461
   60MOL   C50945467   2.536   4.271   7.473 -0.0218  0.0027  0.3270
   60MOL   C51045468   2.395   4.336   7.442  0.8582  0.3331  0.2264
   60MOL   N51145469   2.398   4.439   7.338 -0.7517 -0.2694  0.1453
   60MOL   H51245470   2.870   3.331   0.461  1.0102  1.6176 -1.3681
   60MOL   H51345471   2.738   3.436   0.464  1.5186  0.8604 -1.7143
   60MOL   H51445472   2.866   3.606   0.575 -2.3277 -0.2074 -1.8671
   60MOL   H51545473   3.020   3.527   0.542  0.5928  2.1003 -2.2023
   60MOL   H51645474   2.985   3.518   0.283 -0.5635  0.9006 -0.8747
   60MOL   H51745475   3.015   3.667   0.359  0.2666 -0.0853  0.6503
   60MOL   H51845476   2.758   3.699   0.363  2.2034  0.2877  0.9814
   60MOL   H51945477   2.756   3.554   0.275  1.4285 -0.4594  0.7804
   60MOL   H52045478   2.686   3.846   0.224  2.6108 -2.0442  3.4224
   60MOL   H52145479   2.809   4.026   0.114  1.2352 -1.7148  1.2020
   60MOL   H52245480   2.854   3.911   7.696 -1.1636  0.6683 -2.2492
   60MOL   H52345481   2.606   3.869   7.662 -0.5203 -0.1977  1.8511
   60MOL   H52445482   2.562   4.001   0.045 -1.1794 -0.2311 -2.0895
   60MOL   H52545483   2.730   4.055   7.516 -0.6347  0.2811  0.1905
   60MOL   H52645484   2.708   4.159   7.651  1.2963 -2.3568  2.0722
   60MOL   H52745485   2.485   4.058   7.458 -3.2501 -0.2231  1.6677
   60MOL   H52845486   2.452   4.134   7.615  0.0979 -1.6226  0.7772
   60MOL   H52945487   2.590   4.339   7.539 -0.9422 -1.7995  2.9923
   60MOL   H53045488   2.591   4.249   7.381  2.4605 -4.6328  2.7638
   60MOL   H53145489   2.360   4.361   7.542 -0.6527 -0.2464 -0.1398
   60MOL   H53245490   2.323   4.259   7.415  1.1058  0.2075 -0.0862
   60MOL   H53345491   2.437   4.424   7.246  0.7905 -1.5033  0.9870
   60MOL   C53445492   2.364   4.570   7.362 -0.0941 -0.1305 -0.7491
   60MOL   O53545493   2.319   4.608   7.470  0.1186  0.0375  0.4045
   60MOL   C53645494   2.387   4.673   7.250 -0.5157 -0.5896  0.3668
   60MOL   C53745495   2.344   4.817   7.294  0.2316 -0.4122  1.0576
   60MOL   C53845496   2.298   4.899   7.169 -0.0544 -1.0788 -0.4372
   60MOL   C53945497   2.159   4.873   7.111  0.0163  0.4972 -0.2700
   60MOL   C54045498   2.158   4.881   6.958 -0.3131 -0.3155  0.5295
   60MOL   O54145499   2.224   4.801   6.888 -0.6158  0.4995 -0.3315
   60MOL   N54245500   2.099   4.988   6.907  0.2424 -0.7416 -0.2024
   60MOL   C54345501   2.091   5.024   6.763 -0.3214  0.5123 -0.3989
   60MOL   C54445502   2.218   5.093   6.715  0.6717  0.5482  0.4523
   60MOL   C54545503   2.232   5.128   6.569  0.4399  0.0872  0.1997
   60MOL   C54645504   2.358   5.222   6.549  0.0675  0.5213 -1.2781
   60MOL   C54745505   2.488   5.151   6.559 -0.2239  0.5087  0.0629
   60MOL   C54845506   2.608   5.237   6.519 -0.7633 -0.9561 -0.4345
   60MOL   N54945507   2.611   5.355   6.603  0.2455  0.1803  0.2179
   60MOL   H55045508   2.492   4.662   7.222 -0.2872 -0.1271  1.0217
   60MOL   H55145509   2.339   4.636   7.160 -0.0656 -0.7067  0.1723
   60MOL   H55245510   2.251   4.812   7.351 -1.5700  0.3281 -1.6600
   60MOL   H55345511   2.419   4.855   7.362 -0.3176  0.9481  0.9095
   60MOL   H55445512   2.383   4.902   7.100 -0.1303 -1.1622 -0.5331
   60MOL   H55545513   2.293   4.997   7.216  0.5349 -0.8023 -0.9333
   60MOL   H55645514   2.082   4.939   7.152 -0.9315 -0.0647 -1.1145
   60MOL   H55745515   2.131   4.769   7.126  1.6187  0.1686  0.5819
   60MOL   H55845516   2.043   5.045   6.969  1.7825  0.4346  0.1440
   60MOL   H55945517   2.066   4.935   6.705  2.7006  0.4992 -1.7459
   60MOL   H56045518   2.011   5.089   6.728 -0.4714 -0.4913 -2.0038
   60MOL   H56145519   2.220   5.180   6.780 -2.5491 -1.0445  2.8024
   60MOL   H56245520   2.303   5.031   6.743 -0.4571 -1.9013 -1.3924
   60MOL   H56345521   2.148   5.193   6.546 -0.6839 -1.3206  0.2953
   60MOL   H56445522   2.234   5.043   6.501 -3.5405  1.3962 -1.7102
   60MOL   H56545523   2.359   5.272   6.452 -1.5792  0.4815 -1.3270
   60MOL   H56645524   2.358   5.298   6.628 -1.2263  1.0265 -1.7461
   60MOL   H56745525   2.500   5.117   6.662 -1.2864  1.5927  0.5569
   60MOL   H56845526   2.491   5.058   6.504  2.2391  0.4615  0.2500
   60MOL   H56945527   2.622   5.255   6.413 -0.2531 -2.0456 -0.5625
   60MOL   H57045528   2.691   5.171   6.545 -1.2566 -1.0637  0.9497
   60MOL   H57145529   2.534   5.368   6.666 -0.3380 -1.2209 -0.1943
   60MOL   C57245530   2.710   5.448   6.596 -0.6071 -0.1958 -0.0463
   60MOL   O57345531   2.806   5.430   6.528  0.1342  0.0007  0.0147
   60MOL   C57445532   2.709   5.574   6.675  0.4643  0.6531 -0.1269
   60MOL   C57545533   2.829   5.667   6.682  0.4743  0.4395  0.6274
   60MOL   C57645534   2.941   5.605   6.771  0.3199  0.1485 -0.2687
   60MOL   C57745535   3.033   5.702   6.832  0.3369  0.7084 -0.0815
   60MOL   C57845536   2.965   5.788   6.935 -0.3977 -1.1805  0.4445
   60MOL   O57945537   2.900   5.887   6.895 -0.0324  0.1785 -0.3318
   60MOL   N58045538   2.965   5.753   7.063 -0.2832 -0.0996  0.1453
   60MOL   C58145539   2.902   5.816   7.175  0.0994 -0.1332 -0.1112
   60MOL   C58245540   2.975   5.806   7.306 -0.7167 -0.5596 -0.6280
   60MOL   C58345541   3.038   5.667   7.336  0.0989  0.3832 -0.3566
   60MOL   C58445542   3.050   5.626   7.490  0.3360  0.0170 -1.4004
   60MOL   C58545543   3.091   5.480   7.521 -0.4682 -0.5112  0.0309
   60MOL   C58645544   3.109   5.444   7.662  0.6554 -0.3243 -0.2731
   60MOL   N58745545   2.992   5.492   0.028  0.2113 -0.0194  0.4748
   60MOL   H58845546   2.630   5.633   6.629  1.9249  1.4024 -1.7470
   60MOL   H58945547   2.676   5.547   6.775  3.8846 -1.0160  0.6299
   60MOL   H59045548   2.861   5.691   6.581  0.9560 -1.2727  0.3654
   60MOL   H59145549   2.794   5.761   6.724  1.0571  1.5318 -1.2520
   60MOL   H59245550   2.999   5.538   6.707  0.7932  0.9242 -0.6627
   60MOL   H59345551   2.897   5.549   6.854 -0.0804  0.2367 -0.4221
   60MOL   H59445552   3.062   5.777   6.759 -2.0908  1.4799 -0.3096
   60MOL   H59545553   3.120   5.657   6.880 -0.0742  0.5211  0.5002
   60MOL   H59645554   3.035   5.681   7.078  0.9481  0.7713 -1.2542
   60MOL   H59745555   2.883   5.924   7.173 -1.2028 -0.3723 -0.8347
   60MOL   H59845556   2.800   5.780   7.180 -0.3030  0.6499 -1.9415
   60MOL   H59945557   3.045   5.890   7.306 -0.7601 -0.5089  0.9963
   60MOL   H60045558   2.902   5.818   7.385 -1.0432  0.5364 -1.0843
   60MOL   H60145559   3.134   5.653   7.287  0.3374 -1.7880  0.6615
   60MOL   H60245560   2.972   5.596   7.285  1.2479 -0.5238 -0.5928
   60MOL   H60345561   3.120   5.695   7.536  1.5944 -0.9288 -1.8658
   60MOL   H60445562   2.960   5.643   7.549  1.7437  0.4493  0.6397
   60MOL   H60545563   3.023   5.403   7.484  0.7360 -1.4687 -0.1984
   60MOL   H60645564   3.192   5.462   7.484 -1.0973 -0.8502 -1.5557
   60MOL   H60745565   3.202   5.482   7.702 -0.3906  0.9112  1.0282
   60MOL   H60845566   3.110   5.335   7.668 -1.0213 -0.3371  0.1629
   60MOL   H60945567   2.907   5.438   0.019  0.2964 -0.2737  1.1444
   60MOL   C61045568   2.994   5.592   0.113 -0.7482 -0.0458 -0.5228
   60MOL   O61145569   3.098   5.647   0.149 -0.0208 -0.0248 -0.1723
   60MOL   C61245570   2.858   5.654   0.151  0.2043  1.1413  0.1782
   60MOL   C61345571   2.845   5.803   0.116  0.0375 -0.0239 -0.0410
   60MOL   C61445572   2.702   5.857   0.144  0.1497  0.0865  0.4868
   60MOL   C61545573   2.697   6.014   0.121 -0.0034  0.8375  0.0805
   60MOL   C61645574   2.687   6.051   7.684  0.6556 -0.0557 -0.4556
   60MOL   O61745575   2.616   5.982   7.607  0.2210  0.1508  0.0142
   60MOL   N61845576   2.739   6.167   7.655  0.4602  0.0283 -0.7521
   60MOL   C61945577   2.730   6.238   7.533  0.3591  0.1499  0.6456
   60MOL   C62045578   2.860   6.303   7.491  0.3051  0.0585 -0.3647
   60MOL   C62145579   2.843   6.378   7.356  0.1808  0.1668  0.4808
   60MOL   C62245580   2.769   6.504   7.366 -0.8065  0.1082  0.2868
   60MOL   C62345581   2.734   6.555   7.227  0.3577  0.2838 -0.2880
   60MOL   C62445582   2.596   6.511   7.177 -0.2439 -1.2834  0.0634
   60MOL   N62545583   2.560   6.601   7.065  0.4262 -0.5103 -0.5968
   60MOL   H62645584   2.777   5.592   0.114  0.7085  1.3805 -1.3718
   60MOL   H62745585   2.855   5.651   0.260 -0.4988 -0.8069  0.1259
   60MOL   H62845586   2.922   5.859   0.169  0.0224 -0.1546  0.1195
   60MOL   H62945587   2.865   5.817   0.010  0.8995  0.1133  0.1390
   60MOL   H63045588   2.681   5.844   0.250 -3.4602 -1.9786 -0.4138
   60MOL   H63145589   2.632   5.791   0.092  1.2737 -0.9122  0.2135
   60MOL   H63245590   2.783   6.063   0.168  1.1548 -1.8469  0.8265
   60MOL   H63345591   2.609   6.059   0.168  1.0247  1.1780  1.7122
   60MOL   H63445592   2.775   6.220   0.024  0.0800  2.3810 -2.1549
   60MOL   H63545593   2.694   6.177   7.451  1.7147 -0.2386  0.3277
   60MOL   H63645594   2.654   6.316   7.541  1.1279  1.2365 -2.0030
   60MOL   H63745595   2.912   6.370   7.558  0.5796  1.9074 -2.3818
   60MOL   H63845596   2.933   6.223   7.475  1.5935  1.1273  0.1042
   60MOL   H63945597   2.791   6.303   7.295  0.3896  0.0862  0.4037
   60MOL   H64045598   2.941   6.394   7.312 -0.1634 -2.3729 -1.3393
   60MOL   H64145599   2.687   6.497   7.438 -1.0403 -0.3851 -0.0237
   60MOL   H64245600   2.837   6.582   7.401 -0.6503 -0.0315  0.2933
   60MOL   H64345601   2.730   6.664   7.230  1.8722  0.3141  2.3790
   60MOL   H64445602   2.821   6.540   7.163  1.6071 -0.2308  1.4851
   60MOL   H64545603   2.514   6.501   7.247  2.4874 -0.1073  3.5672
   60MOL   H64645604   2.607   6.414   7.129 -1.0991 -0.6951 -1.3580
   60MOL   H64745605   2.637   6.645   7.017  1.5414 -1.6577  0.0921
   60MOL   C64845606   2.443   6.622   7.017 -0.4185 -0.4244  0.6560
   60MOL   O64945607   2.345   6.561   7.046  0.2872  0.0295  0.0541
   60MOL   C65045608   2.420   6.745   6.926  0.5874  0.5703  0.1064
   60MOL   C65145609   2.277   6.785   6.895 -0.0791 -0.7460  0.0559
   60MOL   C65245610   2.216   6.880   7.001 -0.7545  0.0441  0.4855
   60MOL   C65345611   2.183   6.832   7.151 -0.0787 -0.1951 -0.3979
   60MOL   C65445612   2.299   6.825   7.247  0.3072 -0.1046 -0.0866
   60MOL   O65545613   2.384   6.915   7.246  0.4861  0.4917  0.0348
   60MOL   N65645614   2.299   6.722   7.332  0.2195 -0.1390  0.9778
   60MOL   C65745615   2.386   6.719   7.454  0.3209  0.1346  0.7783
   60MOL   C65845616   2.369   6.598   7.550 -0.3033 -0.3498 -0.2025
   60MOL   C65945617   2.459   6.607   7.672 -0.1372  0.1183 -0.7881
   60MOL   C66045618   2.420   6.714   0.072 -0.3672 -0.5883  0.0426
   60MOL   C66145619   2.543   6.723   0.164  0.3793 -0.8130 -0.5495
   60MOL   C66245620   2.523   6.782   0.306  0.0110 -0.1642  1.3002
   60MOL   N66345621   2.654   6.803   0.366  0.5744  0.2955  0.4068
   60MOL   H66445622   2.476   6.831   6.963 -1.2633  1.8081  0.1260
   60MOL   H66545623   2.468   6.705   6.836 -0.8304  3.0265 -1.8151
   60MOL   H66645624   2.283   6.837   6.800  1.2209  1.5182  1.3423
   60MOL   H66745625   2.208   6.703   6.875 -0.2916 -0.1833 -1.5831
   60MOL   H66845626   2.123   6.909   6.953 -1.5539 -0.2111  1.8537
   60MOL   H66945627   2.269   6.975   6.998  0.6819 -0.7933 -1.3650
   60MOL   H67045628   2.154   6.729   7.129  2.3441 -0.5500 -2.1449
   60MOL   H67145629   2.105   6.899   7.188 -1.3936 -0.2147 -3.0485
   60MOL   H67245630   2.231   6.650   7.315  1.4203 -0.9221 -0.6636
   60MOL   H67345631   2.488   6.721   7.418 -0.0408  0.3146 -0.2580
   60MOL   H67445632   2.376   6.814   7.506  4.6926  1.5420 -0.7940
   60MOL   H67545633   2.265   6.570   7.568 -0.5981  1.4855  1.0718
   60MOL   H67645634   2.404   6.513   7.493 -0.6548  0.0698 -1.0508
   60MOL   H67745635   2.556   6.639   7.635  0.3526 -1.0454 -0.5213
   60MOL   H67845636   2.473   6.508   0.007 -3.2717  0.7301  1.8469
   60MOL   H67945637   2.391   6.809   0.028 -1.8661 -0.4585  1.2918
   60MOL   H68045638   2.334   6.685   0.131 -1.5765 -3.0243 -2.8166
   60MOL   H68145639   2.570   6.618   0.178  0.0428 -1.2720 -3.0327
   60MOL   H68245640   2.627   6.769   0.111 -1.5282  1.6142 -1.6045
   60MOL   H68345641   2.452   6.725   0.366 -0.7397 -1.1731 -0.4840
   60MOL   H68445642   2.481   6.881   0.290  0.1655 -0.6430 -2.5690
   60MOL   H68545643   2.682   6.900   0.360  0.2900  0.2696 -1.7472
   60MOL   C68645644   2.701   6.741   0.475 -0.0336  0.1228  0.3340
   60MOL   O68745645   2.674   6.624   0.495  0.0523  0.2844 -0.2091
   60MOL   C68845646   2.808   6.811   0.559  0.1463 -0.8502 -0.8062
   60MOL   C68945647   2.918   6.713   0.603  0.5492  0.1786 -0.4905
   60MOL   C69045648   3.049   6.786   0.654  0.0500 -0.3491  0.4828
   60MOL   C69145649   3.131   6.697   0.739 -0.4245  0.2589 -0.3620
   60MOL   C69245650   3.193   6.570   0.683 -0.0219 -0.6565  0.8355
   60MOL   O69345651   3.246   6.568   0.573  0.2360  0.0708 -0.6261
   60MOL   N69445652   3.178   6.466   0.761 -0.0567 -0.7141  0.1569
   60MOL   C69545653   3.215   6.330   0.734  0.2970  0.8051 -0.1867
   60MOL   C69645654   3.197   6.240   0.853 -0.5942  0.0170  0.3144
   60MOL   C69745655   3.221   6.086   0.834  0.8102 -0.2447  1.1645
   60MOL   C69845656   3.268   6.024   0.963 -0.4883 -0.1914  1.0322
   60MOL   C69945657   3.294   5.871   0.952  0.1473  0.1664 -0.0175
   60MOL   C70045658   3.355   5.818   1.087  0.0240 -0.1687 -0.0374
   60MOL   N70145659   3.486   5.875   1.121 -0.0777 -0.0049  0.3724
   60MOL   H70245660   2.844   6.894   0.498 -4.2917  1.1635 -0.8728
   60MOL   H70345661   2.766   6.852   0.650 -0.1340 -2.0898 -0.3615
   60MOL   H70445662   2.885   6.665   0.696  1.8759  1.1830  0.5165
   60MOL   H70545663   2.935   6.643   0.521 -0.2332  1.3728 -1.6916
   60MOL   H70645664   3.034   6.876   0.714  0.5066  0.7063 -0.9756
   60MOL   H70745665   3.117   6.822   0.577 -0.3890 -0.4712  0.0353
   60MOL   H70845666   3.096   6.689   0.842  2.1802  0.2865  0.5445
   60MOL   H70945667   3.220   6.758   0.751 -1.2468  1.3828  0.1894
   60MOL   H71045668   3.124   6.469   0.846 -0.7190 -0.2600 -0.2674
   60MOL   H71145669   3.148   6.290   0.658  0.4463 -1.1515  0.6848
   60MOL   H71245670   3.313   6.317   0.687 -0.1347 -0.5922 -0.7217
   60MOL   H71345671   3.257   6.297   0.924  1.2384 -0.2971 -0.9573
   60MOL   H71445672   3.090   6.246   0.872 -0.8061  2.3328 -1.3926
   60MOL   H71545673   3.283   6.056   0.750  1.5445  0.6001  1.3847
   60MOL   H71645674   3.127   6.037   0.811  0.6403  0.7020 -0.1797
   60MOL   H71745675   3.366   6.070   0.978 -0.6424  0.7351 -0.6369
   60MOL   H71845676   3.215   6.046   1.055 -0.4635 -3.5566  1.9325
   60MOL   H71945677   3.197   5.826   0.931 -1.0001  2.4017  0.3983
   60MOL   H72045678   3.368   5.860   0.872  0.8984 -1.3007  0.8511
   60MOL   H72145679   3.378   5.713   1.065 -0.4904 -0.4329  0.6702
   60MOL   H72245680   3.283   5.820   1.168 -1.0527  0.7009 -0.9992
   60MOL   H72345681   3.552   5.880   1.045  0.7059 -1.1271  0.9733
   60MOL   C72445682   3.534   5.895   1.248 -0.3405 -0.8544  0.3812
   60MOL   O72545683   3.458   5.886   1.346  0.4114 -0.0544  0.2949
   60MOL   C72645684   3.679   5.926   1.257  0.8999 -0.5193 -0.3829
   60MOL   C72745685   3.717   6.050   1.182 -0.5549 -0.0264  0.7835
   60MOL   C72845686   3.676   6.180   1.249  0.2022  0.3168 -0.5101
   60MOL   C72945687   3.730   6.311   1.194 -0.4843  0.1097  0.3118
   60MOL   C73045688   3.655   6.371   1.070 -0.0155  0.1441 -0.0248
   60MOL   O73145689   3.606   6.299   0.984 -0.5109 -0.2254 -0.0453
   60MOL   N73245690   3.641   6.504   1.067 -0.6405  0.1005  0.1187
   60MOL   C73345691   3.567   6.583   0.972 -0.1941  0.4993 -0.9985
   60MOL   C73445692   3.457   6.656   1.041  0.1040  0.2794 -0.3511
   60MOL   C73545693   3.403   6.764   0.948  0.0262 -0.0299  0.6432
   60MOL   C73645694   3.464   6.899   0.967  0.1733 -0.7816 -0.1147
   60MOL   C73745695   3.440   7.013   0.858 -0.1830 -0.4588  0.6289
   60MOL   C73845696   3.504   7.147   0.878 -0.2458 -0.1856  0.6012
   60MOL   N73945697   3.511   7.204   0.744 -0.0133 -0.1969  0.2495
   60MOL   H74045698   3.704   5.939   1.362 -0.6923 -1.6962  0.1635
   60MOL   H74145699   3.748   5.852   1.216  0.5023  0.0955 -2.2189
   60MOL   H74245700   3.824   6.070   1.191 -0.8026  1.3873  0.7161
   60MOL   H74345701   3.691   6.050   1.076  2.7785 -3.1703 -0.1377
   60MOL   H74445702   3.705   6.175   1.354  0.7657 -2.3448 -0.7568
   60MOL   H74545703   3.567   6.189   1.258  0.3817  1.1643  1.0454
   60MOL   H74645704   3.836   6.304   1.167 -0.7098 -1.7377 -0.1640
   60MOL   H74745705   3.733   6.394   1.265  0.2424 -0.6477  1.1763
   60MOL   H74845706   3.670   6.555   1.149 -1.1513 -0.6328  0.7541
   60MOL   H74945707   3.629   6.667   0.942 -1.5540  1.8139 -0.1867
   60MOL   H75045708   3.528   6.523   0.890  0.3537 -1.4460  0.1275
   60MOL   H75145709   3.366   6.601   1.064  0.6129 -0.1694  0.6750
   60MOL   H75245710   3.495   6.695   1.136 -4.6039  1.1697  1.3021
   60MOL   H75345711   3.295   6.773   0.963  0.1944 -0.0062  1.9180
   60MOL   H75445712   3.423   6.731   0.846  0.4674 -0.8864  0.9995
   60MOL   H75545713   3.438   6.947   1.061  1.1538 -1.0551  0.3100
   60MOL   H75645714   3.573   6.893   0.974  0.5051  2.6326 -1.2277
   60MOL   H75745715   3.460   6.973   0.758  0.6156 -0.6471  0.8661
   60MOL   H75845716   3.332   7.030   0.849 -0.1087  0.6021  1.6029
   60MOL   H75945717   3.603   7.119   0.914 -0.2412 -1.3370 -0.2608
   60MOL   H76045718   3.448   7.206   0.950 -0.7688 -0.1294  0.1508
   60MOL   H76145719   3.555   7.293   0.763 -0.8962  0.5003 -0.9157
   60MOL   H76245720   3.419   7.233   0.716  0.7587  0.8781 -1.2196
   61MOL     C145721   7.411   7.450   0.582  0.0212  0.8014  0.1017
   61MOL     O245722   7.298   7.486   0.613 -0.1599  0.3187  0.5077
   61MOL     C345723   7.505   7.387   0.681 -0.2247  0.3141 -0.1338
   61MOL     C445724   7.630   7.475   0.700 -0.0174 -0.0276  0.3366
   61MOL     C545725   7.606   7.609   0.769 -0.0580  0.0638  0.1060
   61MOL     C645726   7.530   7.602   0.909  0.2132  1.0182  0.3803
   61MOL     C745727   7.609   7.524   1.016 -0.2583  0.0075 -0.3003
   61MOL     O845728   7.615   7.407   1.007  0.1484  0.4406  0.2343
   61MOL     N945729   7.679   7.594   1.110 -0.4664  0.5890  0.3839
   61MOL    C1045730   0.069   7.537   1.204  0.0096 -0.6141 -0.3412
   61MOL    C1145731   0.217   7.530   1.152 -0.8512 -0.0291  0.2229
   61MOL    C1245732   0.243   7.387   1.115 -0.2882 -0.0586 -0.2049
   61MOL    C1345733   0.396   7.350   1.111  0.5328  1.1630  0.9486
   61MOL    C1445734   0.426   7.195   1.113 -0.9954  0.2954 -0.6081
   61MOL    C1545735   0.579   7.170   1.072 -0.5781 -0.4235 -0.6345
   61MOL    N1645736   0.634   7.036   1.098 -0.7791 -0.1406 -0.0387
   61MOL    H1745737   7.456   7.353   0.772 -1.4095  0.2050 -0.8102
   61MOL    H1845738   7.534   7.297   0.627  1.0846 -0.8559  2.4171
   61MOL    H1945739   7.706   7.428   0.761  0.2521 -0.8795 -0.6338
   61MOL    H2045740   7.683   7.500   0.608  0.8735  0.8084  1.0692
   61MOL    H2145741   7.556   7.672   0.696  0.4303  0.2916 -0.0243
   61MOL    H2245742   7.698   7.664   0.788 -0.5974  1.4986 -1.4001
   61MOL    H2345743   7.430   7.558   0.907 -0.0996  1.7308 -1.2437
   61MOL    H2445744   7.506   7.700   0.952 -0.5159  1.0311 -0.0415
   61MOL    H2545745   7.677   7.694   1.094 -2.7083  0.3767 -0.8322
   61MOL    H2645746   0.072   7.600   1.292  2.5630  0.1494 -0.9233
   61MOL    H2745747   0.024   7.447   1.245  0.0575 -0.9623 -1.0435
   61MOL    H2845748   0.233   7.598   1.069  1.1355  0.8505  1.2913
   61MOL    H2945749   0.286   7.545   1.235 -1.0581 -3.3848  1.0963
   61MOL    H3045750   0.193   7.369   1.020 -1.8186  2.0797  0.1660
   61MOL    H3145751   0.200   7.320   1.189  0.1477 -0.1901 -0.0678
   61MOL    H3245752   0.443   7.403   1.028  0.8181  0.1368  0.4406
   61MOL    H3345753   0.445   7.405   1.192  1.5237  1.5310  0.1065
   61MOL    H3445754   0.404   7.155   1.212 -0.3420 -1.2959 -1.0942
   61MOL    H3545755   0.366   7.132   1.048 -1.6968 -1.7851  1.9528
   61MOL    H3645756   0.627   7.245   1.135  0.6529 -0.2110 -1.8105
   61MOL    H3745757   0.603   7.207   0.973 -1.6027 -0.8737 -1.0472
   61MOL    H3845758   0.564   6.972   1.133 -0.0101 -1.1666 -0.3577
   61MOL    H3945759   7.452   7.481   0.486 -1.3137  0.0133 -0.7405
   61MOL    C4045760   0.753   6.986   1.074 -0.2404 -0.0020 -0.4961
   61MOL    O4145761   0.835   7.059   1.027 -0.0911  0.1185  0.2494
   61MOL    C4245762   0.783   6.844   1.125 -0.1597  0.5906  0.0123
   61MOL    C4345763   0.921   6.823   1.198 -0.6024  0.0384 -0.7079
   61MOL    C4445764   0.996   6.688   1.190  0.0207  0.3549  0.2970
   61MOL    C4545765   1.149   6.696   1.195  0.2365  0.7415 -0.5186
   61MOL    C4645766   1.225   6.604   1.099 -0.6720  0.6392 -0.1484
   61MOL    O4745767   1.168   6.506   1.048  0.8687 -0.1181  0.6467
   61MOL    N4845768   1.356   6.635   1.079 -0.2063 -0.0613  0.4686
   61MOL    C4945769   1.439   6.551   1.000  0.4114 -0.0708 -0.4375
   61MOL    C5045770   1.505   6.448   1.102  0.4560 -0.2891  0.0256
   61MOL    C5145771   1.579   6.335   1.033 -0.1414 -0.0881  0.5447
   61MOL    C5245772   1.641   6.220   1.113  0.0030 -0.3877  0.0701
   61MOL    C5345773   1.714   6.128   1.010  0.2930  0.5759 -0.5562
   61MOL    C5445774   1.621   6.015   0.959 -0.3280 -0.2918 -0.1325
   61MOL    N5545775   1.677   5.949   0.842  0.6255 -0.0838  0.7301
   61MOL    H5645776   0.709   6.805   1.195 -1.1325 -0.0853 -1.3724
   61MOL    H5745777   0.781   6.774   1.041  0.8780 -0.5546  0.9363
   61MOL    H5845778   0.983   6.902   1.155 -0.5227  0.5130  0.2745
   61MOL    H5945779   0.914   6.851   1.303  1.8062 -2.3804  0.1294
   61MOL    H6045780   0.959   6.634   1.103 -0.6645  0.8451  0.2809
   61MOL    H6145781   0.948   6.636   1.273  1.3324 -0.4183  0.5832
   61MOL    H6245782   1.179   6.682   1.299 -0.7714 -0.9819 -0.4271
   61MOL    H6345783   1.182   6.799   1.186 -0.6304  0.9414 -1.4608
   61MOL    H6445784   1.397   6.720   1.116 -0.1681  1.0311 -1.9799
   61MOL    H6545785   1.383   6.511   0.916  0.9391  0.2718 -0.9515
   61MOL    H6645786   1.514   6.618   0.957 -0.3019  1.3911  0.5603
   61MOL    H6745787   1.574   6.499   1.168 -0.7992 -0.9210  1.8678
   61MOL    H6845788   1.432   6.407   1.172  2.0725  1.7475  2.9871
   61MOL    H6945789   1.650   6.382   0.964 -0.8078  0.3384  0.1334
   61MOL    H7045790   1.499   6.290   0.973 -2.3263  2.3607  1.4991
   61MOL    H7145791   1.704   6.263   1.190 -1.7939  1.8900  0.3571
   61MOL    H7245792   1.569   6.153   1.161  0.4707 -1.6792 -1.0071
   61MOL    H7345793   1.760   6.184   0.928  3.1449 -3.0916 -1.6178
   61MOL    H7445794   1.792   6.078   1.067 -0.9778 -1.4452 -0.5553
   61MOL    H7545795   1.548   6.076   0.905 -0.8282 -1.0826 -0.3599
   61MOL    H7645796   1.584   5.944   1.032 -0.8285  0.6179  0.5105
   61MOL    H7745797   1.758   5.996   0.804  0.8856  0.7290  2.2461
   61MOL    C7845798   1.640   5.827   0.799  0.4555 -0.0609 -0.0535
   61MOL    O7945799   1.547   5.767   0.848  0.0096  0.3381  0.1319
   61MOL    C8045800   1.713   5.766   0.674  0.2466  0.1699  0.0925
   61MOL    C8145801   1.725   5.612   0.686 -0.5371  0.1895 -0.2135
   61MOL    C8245802   1.615   5.542   0.617  0.2346  0.0616 -0.1699
   61MOL    C8345803   1.628   5.546   0.458  0.7071 -0.7205  0.5697
   61MOL    C8445804   1.508   5.480   0.389 -0.1480 -0.4501 -0.0670
   61MOL    O8545805   1.436   5.406   0.457  0.2440  0.0336 -0.2326
   61MOL    N8645806   1.490   5.518   0.257 -0.3943 -0.1059  0.6559
   61MOL    C8745807   1.384   5.460   0.176  0.2103  0.3122 -0.2047
   61MOL    C8845808   1.243   5.506   0.218 -0.0508  0.2861  0.0731
   61MOL    C8945809   1.127   5.441   0.135 -1.1251 -0.8932 -0.4203
   61MOL    C9045810   0.995   5.513   0.169  0.7584 -0.2227  0.4220
   61MOL    C9145811   0.990   5.663   0.127 -0.5682 -0.3293 -0.1879
   61MOL    C9245812   1.037   5.687   7.696  0.3072  0.0676 -0.3675
   61MOL    N9345813   1.040   5.834   7.670 -0.2527 -0.3541 -0.0796
   61MOL    H9445814   1.667   5.796   0.580 -0.0329  0.2088  0.2405
   61MOL    H9545815   1.816   5.803   0.669  0.8094 -1.4108 -0.4992
   61MOL    H9645816   1.819   5.571   0.651  0.2665  0.4178  1.5920
   61MOL    H9745817   1.722   5.584   0.791  2.3527  0.5354 -0.0108
   61MOL    H9845818   1.521   5.583   0.655  0.7950 -0.3341  1.7089
   61MOL    H9945819   1.600   5.437   0.639 -1.6405 -0.1783 -2.3444
   61MOL   H10045820   1.717   5.490   0.431 -0.3285 -1.7077 -0.8069
   61MOL   H10145821   1.643   5.651   0.431 -1.3925  0.3526  3.3157
   61MOL   H10245822   1.548   5.589   0.215  0.7128 -0.1935  1.9725
   61MOL   H10345823   1.404   5.466   0.069  0.1862 -1.7120 -0.3405
   61MOL   H10445824   1.390   5.353   0.195  0.0234  0.0990 -1.2909
   61MOL   H10545825   1.232   5.478   0.323 -1.7276  1.6199  0.2629
   61MOL   H10645826   1.240   5.615   0.210  2.1130  0.4771  1.3535
   61MOL   H10745827   1.127   5.332   0.147  0.1396 -0.5766  3.0816
   61MOL   H10845828   1.147   5.447   0.028  0.4235  1.8379 -0.0332
   61MOL   H10945829   0.910   5.465   0.120  1.5957 -1.1118 -0.1672
   61MOL   H11045830   0.974   5.502   0.275 -0.5961 -1.7412  0.0231
   61MOL   H11145831   0.884   5.690   0.136 -0.4620  0.0319 -0.0044
   61MOL   H11245832   1.039   5.730   0.198  0.5098 -0.6117 -0.6597
   61MOL   H11345833   0.970   5.629   7.632 -0.7514  0.9948 -0.1117
   61MOL   H11445834   1.139   5.660   7.669  0.8811  0.4052  1.3895
   61MOL   H11545835   0.964   5.877   7.620 -0.2218 -0.8862 -0.5946
   61MOL   C11645836   1.139   5.906   0.006 -0.2195 -0.1206  0.9058
   61MOL   O11745837   1.228   5.858   0.078 -0.2539 -0.7084 -0.2795
   61MOL   C11845838   1.134   6.058   7.676  0.6192 -0.5197 -0.5118
   61MOL   C11945839   1.185   6.149   0.080  0.8339 -0.9604 -0.9628
   61MOL   C12045840   1.174   6.300   0.050 -0.0953 -0.1832 -1.1393
   61MOL   C12145841   1.242   6.391   0.151 -0.5233 -0.2061 -0.8397
   61MOL   C12245842   1.150   6.443   0.266 -0.5505  0.8695  0.0914
   61MOL   O12345843   1.047   6.379   0.301 -0.0371  0.1786  0.2765
   61MOL   N12445844   1.188   6.557   0.324 -0.2942  0.9964 -0.4655
   61MOL   C12545845   1.111   6.609   0.437  0.3033 -0.6890 -0.1436
   61MOL   C12645846   0.970   6.660   0.398  0.0826 -0.6605 -0.3872
   61MOL   C12745847   0.964   6.788   0.322  0.2813  0.2966  1.4767
   61MOL   C12845848   0.817   6.839   0.321  0.6000  0.5225  0.7765
   61MOL   C12945849   0.795   6.970   0.244  0.2457  0.0651 -0.7442
   61MOL   C13045850   0.675   7.045   0.294 -0.4875 -0.4383 -0.4000
   61MOL   N13145851   0.669   7.185   0.247  0.0798 -0.1087  0.6188
   61MOL   H13245852   1.187   6.059   7.581  0.3839  0.7784 -0.6293
   61MOL   H13345853   1.029   6.080   7.653  0.4827 -0.8502 -0.2130
   61MOL   H13445854   1.125   6.131   0.169 -1.6283  0.6648 -2.2321
   61MOL   H13545855   1.289   6.122   0.101  1.0640  0.4812 -0.1573
   61MOL   H13645856   1.068   6.327   0.044  0.8195  3.7254 -0.7995
   61MOL   H13745857   1.222   6.308   7.661  2.6788 -2.0138  0.0390
   61MOL   H13845858   1.275   6.482   0.100 -0.4603 -0.3667 -1.0869
   61MOL   H13945859   1.329   6.347   0.199 -0.7171  2.5854  2.2491
   61MOL   H14045860   1.282   6.586   0.301  0.2785 -0.3159  0.1461
   61MOL   H14145861   1.094   6.530   0.510 -0.7469  0.7201  1.1712
   61MOL   H14245862   1.168   6.680   0.497 -3.8744  2.6433  0.1480
   61MOL   H14345863   0.925   6.580   0.339  1.6739 -2.0719  0.2966
   61MOL   H14445864   0.911   6.662   0.490  0.2206  1.3767 -0.3109
   61MOL   H14545865   1.010   6.771   0.225  2.0990 -1.9293  2.6760
   61MOL   H14645866   1.033   6.857   0.372 -0.1649  1.0138  1.1174
   61MOL   H14745867   0.757   6.758   0.278  0.9110  0.2196  0.9084
   61MOL   H14845868   0.785   6.837   0.425  1.5501  1.3063  1.0864
   61MOL   H14945869   0.883   7.033   0.261  0.8192 -0.7441 -0.6572
   61MOL   H15045870   0.784   6.951   0.137 -0.0275 -2.1670 -0.3439
   61MOL   H15145871   0.685   7.066   0.400  0.0231  1.2419 -0.7723
   61MOL   H15245872   0.582   6.989   0.283 -0.5489 -0.8153  1.8255
   61MOL   H15345873   0.756   7.235   0.246  0.6875 -1.0702  2.6936
   61MOL   C15445874   0.553   7.228   0.186  0.9440 -0.2640 -0.3652
   61MOL   O15545875   0.451   7.159   0.173  0.2806  0.5797  0.8350
   61MOL   C15645876   0.554   7.373   0.139  0.3855 -0.0135 -0.6501
   61MOL   C15745877   0.421   7.416   0.075  0.8403  0.0646 -1.0535
   61MOL   C15845878   0.429   7.535   7.693 -0.1162  0.4110  0.2458
   61MOL   C15945879   0.291   7.586   7.654 -0.6591  0.3500 -0.1113
   61MOL   C16045880   0.291   7.682   7.531 -0.4608  0.1833  0.2344
   61MOL   O16145881   0.378   0.058   7.522  0.6074 -0.3721  0.1124
   61MOL   N16245882   0.187   7.667   7.448  0.0131  0.2009 -0.1156
   61MOL   C16345883   0.161   0.040   7.331  0.3165  0.1276 -0.4417
   61MOL   C16445884   0.061   0.151   7.369 -0.8947 -0.8038  0.0164
   61MOL   C16545885   0.035   0.242   7.250  0.7552  0.5222  0.0417
   61MOL   C16645886   7.645   0.361   7.287 -0.1115 -0.7126 -0.4986
   61MOL   C16745887   7.696   0.457   7.397 -0.3242  0.6201 -0.5077
   61MOL   C16845888   7.610   0.583   7.418  0.6439  0.4874  0.1057
   61MOL   N16945889   7.611   0.671   7.299  0.5282 -0.1016  0.1035
   61MOL   H17045890   0.574   7.429   0.230  1.3953  0.6970 -1.2938
   61MOL   H17145891   0.638   7.379   0.070  0.2846  0.6324 -0.7136
   61MOL   H17245892   0.388   7.331   0.016  3.5345 -0.8451 -1.3185
   61MOL   H17345893   0.349   7.430   0.155  0.9190 -0.9069 -0.8120
   61MOL   H17445894   0.473   7.502   7.600  0.4819 -1.1924  1.0777
   61MOL   H17545895   0.476   7.625   0.026  0.6258 -0.2825  0.9482
   61MOL   H17645896   0.249   7.629   0.036 -0.8916  1.7280 -0.8614
   61MOL   H17745897   0.221   7.504   7.637  0.0140 -0.3844  0.6282
   61MOL   H17845898   0.122   7.590   7.452 -0.9888  1.0843  1.0207
   61MOL   H17945899   0.245   0.092   7.286 -0.1941  0.0301 -1.5167
   61MOL   H18045900   0.115   7.700   7.244  0.7935  0.0843 -0.6675
   61MOL   H18145901   7.676   0.113   7.410 -1.1620  0.1136  0.2771
   61MOL   H18245902   0.104   0.205   7.454 -0.2645  0.1572 -0.8955
   61MOL   H18345903   7.699   0.182   7.171  1.0250  0.5426 -0.1268
   61MOL   H18445904   0.119   0.283   7.195 -1.5970  0.0474 -4.1207
   61MOL   H18545905   7.631   0.422   7.198  2.1194 -1.0124 -1.0801
   61MOL   H18645906   7.553   0.310   7.318  0.8438 -2.3657 -0.3145
   61MOL   H18745907   0.006   0.401   7.488  0.2136 -1.4621 -1.8628
   61MOL   H18845908   0.088   0.483   7.362  0.4973 -1.4732  0.2232
   61MOL   H18945909   7.625   0.647   7.505 -1.2324  0.6346  0.3264
   61MOL   H19045910   7.506   0.558   7.437  0.7834 -0.8592 -0.8423
   61MOL   H19145911   7.660   0.645   7.215  0.2085 -0.9938  0.1905
   61MOL   C19245912   7.526   0.778   7.284 -0.7113  0.1405  0.2779
   61MOL   O19345913   7.463   0.817   7.380 -0.2072 -0.3643 -0.2357
   61MOL   C19445914   7.517   0.851   7.149  0.1744 -0.1513 -0.1462
   61MOL   C19545915   7.373   0.872   7.101 -0.7445  0.0396 -0.3171
   61MOL   C19645916   7.293   0.740   7.095 -0.0752  0.1167 -0.5309
   61MOL   C19745917   7.316   0.674   6.945  0.2305 -0.5361  0.2495
   61MOL   C19845918   7.295   0.525   6.934 -0.1771 -0.3173  0.2480
   61MOL   O19945919   7.234   0.462   7.023 -0.3481 -0.0076  0.0170
   61MOL   N20045920   7.347   0.462   6.823 -0.0079 -0.5500 -0.0811
   61MOL   C20145921   7.338   0.320   6.790  0.0413 -0.2257  0.2949
   61MOL   C20245922   7.283   0.309   6.643  0.4378 -0.2636 -0.6324
   61MOL   C20345923   7.248   0.170   6.593 -0.3118  0.2335  0.9078
   61MOL   C20445924   7.152   0.096   6.682  0.0018 -0.8564  0.0584
   61MOL   C20545925   7.222   7.708   6.782 -0.3876  0.2439  0.5381
   61MOL   C20645926   7.279   7.585   6.719 -0.1709  0.0183  0.7410
   61MOL   N20745927   7.337   7.496   6.828  0.0608  0.4408  0.1766
   61MOL   H20845928   7.569   0.946   7.162 -1.6113  0.7616  0.4781
   61MOL   H20945929   7.576   0.796   7.075 -0.3450 -0.0592 -0.6315
   61MOL   H21045930   7.317   0.934   7.170  0.4785 -0.4243  1.1280
   61MOL   H21145931   7.375   0.931   7.010  0.0856  1.8716  0.8563
   61MOL   H21245932   7.186   0.761   7.099 -0.6529 -2.7917  0.6565
   61MOL   H21345933   7.314   0.667   7.173 -1.5654 -0.5311 -0.7258
   61MOL   H21445934   7.421   0.693   6.923 -0.2923 -2.1901 -4.1554
   61MOL   H21545935   7.262   0.732   6.871 -0.9086 -3.2762 -1.1374
   61MOL   H21645936   7.390   0.524   6.756 -3.6082  1.3820 -0.7493
   61MOL   H21745937   7.433   0.268   6.796 -0.4447 -0.9702  1.6175
   61MOL   H21845938   7.280   0.273   6.869 -0.5440  2.4400  1.5224
   61MOL   H21945939   7.194   0.371   6.631  0.5925  0.0207 -0.3206
   61MOL   H22045940   7.347   0.361   6.571 -0.6432  1.1291 -0.6056
   61MOL   H22145941   7.337   0.111   6.569  0.7061  1.0941  2.4644
   61MOL   H22245942   7.204   0.191   6.496  0.5708 -3.7416 -0.4153
   61MOL   H22345943   7.108   0.176   6.741 -1.8776 -1.7243 -0.1054
   61MOL   H22445944   7.070   0.052   6.624 -0.1191 -0.0943 -0.3479
   61MOL   H22545945   7.295   0.053   6.843 -0.5773  1.9339 -0.6794
   61MOL   H22645946   7.153   7.668   6.857 -1.0169  1.8612  0.8322
   61MOL   H22745947   7.350   7.603   6.638 -0.6031 -2.4276 -0.2117
   61MOL   H22845948   7.202   7.529   6.667 -1.5471  2.7275 -0.2565
   61MOL   H22945949   7.334   7.536   6.921  2.2389  0.8086  0.1143
   61MOL   C23045950   7.394   7.379   6.803 -0.8017  0.2957  0.0591
   61MOL   O23145951   7.377   7.321   6.698 -0.3145  0.4392  0.7338
   61MOL   C23245952   7.478   7.325   6.915 -1.1497  0.1186 -0.2078
   61MOL   C23345953   7.428   7.186   6.964 -0.5423 -0.0919 -0.1053
   61MOL   C23445954   7.528   7.123   7.061 -0.0550 -0.1774  0.5324
   61MOL   C23545955   7.471   6.997   7.127  0.3110 -0.1269 -0.6625
   61MOL   C23645956   7.481   6.863   7.046 -0.2971 -0.3737  0.6480
   61MOL   O23745957   7.529   6.866   6.933 -0.0498  0.1232  0.0813
   61MOL   N23845958   7.448   6.747   7.105  0.2524  0.0396 -0.0930
   61MOL   C23945959   7.381   6.728   7.234  0.1240 -0.3225 -0.4342
   61MOL   C24045960   7.446   6.622   7.321 -0.2789  0.6946 -0.9858
   61MOL   C24145961   7.437   6.652   7.468 -0.1815 -0.3337 -0.7277
   61MOL   C24245962   7.525   6.770   7.516  0.4875  0.3003  0.1650
   61MOL   C24345963   7.489   6.805   7.663 -0.4318 -0.1906 -0.0206
   61MOL   C24445964   7.570   6.921   0.021 -0.0001 -0.2090 -0.0705
   61MOL   N24545965   7.533   6.943   0.165 -0.3256 -0.3532  0.2333
   61MOL   H24645966   7.574   7.315   6.864 -1.7105 -2.7500 -0.7679
   61MOL   H24745967   7.493   7.395   6.997 -1.1510  0.6601 -0.6687
   61MOL   H24845968   7.329   7.198   7.009 -0.6014  0.4523 -0.3754
   61MOL   H24945969   7.410   7.118   6.880 -0.6719 -0.0321 -0.1262
   61MOL   H25045970   7.550   7.199   7.136  0.7907  0.8977 -0.7840
   61MOL   H25145971   7.620   7.100   7.007  0.1411  0.4040  0.6087
   61MOL   H25245972   7.370   7.014   7.165  0.2326  1.1181 -1.3814
   61MOL   H25345973   7.530   6.995   7.219  0.5193 -2.4749 -0.8362
   61MOL   H25445974   7.472   6.667   7.049  2.2502  1.3883 -1.2397
   61MOL   H25545975   7.372   6.822   7.288 -0.0702  0.4957 -1.8625
   61MOL   H25645976   7.276   6.699   7.223 -0.3368  0.8887  0.6080
   61MOL   H25745977   7.393   6.529   7.300  0.6623  0.2005 -1.1610
   61MOL   H25845978   7.548   6.602   7.289  0.5591 -1.2813  2.6104
   61MOL   H25945979   7.476   6.563   7.517 -0.1104  0.4307  0.6189
   61MOL   H26045980   7.328   6.660   7.479  0.0344  0.0946  1.3381
   61MOL   H26145981   7.632   6.766   7.496  0.5873  1.7780  0.3623
   61MOL   H26245982   7.484   6.862   7.474  1.7014  0.3599 -0.9163
   61MOL   H26345983   7.382   6.828   7.669 -0.2894  0.7827 -1.0745
   61MOL   H26445984   7.492   6.713   0.014 -0.4578  0.2776  0.7238
   61MOL   H26545985   7.547   7.012   7.674  0.3997  0.4980  0.9221
   61MOL   H26645986   7.676   6.898   0.017 -0.1816 -1.3374  1.1548
   61MOL   H26745987   7.587   6.894   0.235 -0.0907  2.3072  1.9986
   61MOL   C26845988   7.454   7.036   0.212 -0.5476 -0.9529  0.1567
   61MOL   O26945989   7.415   7.128   0.140  0.0285 -0.5521  0.4922
   61MOL   C27045990   7.431   7.031   0.362  0.0346  0.2219 -0.3565
   61MOL   C27145991   7.329   7.124   0.421 -0.3396 -0.0462 -0.0213
   61MOL   C27245992   7.184   7.113   0.362  0.1395 -0.1593  0.3723
   61MOL   C27345993   7.105   6.990   0.401 -0.6726 -1.4522 -0.5369
   61MOL   C27445994   7.140   6.873   0.320 -0.4039  0.0067  0.1931
   61MOL   O27545995   7.142   6.876   0.194 -0.1949 -0.5335  0.2768
   61MOL   N27645996   7.169   6.763   0.392  0.4713  0.0853 -0.3965
   61MOL   C27745997   7.186   6.636   0.334  0.2304 -0.0741 -0.0627
   61MOL   C27845998   7.327   6.618   0.279 -0.0953 -0.4128 -0.8553
   61MOL   C27945999   7.333   6.491   0.199  0.0759  0.2861 -0.2854
   61MOL   C28046000   7.266   6.492   0.061 -0.1462 -0.2124  0.2981
   61MOL   C28146001   7.239   6.354   7.702  0.4771 -0.4884 -0.3427
   61MOL   C28246002   7.171   6.354   7.564  0.0661 -0.0621 -0.2797
   61MOL   N28346003   7.154   6.223   7.514  0.0374 -0.9871  0.2442
   61MOL   H28446004   7.415   6.926   0.386  2.0884 -0.2965 -1.0719
   61MOL   H28546005   7.523   7.059   0.414 -0.9855  1.2479  0.8989
   61MOL   H28646006   7.325   7.112   0.529 -2.5572 -0.0938 -0.0858
   61MOL   H28746007   7.376   7.222   0.404  0.9787 -0.6829 -0.1201
   61MOL   H28846008   7.183   7.124   0.254 -1.4827  0.5949  0.4512
   61MOL   H28946009   7.131   7.203   0.394  0.8829  0.2338  0.5081
   61MOL   H29046010   6.997   7.001   0.393 -0.8582  0.6677  3.8788
   61MOL   H29146011   7.130   6.973   0.505  0.3113  1.0288 -0.3380
   61MOL   H29246012   7.194   6.775   0.489  1.1059  0.9555 -0.6704
   61MOL   H29346013   7.174   6.566   0.417 -1.1781  2.1091  1.6373
   61MOL   H29446014   7.114   6.609   0.258 -0.5122  1.2420  0.1541
   61MOL   H29546015   7.370   6.699   0.219  1.5063 -0.1030  0.6639
   61MOL   H29646016   7.391   6.610   0.367  0.2277  0.1659 -1.0308
   61MOL   H29746017   7.280   6.409   0.247  0.7575 -0.2832 -0.4923
   61MOL   H29846018   7.437   6.471   0.173  0.3295  1.4995 -0.2244
   61MOL   H29946019   7.165   6.532   0.074 -1.0300 -0.7989 -3.9658
   61MOL   H30046020   7.309   6.557   7.693 -3.1233  1.3725 -0.1163
   61MOL   H30146021   7.335   6.303   7.688  0.7745  0.0719 -0.3434
   61MOL   H30246022   7.172   6.294   0.056 -0.3257  0.5625 -0.1919
   61MOL   H30346023   7.204   6.421   7.485 -3.2625  0.6280 -1.1426
   61MOL   H30446024   7.069   6.389   7.575  1.2371  2.8561  2.0056
   61MOL   H30546025   7.087   6.161   7.558  0.7595 -0.2829  2.3923
   61MOL   C30646026   7.212   6.167   7.407 -0.6647  0.3637 -0.2599
   61MOL   O30746027   7.296   6.227   7.340  0.0397  0.3926  0.2954
   61MOL   C30846028   7.179   6.020   7.374 -0.5596  0.3133  0.4069
   61MOL   C30946029   7.102   6.004   7.239 -0.7378  0.0114  0.8227
   61MOL   C31046030   7.024   5.870   7.223 -0.9868  0.7238 -0.3086
   61MOL   C31146031   6.948   5.846   7.089  0.0791 -0.1319 -0.1495
   61MOL   C31246032   6.806   5.899   7.093 -0.1285  0.4872  0.0370
   61MOL   O31346033   6.780   6.014   7.136 -0.1357  1.1726 -0.1630
   61MOL   N31446034   6.711   5.818   7.036 -0.5430 -0.4883  0.9928
   61MOL   C31546035   6.575   5.856   7.000  1.1566  0.0393  0.5501
   61MOL   C31646036   6.530   5.789   6.867  0.4587 -0.3018  0.2518
   61MOL   C31746037   6.376   5.802   6.850  0.3995 -0.1017 -0.4521
   61MOL   C31846038   6.342   5.736   6.712 -0.1470 -0.4659 -0.2899
   61MOL   C31946039   6.202   5.676   6.698  0.0259  0.3275 -0.1419
   61MOL   C32046040   6.165   5.619   6.560 -0.4101  0.4154  0.5780
   61MOL   N32146041   6.027   5.575   6.562  0.3445 -0.5461  0.2961
   61MOL   H32246042   7.273   5.964   7.366 -0.4440  0.3820  1.2691
   61MOL   H32346043   7.123   5.976   7.456 -0.7447 -0.9484 -0.3776
   61MOL   H32446044   7.030   6.084   7.220 -2.4246 -2.1743 -2.3733
   61MOL   H32546045   7.178   6.002   7.161  0.7877 -0.2190  2.2869
   61MOL   H32646046   6.953   5.851   7.304  0.0649 -1.3076  0.1682
   61MOL   H32746047   7.098   5.791   7.225 -0.8789  0.7152 -3.0185
   61MOL   H32846048   6.940   5.739   7.067 -0.2381 -0.0839 -0.2667
   61MOL   H32946049   7.002   5.892   7.006 -0.2712 -0.8808 -0.7997
   61MOL   H33046050   6.733   5.723   7.011 -0.0370 -0.0301 -0.3409
   61MOL   H33146051   6.499   5.856   7.078 -1.4380  1.5534 -1.8954
   61MOL   H33246052   6.575   5.962   6.976  0.5691 -0.0941 -0.0782
   61MOL   H33346053   6.591   5.827   6.785  0.2979 -1.2038 -0.3022
   61MOL   H33446054   6.559   5.684   6.872 -0.6413 -0.7403 -1.7167
   61MOL   H33546055   6.331   5.901   6.857 -1.5507 -0.8850 -1.4447
   61MOL   H33646056   6.337   5.754   6.940  0.0974  0.9500 -0.0127
   61MOL   H33746057   6.355   5.809   6.632 -1.7697  1.9757  1.6074
   61MOL   H33846058   6.409   5.652   6.691  1.2174  0.6762 -0.6281
   61MOL   H33946059   6.201   5.589   6.763 -0.8216  1.2242  1.0697
   61MOL   H34046060   6.128   5.744   6.740 -0.6392 -0.4719 -0.0175
   61MOL   H34146061   6.233   5.538   6.533  1.9893  2.1407  1.2978
   61MOL   H34246062   6.174   5.703   6.492  1.3015  0.5285  0.9197
   61MOL   H34346063   5.965   5.647   6.527 -0.7180 -1.8382 -0.5498
   61MOL   C34446064   5.982   5.450   6.588  0.0716 -0.8996  0.7211
   61MOL   O34546065   6.061   5.356   6.619 -0.1315  0.0869  0.6676
   61MOL   C34646066   5.829   5.420   6.571 -0.0141 -0.7613 -0.3618
   61MOL   C34746067   5.812   5.311   6.462  0.3309  0.3836 -0.0055
   61MOL   C34846068   5.836   5.345   6.313  0.3136 -0.1285 -0.0264
   61MOL   C34946069   5.765   5.251   6.215  0.2734 -0.9018  0.8344
   61MOL   C35046070   5.781   5.290   6.068  0.3831 -0.4777 -0.6001
   61MOL   O35146071   5.788   5.408   6.040  0.2788 -0.2669  0.4308
   61MOL   N35246072   5.794   5.191   5.972 -0.3418  0.2018  0.6375
   61MOL   C35346073   5.800   5.216   5.830 -0.1705  1.0979 -0.0161
   61MOL   C35446074   5.813   5.081   5.764  0.6375  0.0951  0.5317
   61MOL   C35546075   5.824   5.089   5.609  0.3546 -0.2634  0.6144
   61MOL   C35646076   5.844   4.957   5.527 -0.9303  1.0148  0.5682
   61MOL   C35746077   5.912   4.993   5.400 -0.0348 -0.1162 -0.6206
   61MOL   C35846078   5.925   4.874   5.304  0.1989 -0.1490 -0.5576
   61MOL   N35946079   6.021   4.902   5.198  0.1685  0.4498 -0.0444
   61MOL   H36046080   5.791   5.389   6.668 -3.3757 -0.9904 -1.6699
   61MOL   H36146081   5.769   5.509   6.550 -0.5026 -1.0765 -0.3041
   61MOL   H36246082   5.879   5.231   6.493 -1.1133 -0.5399  0.8249
   61MOL   H36346083   5.718   5.256   6.473  1.5852 -1.8383  0.0378
   61MOL   H36446084   5.942   5.362   6.297  0.5251 -0.2238  1.2285
   61MOL   H36546085   5.788   5.442   6.298  0.8618  0.2317  0.5322
   61MOL   H36646086   5.658   5.239   6.231 -0.4160  2.2553 -0.9073
   61MOL   H36746087   5.809   5.154   6.239 -0.7650 -1.3506  0.9468
   61MOL   H36846088   5.792   5.101   6.018 -1.1062 -0.0464  0.1314
   61MOL   H36946089   5.710   5.272   5.804  2.2208  4.6921 -0.9288
   61MOL   H37046090   5.879   5.287   5.804 -0.5123  1.8850  1.0559
   61MOL   H37146091   5.898   5.022   5.801 -1.4098 -3.1589  0.2078
   61MOL   H37246092   5.729   5.019   5.795 -0.3014  1.3480  0.5135
   61MOL   H37346093   5.911   5.152   5.591 -1.6577  2.4513  0.0335
   61MOL   H37446094   5.741   5.147   5.569 -0.2259 -1.5964 -0.1494
   61MOL   H37546095   5.908   4.890   5.584 -0.1063  2.0495  0.8892
   61MOL   H37646096   5.748   4.907   5.510 -0.4378  0.3852 -0.4098
   61MOL   H37746097   5.871   5.085   5.358 -1.8169  0.3008  1.9524
   61MOL   H37846098   6.014   5.021   5.426 -0.3893  0.0641  0.6269
   61MOL   H37946099   5.830   4.847   5.259 -0.2789 -0.1861  0.4621
   61MOL   H38046100   5.963   4.785   5.354  2.2307  0.5380 -0.8458
   61MOL   H38146101   6.093   4.969   5.220  0.5872 -0.5560  1.7593
   61MOL   C38246102   6.023   4.848   5.079  0.4593 -0.0311  0.2531
   61MOL   O38346103   5.946   4.754   5.057  0.2122 -0.2702 -0.0242
   61MOL   C38446104   6.127   4.894   4.974 -0.3119 -0.1633  0.5867
   61MOL   C38546105   6.138   4.803   4.848  0.1496 -0.2772 -0.1781
   61MOL   C38646106   6.013   4.819   4.756  0.1470  0.4113  0.1295
   61MOL   C38746107   6.045   4.753   4.618 -0.2010  0.1585 -0.2751
   61MOL   C38846108   5.928   4.716   4.529  0.7176  0.3828 -0.4254
   61MOL   O38946109   5.835   4.657   4.577 -0.4717 -0.7423  0.0639
   61MOL   N39046110   5.929   4.743   4.393 -0.0814  0.3480 -0.3884
   61MOL   C39146111   6.040   4.756   4.300 -0.4693  0.2508 -0.0886
   61MOL   C39246112   6.102   4.628   4.261 -0.3603 -0.1593 -0.5663
   61MOL   C39346113   6.007   4.541   4.178  0.3473 -0.0432  0.2157
   61MOL   C39446114   6.077   4.413   4.116  0.0830 -0.2387  0.0398
   61MOL   C39546115   5.978   4.342   4.029 -0.3187 -0.0472 -0.1566
   61MOL   C39646116   6.035   4.227   3.944 -0.2597  0.8831 -0.2075
   61MOL   N39746117   6.041   4.105   4.025 -0.5597 -0.2480  0.0168
   61MOL   H39846118   6.101   4.998   4.953 -1.6529 -0.6749 -0.3841
   61MOL   H39946119   6.219   4.901   5.032  0.6562 -0.7169 -0.8522
   61MOL   H40046120   6.217   4.851   4.790  2.3326 -0.6675  2.3358
   61MOL   H40146121   6.166   4.699   4.864  1.3529 -0.0792 -0.9068
   61MOL   H40246122   5.990   4.923   4.735 -0.6842  0.0951 -0.5484
   61MOL   H40346123   5.921   4.787   4.803  0.9494 -0.1291  1.3483
   61MOL   H40446124   6.090   4.657   4.639  1.0052  0.5823 -0.8848
   61MOL   H40546125   6.127   4.796   4.561  2.5485 -1.6574  2.2254
   61MOL   H40646126   5.835   4.730   4.357  0.6670 -0.2266 -2.2340
   61MOL   H40746127   6.011   4.830   4.226  0.0502 -0.8071 -1.3584
   61MOL   H40846128   6.118   4.814   4.349 -0.7493  1.1451 -0.6811
   61MOL   H40946129   6.194   4.647   4.206 -0.8464  2.3898 -0.5745
   61MOL   H41046130   6.125   4.565   4.347  0.3293 -0.4399 -0.9530
   61MOL   H41146131   5.964   4.601   4.098  2.4909  0.8399 -0.2941
   61MOL   H41246132   5.925   4.508   4.242  2.0587 -4.5478  0.2749
   61MOL   H41346133   6.165   4.448   4.064  1.1517 -1.3625  1.0626
   61MOL   H41446134   6.120   4.356   4.199 -0.5185  1.6334  1.6753
   61MOL   H41546135   5.898   4.313   4.097  0.3184 -0.5368  0.3869
   61MOL   H41646136   5.926   4.409   3.960 -1.1733 -1.1000 -0.5535
   61MOL   H41746137   6.136   4.243   3.907 -1.0759  1.8868 -2.0238
   61MOL   H41846138   5.969   4.214   3.859  0.2229  3.1870 -0.9753
   61MOL   H41946139   5.957   4.050   4.039  0.1496 -1.5575 -0.7342
   61MOL   C42046140   6.145   4.074   4.099 -0.6555  0.2613  0.3785
   61MOL   O42146141   6.268   4.107   4.072  0.1501  0.0936  0.0126
   61MOL   C42246142   6.119   3.992   4.218  0.5341  0.5716 -0.3778
   61MOL   C42346143   6.240   3.952   4.305  0.1208 -0.1924  0.6397
   61MOL   C42446144   6.262   4.055   4.415 -0.6752  0.7918  0.0814
   61MOL   C42546145   6.406   4.036   4.472  0.0183  0.7825 -0.0769
   61MOL   C42646146   6.440   3.895   4.531 -0.0772 -0.4482  0.8032
   61MOL   O42746147   6.350   3.838   4.592 -0.7921 -0.7619 -0.5427
   61MOL   N42846148   6.565   3.852   4.502  0.5904 -0.3169 -0.9345
   61MOL   C42946149   6.616   3.718   4.508 -0.2893  0.1513  0.0855
   61MOL   C43046150   6.747   3.716   4.591  0.1186  0.0328 -0.7871
   61MOL   C43146151   6.799   3.574   4.612  0.1491 -0.1556 -0.1461
   61MOL   C43246152   6.918   3.569   4.716 -0.3914  0.3852  0.2262
   61MOL   C43346153   7.035   3.638   4.660 -0.7919  0.0443  0.1688
   61MOL   C43446154   7.137   3.661   4.769 -0.0827 -0.3719 -0.0933
   61MOL   N43546155   7.253   3.713   4.697 -0.2470 -0.1515 -0.4264
   61MOL   H43646156   6.040   4.039   4.276  0.3620  0.4470 -0.5098
   61MOL   H43746157   6.071   3.896   4.196  0.6250  0.2957  0.6267
   61MOL   H43846158   6.228   3.856   4.356 -1.9523  1.1117  2.6961
   61MOL   H43946159   6.327   3.933   4.243 -0.2985  1.1154 -0.3776
   61MOL   H44046160   6.196   4.033   4.499  0.4855 -0.8044  0.5984
   61MOL   H44146161   6.251   4.159   4.382  0.1919  0.8437 -0.0476
   61MOL   H44246162   6.432   4.110   4.547 -0.3811  1.9971 -1.1172
   61MOL   H44346163   6.479   4.036   4.391 -0.5497 -0.7056 -0.6108
   61MOL   H44446164   6.627   3.907   4.444  0.9149  0.4243  0.1085
   61MOL   H44546165   6.541   3.654   4.556 -0.5901 -0.7794 -1.5713
   61MOL   H44646166   6.615   3.677   4.407 -1.7536 -0.1946  0.2169
   61MOL   H44746167   6.820   3.781   4.542  0.0980  0.1206 -0.7009
   61MOL   H44846168   6.720   3.753   4.690  1.3047 -0.5876 -0.2200
   61MOL   H44946169   6.822   3.521   4.520 -3.5559 -0.7966 -0.7829
   61MOL   H45046170   6.716   3.518   4.655  0.5502 -1.2290 -0.7459
   61MOL   H45146171   6.881   3.625   4.802 -0.1163  1.7381 -0.5139
   61MOL   H45246172   6.941   3.464   4.731 -1.0241 -0.2520 -2.8434
   61MOL   H45346173   7.080   3.564   4.593  2.2436  0.7831  1.3154
   61MOL   H45446174   7.009   3.726   4.603 -1.5955 -0.4262 -0.1934
   61MOL   H45546175   7.153   3.573   4.833 -0.5490  0.5129  1.2660
   61MOL   H45646176   7.094   3.733   4.839 -2.4078 -2.3656  0.6115
   61MOL   H45746177   7.241   3.765   4.612 -0.4661 -0.3111 -0.4954
   61MOL   C45846178   7.376   3.710   4.748  0.1893 -0.3891 -0.1526
   61MOL   O45946179   7.395   3.653   4.861 -0.0860  0.1724  0.3167
   61MOL   C46046180   7.487   3.775   4.678 -0.4301 -0.3695  0.1195
   61MOL   C46146181   7.623   3.701   4.705 -0.2751 -0.3839 -0.5215
   61MOL   C46246182   0.038   3.759   4.634  0.0835  0.3363  1.1804
   61MOL   C46346183   0.170   3.671   4.641 -0.4953 -0.4689 -0.1204
   61MOL   C46446184   0.284   3.738   4.566 -0.2068  0.1389  0.1749
   61MOL   O46546185   0.326   3.844   4.610 -0.2749  0.0084 -0.2394
   61MOL   N46646186   0.331   3.676   4.453 -0.2506 -0.8613  0.3036
   61MOL   C46746187   0.437   3.732   4.366  0.0913 -0.2997 -0.3205
   61MOL   C46846188   0.395   3.852   4.282 -0.0454 -0.9210  0.4496
   61MOL   C46946189   0.521   3.907   4.208  0.1132  0.3376 -0.7429
   61MOL   C47046190   0.486   3.977   4.076 -0.3083  0.1474 -0.7625
   61MOL   C47146191   0.613   4.033   4.002  0.5493 -0.1984  0.0251
   61MOL   C47246192   0.660   4.162   4.071 -0.5913 -0.5493 -0.3773
   61MOL   N47346193   0.780   4.216   3.999  0.3667 -0.6133 -0.0280
   61MOL   H47446194   7.457   3.779   4.574  1.5871  0.8586 -0.4653
   61MOL   H47546195   7.499   3.880   4.704 -1.3945  0.1662 -1.5038
   61MOL   H47646196   7.642   3.695   4.812 -1.7083  1.7020 -0.1320
   61MOL   H47746197   7.607   3.596   4.677 -0.1584 -0.7976  0.9081
   61MOL   H47846198   0.059   3.856   4.677  0.1397  0.5788  0.6183
   61MOL   H47946199   0.014   3.776   4.529 -0.9242 -1.8615  1.0196
   61MOL   H48046200   0.158   3.571   4.599  2.0950 -0.6166 -0.6250
   61MOL   H48146201   0.208   3.664   4.743  0.7855 -0.6569 -0.6023
   61MOL   H48246202   0.307   3.579   4.435  1.5135 -0.8763 -2.1977
   61MOL   H48346203   0.521   3.749   4.434  0.6470 -1.0778 -0.8053
   61MOL   H48446204   0.466   3.654   4.296  2.0955  2.6235 -2.8998
   61MOL   H48546205   0.314   3.824   4.215 -0.0058 -0.8110  0.3565
   61MOL   H48646206   0.346   3.925   4.348  0.1068 -2.0090  1.7875
   61MOL   H48746207   0.579   3.815   4.204 -2.6532 -1.5058 -0.2932
   61MOL   H48846208   0.572   3.966   4.284  0.8801 -1.0695 -0.1345
   61MOL   H48946209   0.436   3.902   4.014 -0.9568 -2.6427  2.9952
   61MOL   H49046210   0.418   4.061   4.091  0.2726  0.6806 -1.0735
   61MOL   H49146211   0.696   3.962   4.004  2.1850  1.6327 -0.9424
   61MOL   H49246212   0.580   4.046   3.900 -2.2483  0.5505  0.9916
   61MOL   H49346213   0.680   4.160   4.178  0.7251  0.8237 -0.5777
   61MOL   H49446214   0.576   4.229   4.057 -0.4255 -0.8503 -3.2374
   61MOL   H49546215   0.854   4.155   3.971 -0.4941 -2.5479  1.7728
   61MOL   C49646216   0.802   4.347   3.994  0.1541  0.0087  0.3326
   61MOL   O49746217   0.710   4.428   4.018 -0.1164  0.5275 -0.2491
   61MOL   C49846218   0.945   4.390   3.954  0.8000 -0.4253  0.0840
   61MOL   C49946219   0.970   4.541   3.956 -0.5451 -0.0772 -0.3856
   61MOL   C50046220   0.896   4.621   3.853  0.0191 -0.3193  0.4242
   61MOL   C50146221   0.968   4.740   3.781  0.7942  0.5956  0.3809
   61MOL   C50246222   0.977   4.861   3.868 -0.0068 -0.5926  0.0937
   61MOL   O50346223   1.024   4.856   3.983  0.0437  0.3262  0.7674
   61MOL   N50446224   0.951   4.980   3.807  0.2305 -0.0232  0.2570
   61MOL   C50546225   0.973   5.110   3.868 -0.3110  0.4865  0.2193
   61MOL   C50646226   0.881   5.139   3.980 -0.1182  0.1089 -0.1142
   61MOL   C50746227   0.736   5.110   3.953  1.0566  0.6558  0.6685
   61MOL   C50846228   0.656   5.177   4.064  0.1588  1.0946 -0.1881
   61MOL   C50946229   0.511   5.130   4.050 -0.2544  0.0701 -0.2073
   61MOL   C51046230   0.425   5.243   4.108  0.0736 -0.7454 -0.5579
   61MOL   N51146231   0.293   5.193   4.130 -0.5716  0.0602  0.0322
   61MOL   H51246232   1.023   4.346   4.016 -1.0630  0.8518  3.4721
   61MOL   H51346233   0.969   4.348   3.856 -1.9516 -2.3350  0.1891
   61MOL   H51446234   0.955   4.596   4.049 -0.2879 -0.0422 -0.3630
   61MOL   H51546235   1.075   4.567   3.938 -0.6279 -0.6198 -1.7908
   61MOL   H51646236   0.809   4.673   3.894 -0.0910 -0.8867  0.9059
   61MOL   H51746237   0.846   4.558   3.778  2.4045  0.7609 -2.1510
   61MOL   H51846238   0.914   4.762   3.689 -0.6777  1.7284  1.4919
   61MOL   H51946239   1.065   4.699   3.750 -0.7991 -0.6154 -3.2928
   61MOL   H52046240   0.917   4.978   3.712 -1.6507 -1.3711  0.9316
   61MOL   H52146241   1.071   5.122   3.915 -0.5241 -1.0568  1.0857
   61MOL   H52246242   0.973   5.176   3.781  1.4264  2.1842  1.4775
   61MOL   H52346243   0.917   5.066   4.052 -0.5336  0.5373  0.5379
   61MOL   H52446244   0.897   5.245   4.003  1.9185 -0.3726  0.8187
   61MOL   H52546245   0.717   5.003   3.943  0.0855  0.8329  0.5702
   61MOL   H52646246   0.714   5.164   3.861  1.0266  0.5970  0.6414
   61MOL   H52746247   0.700   5.144   4.158  0.9894 -3.9889 -2.2405
   61MOL   H52846248   0.682   5.283   4.051 -0.8812  1.3453 -0.2782
   61MOL   H52946249   0.472   5.109   3.951  3.1846 -0.8688 -1.4293
   61MOL   H53046250   0.508   5.038   4.109  0.5125  0.6227  0.7243
   61MOL   H53146251   0.433   5.324   4.035  1.9098 -0.8764 -0.5129
   61MOL   H53246252   0.468   5.277   4.202  0.1916  0.0752 -0.9096
   61MOL   H53346253   0.292   5.115   4.196 -1.0774  1.4554  1.7175
   61MOL   C53446254   0.176   5.246   4.098 -0.2085 -0.8072  0.1647
   61MOL   O53546255   0.157   5.353   4.040 -0.1037 -0.8658  0.3221
   61MOL   C53646256   0.051   5.165   4.135 -0.6615  0.3907  0.2862
   61MOL   C53746257   0.053   5.022   4.084  0.1779 -0.2418  0.1507
   61MOL   C53846258   7.662   4.991   3.966 -1.1787  0.1314 -0.3429
   61MOL   C53946259   7.524   4.940   4.013 -0.3289  0.5540 -0.2951
   61MOL   C54046260   7.448   4.885   3.889 -0.6598  0.4492 -1.0379
   61MOL   O54146261   7.389   4.962   3.815 -0.0526  0.6403  0.0601
   61MOL   N54246262   7.455   4.754   3.866  0.2775 -0.5909  0.1984
   61MOL   C54346263   7.386   4.693   3.749  0.4104 -0.3587 -0.5032
   61MOL   C54446264   7.246   4.657   3.790 -0.5087 -0.2781  0.1839
   61MOL   C54546265   7.163   4.606   3.666 -0.5518  0.9249  0.3356
   61MOL   C54646266   7.042   4.531   3.711 -0.2856 -0.1174 -0.0499
   61MOL   C54746267   6.958   4.489   3.586  0.9979  0.2886  0.6018
   61MOL   C54846268   6.809   4.444   3.615  0.7296 -0.0491 -0.1846
   61MOL   N54946269   6.802   4.351   3.737 -0.3200 -0.4469  0.1993
   61MOL   H55046270   0.041   5.153   4.243 -1.3216  0.4508  0.2307
   61MOL   H55146271   7.670   5.208   4.090 -0.8863  0.2795  0.6264
   61MOL   H55246272   0.147   5.018   4.029  0.3859  0.1341  0.4767
   61MOL   H55346273   0.054   4.944   4.161  0.2467  0.5573  0.9623
   61MOL   H55446274   0.001   4.917   3.901 -1.3599 -0.4147  0.1484
   61MOL   H55546275   7.653   5.077   3.899  0.0348  0.1157 -0.5287
   61MOL   H55646276   7.459   5.017   4.055 -0.7855  0.4857 -0.8842
   61MOL   H55746277   7.527   4.858   4.085 -1.9902  0.2231 -0.5980
   61MOL   H55846278   7.507   4.695   3.929 -0.3087 -2.7293 -1.2578
   61MOL   H55946279   7.385   4.755   3.659  1.5361  0.7543  0.2337
   61MOL   H56046280   7.445   4.605   3.725 -0.0434 -0.9035  0.3736
   61MOL   H56146281   7.255   4.594   3.878 -0.0239 -1.4903 -0.7294
   61MOL   H56246282   7.199   4.748   3.827  1.4840  0.8711 -0.0549
   61MOL   H56346283   7.226   4.529   3.620 -1.2550  0.7018 -0.2678
   61MOL   H56446284   7.138   4.680   3.589  0.5351  1.2313  0.2685
   61MOL   H56546285   7.072   4.446   3.772  2.9527 -0.0126 -1.4234
   61MOL   H56646286   6.979   4.588   3.780 -1.0812  0.5158 -1.2820
   61MOL   H56746287   6.960   4.553   3.498  1.2057 -1.5425 -0.7502
   61MOL   H56846288   7.002   4.400   3.540 -0.2317  0.3357 -0.6746
   61MOL   H56946289   6.752   4.401   3.533 -2.5371  2.6754  0.5259
   61MOL   H57046290   6.752   4.536   3.627 -0.8153 -1.1220  1.0152
   61MOL   H57146291   6.768   4.400   3.818  1.1487  0.9964 -0.0345
   61MOL   C57246292   6.849   4.227   3.741  0.3438  0.0253 -0.4200
   61MOL   O57346293   6.898   4.171   3.640  0.1338  0.0223 -0.4338
   61MOL   C57446294   6.857   4.152   3.875  0.1542 -0.3676  0.5699
   61MOL   C57546295   6.991   4.094   3.915  0.2300  0.6225 -0.2857
   61MOL   C57646296   7.105   4.192   3.925 -0.0100  0.1180 -0.4026
   61MOL   C57746297   7.238   4.133   3.974 -0.6851  0.2831  0.5236
   61MOL   C57846298   7.355   4.238   3.975 -0.0939  0.2512  0.0720
   61MOL   O57946299   7.348   4.336   4.050 -0.1946  0.0659 -0.3148
   61MOL   N58046300   7.461   4.212   3.899 -0.5329 -0.1755 -0.6368
   61MOL   C58146301   7.563   4.315   3.861 -0.2504 -0.4491  0.6032
   61MOL   C58246302   7.609   4.282   3.722  0.2187  0.7782  0.4419
   61MOL   C58346303   7.694   4.394   3.663 -0.5616 -0.2167 -0.1244
   61MOL   C58446304   0.047   4.338   3.536 -0.3207  0.1315  0.5793
   61MOL   C58546305   0.146   4.425   3.455  0.1198 -0.4046  0.7833
   61MOL   C58646306   0.218   4.349   3.351  0.2020 -0.6393 -0.0956
   61MOL   N58746307   0.333   4.425   3.312  0.2952  1.4205  0.2453
   61MOL   H58846308   6.824   4.227   3.947 -1.9093  0.5426 -1.2673
   61MOL   H58946309   6.794   4.064   3.868  0.4475 -0.5960  0.8246
   61MOL   H59046310   6.988   4.034   4.006  1.3513  2.0431  0.7045
   61MOL   H59146311   7.022   4.024   3.837  1.7859  1.3249 -0.3084
   61MOL   H59246312   7.088   4.273   3.996  3.2353  1.4878 -1.0665
   61MOL   H59346313   7.118   4.233   3.826 -0.7280  0.6813 -0.2667
   61MOL   H59446314   7.269   4.049   3.912 -0.5241  0.6406  0.1130
   61MOL   H59546315   7.229   4.103   4.078  1.2827 -1.4859  0.2006
   61MOL   H59646316   7.438   4.136   3.837 -1.4920 -0.3299 -0.1006
   61MOL   H59746317   7.531   4.418   3.876 -3.3565 -1.3184  0.4624
   61MOL   H59846318   7.654   4.313   3.921  1.3931 -2.0063 -1.8749
   61MOL   H59946319   7.644   4.180   3.738 -3.6333 -0.5605  0.7485
   61MOL   H60046320   7.519   4.268   3.663  0.9175 -1.2195 -0.1995
   61MOL   H60146321   0.050   4.438   3.740 -0.1470 -3.7601  1.6603
   61MOL   H60246322   7.629   4.478   3.635 -2.2372 -0.7045  2.1715
   61MOL   H60346323   0.112   4.255   3.563  0.4855  1.5199  3.0662
   61MOL   H60446324   7.668   4.309   3.477  0.1558 -3.9354  1.7649
   61MOL   H60546325   0.094   4.509   3.410 -0.2342 -0.2052  1.5625
   61MOL   H60646326   0.219   4.472   3.520  1.3010  1.3713 -1.7408
   61MOL   H60746327   0.156   4.355   3.262 -3.0427 -1.2501  2.0498
   61MOL   H60846328   0.229   4.243   3.373  0.9948 -0.8290 -1.3122
   61MOL   H60946329   0.379   4.493   3.371  2.1413  0.5602 -0.1817
   61MOL   C61046330   0.374   4.441   3.188  0.2626 -0.6944  0.4695
   61MOL   O61146331   0.339   4.373   3.093 -0.2663 -0.1539  0.2434
   61MOL   C61246332   0.472   4.557   3.175  0.7756  0.3448 -0.4485
   61MOL   C61346333   0.407   4.687   3.137 -0.2081 -0.1113 -0.2633
   61MOL   C61446334   0.325   4.753   3.243  0.1713  0.1819  0.3453
   61MOL   C61546335   0.270   4.888   3.195 -0.1310  0.1640 -0.0035
   61MOL   C61646336   0.367   5.004   3.206  0.5107  0.1767  0.3286
   61MOL   O61746337   0.483   4.983   3.242 -0.3492  0.1600 -0.2135
   61MOL   N61846338   0.317   5.123   3.169  0.0066 -0.0914 -0.1126
   61MOL   C61946339   0.387   5.250   3.172  0.6731  0.6482  0.1780
   61MOL   C62046340   0.279   5.357   3.188 -0.8865  0.0074 -0.4450
   61MOL   C62146341   0.332   5.493   3.237 -0.3321  0.1072  0.2368
   61MOL   C62246342   0.238   5.598   3.293 -0.6014  0.1950  0.5912
   61MOL   C62346343   0.304   5.733   3.330 -0.6174  0.1467 -0.0987
   61MOL   C62446344   0.205   5.827   3.399  0.7350 -1.3098 -0.1135
   61MOL   N62546345   0.279   5.943   3.449  0.2918 -0.8376  0.4368
   61MOL   H62646346   0.532   4.553   3.266  2.2502 -0.1483 -1.4294
   61MOL   H62746347   0.539   4.542   3.091  0.7365 -2.3132 -0.0561
   61MOL   H62846348   0.477   4.764   3.103  0.3368  1.0782  3.3681
   61MOL   H62946349   0.345   4.683   3.047  0.3169  3.2556 -0.8489
   61MOL   H63046350   0.384   4.771   3.333 -0.7063  1.2043  0.7214
   61MOL   H63146351   0.244   4.687   3.273 -1.3632  1.2892 -1.2565
   61MOL   H63246352   0.174   4.901   3.246  0.5189  2.5446  0.6773
   61MOL   H63346353   0.246   4.890   3.089  2.5673 -1.6069 -0.6819
   61MOL   H63446354   0.220   5.124   3.140 -0.5926 -2.6666  1.6229
   61MOL   H63546355   0.447   5.249   3.263  1.5085  0.6004 -0.3696
   61MOL   H63646356   0.452   5.266   3.086  0.7615  1.5118  0.4044
   61MOL   H63746357   0.245   5.368   3.085  0.4811  1.3734 -0.7653
   61MOL   H63846358   0.195   5.318   3.247 -2.1324  2.7487 -0.3364
   61MOL   H63946359   0.386   5.541   3.155 -1.0260 -1.8578 -1.4126
   61MOL   H64046360   0.403   5.468   3.316  0.9337  0.6711 -0.7120
   61MOL   H64146361   0.153   5.614   3.227  0.3170  0.7649 -0.4826
   61MOL   H64246362   0.191   5.562   3.384 -1.7459 -0.5308 -0.2844
   61MOL   H64346363   0.398   5.729   3.385 -0.0383  1.0513 -1.0108
   61MOL   H64446364   0.329   5.783   3.237  1.9939 -2.4022 -0.8412
   61MOL   H64546365   0.153   5.784   3.484 -0.7647  0.1438 -0.2553
   61MOL   H64646366   0.125   5.862   3.333 -0.3885 -1.6595  1.0357
   61MOL   H64746367   0.348   5.981   3.387  1.2488  0.7624  2.4351
   61MOL   C64846368   0.253   6.011   3.558  0.5719  0.3455 -1.2179
   61MOL   O64946369   0.147   5.992   3.626  0.1168 -0.0845 -0.2510
   61MOL   C65046370   0.354   6.122   3.589  0.0689  0.5019  0.5179
   61MOL   C65146371   0.290   6.261   3.578 -0.0173  0.3334 -0.1489
   61MOL   C65246372   0.243   6.294   3.428 -0.3396  0.4624 -0.7249
   61MOL   C65346373   0.202   6.434   3.394  0.4932 -0.4900  0.2724
   61MOL   C65446374   0.094   6.489   3.485 -0.0235  0.1286 -0.3576
   61MOL   O65546375   7.685   6.451   3.466  0.2817 -0.1500 -0.7852
   61MOL   N65646376   0.136   6.565   3.588  0.0919 -0.6408  0.1039
   61MOL   C65746377   0.055   6.612   3.701 -0.0329  0.6305 -0.4718
   61MOL   C65846378   0.048   6.504   3.812  0.9833 -0.0262 -0.9443
   61MOL   C65946379   0.183   6.476   3.881 -0.2487  0.1412 -0.0148
   61MOL   C66046380   0.187   6.363   3.980 -0.2573  0.0538  0.0105
   61MOL   C66146381   0.197   6.225   3.917  0.1079 -1.2184 -0.2618
   61MOL   C66246382   0.177   6.100   4.009  0.1615 -0.3523  0.2265
   61MOL   N66346383   0.158   5.982   3.925 -0.3859  0.2042  0.1312
   61MOL   H66446384   0.399   6.107   3.688 -1.2151 -2.3340  0.7241
   61MOL   H66546385   0.436   6.124   3.517 -1.0902  1.5817 -0.7904
   61MOL   H66646386   0.207   6.273   3.648  0.2314  0.6385  0.0974
   61MOL   H66746387   0.362   6.336   3.611 -0.5274  0.9273 -0.3721
   61MOL   H66846388   0.157   6.234   3.399  0.8807 -0.8335 -1.7190
   61MOL   H66946389   0.330   6.268   3.368  0.3112  0.5859  0.1416
   61MOL   H67046390   0.190   6.448   3.286  2.2454  0.8044  0.2313
   61MOL   H67146391   0.295   6.487   3.412  0.5493 -1.9602  4.8666
   61MOL   H67246392   0.224   6.613   3.579  0.4147 -1.2853 -0.1999
   61MOL   H67346393   0.106   6.702   3.735 -2.2721  2.6431 -2.2726
   61MOL   H67446394   7.663   6.645   3.672 -0.2809 -0.1930 -0.5811
   61MOL   H67546395   7.694   6.531   3.897 -0.4680 -0.9409 -1.6880
   61MOL   H67646396   0.002   6.415   3.769  2.3948 -1.1042 -0.2860
   61MOL   H67746397   0.214   6.571   3.925  1.4398 -0.6633  0.5378
   61MOL   H67846398   0.266   6.457   3.813  1.8082  0.3054  2.3811
   61MOL   H67946399   0.274   6.388   4.041 -1.2781 -1.3841  2.1280
   61MOL   H68046400   0.089   6.372   4.028 -0.8408  0.8664 -1.3030
   61MOL   H68146401   0.114   6.232   3.847  0.8765  0.3697 -1.0471
   61MOL   H68246402   0.290   6.222   3.859  0.9183  1.1862  0.8343
   61MOL   H68346403   0.087   6.120   4.067  1.1580  0.9285  1.3770
   61MOL   H68446404   0.259   6.102   4.081 -0.9196  1.3062  1.4375
   61MOL   H68546405   0.135   5.998   3.828 -0.3721  2.1791  0.4317
   61MOL   C68646406   0.193   5.857   3.968 -0.1938  0.1937 -0.4246
   61MOL   O68746407   0.219   5.838   4.086 -0.0255 -0.0251 -0.1492
   61MOL   C68846408   0.183   5.736   3.866 -0.4551 -0.1036 -0.4861
   61MOL   C68946409   0.317   5.709   3.794  0.5070  0.0551 -0.0176
   61MOL   C69046410   0.300   5.589   3.689 -0.3153  0.6938 -0.1983
   61MOL   C69146411   0.268   5.448   3.750  0.2453  0.4646  0.2775
   61MOL   C69246412   0.273   5.335   3.649  0.6341 -0.1531  0.0569
   61MOL   O69346413   0.255   5.365   3.530  0.4130  0.2760 -0.5153
   61MOL   N69446414   0.318   5.219   3.700 -0.1129  0.7872 -0.6614
   61MOL   C69546415   0.380   5.116   3.620 -0.7239 -0.0010 -0.3282
   61MOL   C69646416   0.276   5.030   3.546 -0.0438 -0.3021  0.2601
   61MOL   C69746417   0.173   4.956   3.632  0.0424  0.5296  0.4320
   61MOL   C69846418   0.085   4.845   3.568  0.6380 -0.0151 -0.5008
   61MOL   C69946419   7.669   4.892   3.491 -0.1997  0.1051  0.0816
   61MOL   C70046420   7.591   4.772   3.433 -0.8693  0.3038 -0.5398
   61MOL   N70146421   7.470   4.826   3.368 -0.4316 -0.3224  0.3761
   61MOL   H70246422   0.139   5.654   3.923  1.9306 -1.0847  0.0113
   61MOL   H70346423   0.116   5.770   3.787 -0.0609 -2.1844 -1.7500
   61MOL   H70446424   0.329   5.801   3.737 -1.0205 -0.1670 -0.7243
   61MOL   H70546425   0.393   5.690   3.869 -1.0428 -1.2135  1.2708
   61MOL   H70646426   0.390   5.576   3.628  0.1399  2.9382 -0.0735
   61MOL   H70746427   0.222   5.611   3.615 -0.9529  1.0226  0.5703
   61MOL   H70846428   0.165   5.449   3.785 -0.1355 -2.0339 -0.6511
   61MOL   H70946429   0.327   5.426   3.839 -0.8577 -0.1127  0.8763
   61MOL   H71046430   0.349   5.222   3.796  1.1934 -1.5566 -0.9491
   61MOL   H71146431   0.447   5.159   3.545  2.7778 -1.1012  2.0742
   61MOL   H71246432   0.436   5.042   3.677 -0.0537  0.0426 -0.9133
   61MOL   H71346433   0.222   5.094   3.477  0.1431 -0.8944 -0.4450
   61MOL   H71446434   0.322   4.957   3.479  1.1264  0.1575  0.5552
   61MOL   H71546435   0.111   5.028   3.686 -0.9592  1.4250 -1.8767
   61MOL   H71646436   0.233   4.911   3.712 -0.1435  1.6847  1.2350
   61MOL   H71746437   0.150   4.787   3.503 -0.7840 -1.4087 -0.7301
   61MOL   H71846438   0.042   4.779   3.644  0.5908  0.8481  0.2286
   61MOL   H71946439   7.613   4.943   3.569  0.9837 -2.4196  2.6984
   61MOL   H72046440   7.696   4.969   3.420 -1.2182  0.8589  0.5100
   61MOL   H72146441   7.574   4.695   3.508  2.2484  0.9662  0.9198
   61MOL   H72246442   7.644   4.720   3.354 -2.7476  1.5213 -2.6644
   61MOL   H72346443   7.449   4.924   3.380  0.6959 -0.1662  1.2692
   61MOL   C72446444   7.378   4.751   3.310 -0.4563  0.2481 -0.5444
   61MOL   O72546445   7.380   4.627   3.316  0.9320 -0.1795  0.4085
   61MOL   C72646446   7.273   4.823   3.227  0.3909 -0.0597 -0.1656
   61MOL   C72746447   7.206   4.730   3.125 -0.0718 -0.0664  0.2047
   61MOL   C72846448   7.096   4.628   3.178 -0.1476  0.3675 -0.3760
   61MOL   C72946449   6.954   4.691   3.203  0.9058  0.1707  0.6603
   61MOL   C73046450   6.864   4.679   3.080  0.3982  0.2303  0.0850
   61MOL   O73146451   6.901   4.662   2.966  0.6141  0.4817  0.2389
   61MOL   N73246452   6.736   4.695   3.101 -0.0779 -0.4717  0.2292
   61MOL   C73346453   6.634   4.656   3.006 -0.1772  0.0333 -0.0675
   61MOL   C73446454   6.572   4.781   2.949 -0.4017 -0.4687  0.3382
   61MOL   C73546455   6.661   4.874   2.865  0.2412  0.6152  0.5396
   61MOL   C73646456   6.579   4.987   2.807  0.2701  0.0468 -0.3967
   61MOL   C73746457   6.456   4.963   2.711 -0.5128  0.0239  0.4514
   61MOL   C73846458   6.362   5.082   2.698 -0.8436 -0.3485  0.5968
   61MOL   N73946459   6.260   5.040   2.606 -0.7515 -1.4761  0.0429
   61MOL   H74046460   7.203   4.870   3.296 -0.0101  1.0249 -1.2984
   61MOL   H74146461   7.326   4.904   3.177 -2.0002  1.7350  0.0932
   61MOL   H74246462   7.160   4.798   3.053 -0.0394  0.6496  0.8465
   61MOL   H74346463   7.277   4.668   3.070 -0.5519 -1.7577  1.4403
   61MOL   H74446464   7.130   4.599   3.277 -1.1285  1.1529  0.1870
   61MOL   H74546465   7.094   4.538   3.115 -1.8300  0.3292 -0.2835
   61MOL   H74646466   6.943   4.796   3.231  1.1522 -0.3495  2.8486
   61MOL   H74746467   6.915   4.635   3.288 -0.1714 -2.4317 -1.4739
   61MOL   H74846468   6.708   4.747   3.183 -2.1832 -1.4768  0.1928
   61MOL   H74946469   6.678   4.605   2.920 -0.8005 -0.0812 -0.3246
   61MOL   H75046470   6.561   4.590   3.054 -0.8534  1.2289  0.5549
   61MOL   H75146471   6.480   4.748   2.900 -1.0969 -0.4082  1.5928
   61MOL   H75246472   6.535   4.842   3.032  1.6206  1.9303 -0.4616
   61MOL   H75346473   6.714   4.819   2.788  0.8918 -1.8263  2.6667
   61MOL   H75446474   6.740   4.912   2.929  1.0222 -2.1148  1.2434
   61MOL   H75546475   6.533   5.043   2.888 -1.3786 -3.0329  0.8763
   61MOL   H75646476   6.652   5.053   2.759 -2.1892  2.0538 -1.4481
   61MOL   H75746477   6.498   4.949   2.611  0.5599  2.3307  0.5340
   61MOL   H75846478   6.393   4.880   2.742  3.1458 -2.2254  2.2177
   61MOL   H75946479   6.419   5.160   2.648 -0.4781 -0.5975  0.6244
   61MOL   H76046480   6.335   5.120   2.797 -1.2264  1.6966 -0.2888
   61MOL   H76146481   6.296   5.030   2.512  2.3521  1.9336  0.7732
   61MOL   H76246482   6.205   5.124   2.603 -0.7863 -1.4329  1.4368
   62MOL     C146483   0.648   6.720   5.836  0.0648  0.2050  0.5926
   62MOL     O246484   0.567   6.771   5.918 -0.5875 -0.1593  0.1135
   62MOL     C346485   0.739   6.607   5.872 -0.1134  0.9704  0.1280
   62MOL     C446486   0.793   6.616   6.011 -0.0106  0.3057  0.1480
   62MOL     C546487   0.904   6.726   6.035  0.0172  0.0498 -0.8279
   62MOL     C646488   1.038   6.692   5.964 -0.0631  0.0001 -0.9203
   62MOL     C746489   1.134   6.811   5.962  0.0724  0.1622 -0.3499
   62MOL     O846490   1.169   6.863   6.065  0.0186 -0.0774  0.3633
   62MOL     N946491   1.179   6.842   5.839 -0.0326 -0.5507  0.4384
   62MOL    C1046492   1.291   6.936   5.814  0.4767  0.2740  0.3487
   62MOL    C1146493   1.262   7.027   5.686  0.2424 -0.7893 -0.1865
   62MOL    C1246494   1.358   7.145   5.669 -0.3243  0.4644  0.5467
   62MOL    C1346495   1.311   7.245   5.564  0.1882  0.0350  0.3397
   62MOL    C1446496   1.424   7.337   5.495 -0.1656  0.6964  0.9075
   62MOL    C1546497   1.382   7.430   5.392  0.2545 -0.2789 -0.3898
   62MOL    N1646498   1.278   7.521   5.438  0.2617  0.0358 -0.0843
   62MOL    H1746499   0.684   6.513   5.864  0.7229  0.3821  1.2281
   62MOL    H1846500   0.821   6.604   5.800  0.3355  2.6756  0.5574
   62MOL    H1946501   0.724   6.623   6.095 -0.7140 -0.6108 -0.3535
   62MOL    H2046502   0.843   6.522   6.033  1.1695  0.4859 -1.6595
   62MOL    H2146503   0.913   6.723   6.143  1.7785 -1.7135 -0.9941
   62MOL    H2246504   0.874   6.825   6.001  0.9391  0.4410 -0.5212
   62MOL    H2346505   1.018   6.650   5.866  1.3678  0.7459 -1.5526
   62MOL    H2446506   1.095   6.615   6.015 -0.9445  0.6167  1.0903
   62MOL    H2546507   1.156   6.769   5.774  2.5325 -2.0288  1.0930
   62MOL    H2646508   1.320   6.990   5.904  2.2638 -1.1547  0.6587
   62MOL    H2746509   1.370   6.867   5.783 -1.9388 -3.6068  2.4487
   62MOL    H2846510   1.272   6.970   5.594 -1.3467 -0.9295 -0.2960
   62MOL    H2946511   1.158   7.060   5.680  0.7079  0.6321 -0.5108
   62MOL    H3046512   1.458   7.111   5.643 -0.0570  0.7089  1.2405
   62MOL    H3146513   1.366   7.193   5.766  0.3530 -0.2134  0.8350
   62MOL    H3246514   1.252   7.200   5.484 -0.5577 -1.4329  1.7054
   62MOL    H3346515   1.232   7.305   5.608  0.2082 -1.5665  2.6275
   62MOL    H3446516   1.483   7.391   5.570 -0.2331  0.6333  1.0068
   62MOL    H3546517   1.493   7.272   5.441 -0.5366  2.1581 -1.3755
   62MOL    H3646518   1.352   7.369   5.307 -0.2761  0.0562 -0.4406
   62MOL    H3746519   1.471   7.488   5.369  0.1530  1.0282  2.2751
   62MOL    H3846520   1.298   7.588   5.510  0.6788  0.0216 -0.1848
   62MOL    H3946521   0.651   6.761   5.734  0.5065 -0.2722  0.4127
   62MOL    C4046522   1.165   7.540   5.374 -0.4676  0.2016  0.0981
   62MOL    O4146523   1.124   7.481   5.273  0.7722 -0.2526 -0.7897
   62MOL    C4246524   1.076   7.647   5.445  0.1560 -0.1482  0.3532
   62MOL    C4346525   0.953   7.600   5.520  0.6100 -0.0197  0.2934
   62MOL    C4446526   0.976   7.504   5.636  0.1378  0.1471 -0.0620
   62MOL    C4546527   0.855   7.478   5.731  0.1441 -0.3886 -0.0695
   62MOL    C4646528   0.828   7.592   5.825 -0.6521  0.0483 -0.2462
   62MOL    O4746529   0.776   7.697   5.785 -0.2778  0.0711 -0.7339
   62MOL    N4846530   0.875   7.578   5.951  0.1070  0.1624 -0.2534
   62MOL    C4946531   0.878   7.681   6.052  0.1877 -0.4678  0.7509
   62MOL    C5046532   0.941   7.629   6.184  0.1640  0.2231 -0.4915
   62MOL    C5146533   0.853   7.529   6.264 -0.3088  0.2273  0.1020
   62MOL    C5246534   0.917   7.497   6.400  1.4633  0.3391  0.1502
   62MOL    C5346535   0.851   7.380   6.475  0.1298 -0.7017 -1.0758
   62MOL    C5446536   0.948   7.331   6.588 -0.1890  0.4331  0.5600
   62MOL    N5546537   0.968   7.431   6.698  0.5120  0.2615  0.5028
   62MOL    H5646538   1.126   7.703   5.524  0.2831  1.2434 -0.7022
   62MOL    H5746539   1.056   0.004   5.360  0.4354 -1.4681 -0.7520
   62MOL    H5846540   0.888   7.684   5.543  1.9763  1.0949  0.1476
   62MOL    H5946541   0.885   7.557   5.446 -0.2454 -0.0400  1.0759
   62MOL    H6046542   1.067   7.536   5.687  0.3375 -2.7734  1.5477
   62MOL    H6146543   1.001   7.404   5.599 -0.0408  0.5703 -1.3536
   62MOL    H6246544   0.861   7.383   5.785  0.3156  1.2834  2.9541
   62MOL    H6346545   0.766   7.471   5.668 -0.6011 -1.1940  1.0445
   62MOL    H6446546   0.920   7.490   5.975  1.5389  0.0647 -3.0913
   62MOL    H6546547   0.926   0.062   6.011 -0.9840  0.3843  1.2063
   62MOL    H6646548   0.776   0.004   6.075  0.6756  1.9498 -0.2152
   62MOL    H6746549   1.040   7.587   6.167  0.7763  1.8849 -1.1641
   62MOL    H6846550   0.969   0.008   6.244  0.1589 -1.4971  2.0915
   62MOL    H6946551   0.851   7.444   6.195 -1.6157  1.0468 -0.9014
   62MOL    H7046552   0.750   7.561   6.278 -0.1807  0.8381 -0.3407
   62MOL    H7146553   1.022   7.470   6.390  1.5980  0.6647  0.6262
   62MOL    H7246554   0.912   7.590   6.457 -1.6002  0.1025  0.3737
   62MOL    H7346555   0.748   7.387   6.510 -0.0790 -1.4922 -1.5149
   62MOL    H7446556   0.853   7.292   6.410  1.3638 -0.6718 -1.0884
   62MOL    H7546557   1.044   7.312   6.540 -0.3818 -0.1805  0.4248
   62MOL    H7646558   0.914   7.238   6.633  0.6767 -0.2878 -0.2664
   62MOL    H7746559   0.883   7.468   6.738  1.1915  2.3155  0.0679
   62MOL    C7846560   1.076   7.452   6.775 -0.1802  0.5216  0.0992
   62MOL    O7946561   1.184   7.403   6.743 -0.2281 -0.0406 -0.6814
   62MOL    C8046562   1.052   7.527   6.911  0.3236 -0.0641 -0.0098
   62MOL    C8146563   1.114   7.460   7.036  0.5807  0.4811  1.0960
   62MOL    C8246564   1.030   7.489   7.165 -0.2494 -0.2308 -0.4468
   62MOL    C8346565   1.054   7.398   7.293 -0.2672  0.1507  0.5013
   62MOL    C8446566   0.942   7.408   7.404 -0.2248 -0.5332 -0.3965
   62MOL    O8546567   0.887   7.517   7.424 -0.6156  0.7028 -0.2168
   62MOL    N8646568   0.911   7.295   7.463 -0.0590  0.0406  0.0391
   62MOL    C8746569   0.813   7.285   7.574 -0.2841  0.6020 -0.1636
   62MOL    C8846570   0.716   7.177   7.530  0.2814  0.0645  0.2146
   62MOL    C8946571   0.766   7.032   7.514  0.0813  0.0917  0.1047
   62MOL    C9046572   0.648   6.937   7.508  0.3350 -0.1143 -0.9959
   62MOL    C9146573   0.695   6.797   7.460 -0.3631 -0.2278 -0.2519
   62MOL    C9246574   0.581   6.720   7.404 -0.4541  0.0591  0.2282
   62MOL    N9346575   0.628   6.608   7.327  0.1978 -0.5878 -0.0986
   62MOL    H9446576   1.102   7.623   6.895  1.9657 -1.2345 -2.1807
   62MOL    H9546577   0.948   7.553   6.932  1.4483  1.6236  3.9598
   62MOL    H9646578   1.117   7.351   7.034 -0.9962  0.3966  2.3161
   62MOL    H9746579   1.215   7.497   7.050  0.8739  0.3538 -0.5946
   62MOL    H9846580   0.925   7.475   7.141 -0.1468  0.4025 -1.2744
   62MOL    H9946581   1.029   7.593   7.197 -2.8407  0.2493 -1.9833
   62MOL   H10046582   1.156   7.407   7.328 -0.0641  0.0019 -0.0435
   62MOL   H10146583   1.051   7.293   7.265 -1.9140  0.1054  0.7798
   62MOL   H10246584   0.940   7.207   7.424 -1.1087 -0.7141  0.8838
   62MOL   H10346585   0.868   7.260   7.664  0.8190  1.8591 -0.4702
   62MOL   H10446586   0.761   7.379   7.594 -0.0833  1.1007 -1.8908
   62MOL   H10546587   0.636   7.174   7.605  0.1281 -1.1349  0.0208
   62MOL   H10646588   0.657   7.195   7.441  2.1560 -0.4220 -1.1602
   62MOL   H10746589   0.827   7.004   7.600 -1.7032 -1.0569  1.0399
   62MOL   H10846590   0.830   7.018   7.427 -0.6978 -0.7047 -0.3411
   62MOL   H10946591   0.592   6.942   7.601  0.5158  1.6804 -0.9689
   62MOL   H11046592   0.575   6.982   7.440  0.2101  0.4998 -0.4531
   62MOL   H11146593   0.772   6.806   7.384  0.7717  1.2355  1.0352
   62MOL   H11246594   0.740   6.739   7.541  1.1986  1.7629  0.3647
   62MOL   H11346595   0.547   6.783   7.321 -3.0554 -0.5178  0.8175
   62MOL   H11446596   0.501   6.712   7.477  0.4890 -1.7433  1.0884
   62MOL   H11546597   0.727   6.620   7.313  0.3165  1.1406  1.9467
   62MOL   C11646598   0.557   6.496   7.296  0.3783 -0.2516 -0.0121
   62MOL   O11746599   0.452   6.460   7.348  0.8204 -0.4338 -0.0771
   62MOL   C11846600   0.620   6.410   7.188 -0.2445 -0.5855 -0.0289
   62MOL   C11946601   0.643   6.474   7.052 -0.7845 -0.8685  0.3166
   62MOL   C12046602   0.514   6.485   6.973  0.1439  0.2506 -0.1208
   62MOL   C12146603   0.524   6.531   6.826 -0.0569 -0.2815 -0.3213
   62MOL   C12246604   0.576   6.670   6.802 -0.0471  0.2140  0.3204
   62MOL   O12346605   0.635   6.724   6.894 -0.7332 -0.0355 -0.3569
   62MOL   N12446606   0.564   6.722   6.680 -0.1700 -0.4947 -0.1021
   62MOL   C12546607   0.643   6.843   6.638  0.0038  0.3192  0.1462
   62MOL   C12646608   0.785   6.802   6.608  0.2096  0.7270 -0.0833
   62MOL   C12746609   0.869   6.914   6.544  0.3965  0.0077  0.2148
   62MOL   C12846610   0.840   6.939   6.393 -0.6373 -0.5217 -1.0303
   62MOL   C12946611   0.964   7.004   6.313 -0.5112  0.8158 -0.4552
   62MOL   C13046612   0.921   7.079   6.193 -0.5796 -0.1929  0.5160
   62MOL   N13146613   1.033   7.114   6.106 -0.0065 -1.3538 -0.3487
   62MOL   H13246614   0.721   6.393   7.224 -0.4174 -1.5522  0.0277
   62MOL   H13346615   0.561   6.318   7.196 -1.4717  0.4167  3.2868
   62MOL   H13446616   0.688   6.572   7.068  1.4720 -1.2573 -3.1603
   62MOL   H13546617   0.723   6.425   6.997 -0.6891 -0.9355  0.5153
   62MOL   H13646618   0.434   6.534   7.028  1.5396  0.9735  1.2901
   62MOL   H13746619   0.474   6.385   6.954  0.2231  0.5138 -1.7921
   62MOL   H13846620   0.433   6.524   6.767  0.9118 -0.3487 -1.8089
   62MOL   H13946621   0.595   6.458   6.789  0.8752  0.0981  0.6849
   62MOL   H14046622   0.515   6.669   6.608 -1.2984 -0.4568  0.6270
   62MOL   H14146623   0.596   6.882   6.548 -0.6980  0.6452  0.6457
   62MOL   H14246624   0.634   6.927   6.707 -1.5856  0.1097  0.2171
   62MOL   H14346625   0.837   6.782   6.701  1.3808 -1.2126 -1.1151
   62MOL   H14446626   0.796   6.711   6.549 -3.4124 -0.2562  0.6200
   62MOL   H14546627   0.968   6.870   6.554 -0.2301 -1.3184  0.6246
   62MOL   H14646628   0.876   7.003   6.607 -0.4152  0.5332 -0.4289
   62MOL   H14746629   0.807   6.848   6.343 -0.9145 -1.1431  0.2523
   62MOL   H14846630   0.756   7.010   6.399  0.8478  1.2420 -0.5379
   62MOL   H14946631   1.025   7.067   6.379  0.3236 -1.0556  0.6097
   62MOL   H15046632   1.026   6.921   6.279 -0.2664  0.5386  0.6527
   62MOL   H15146633   0.875   7.170   6.232  2.0824  1.3798  0.1240
   62MOL   H15246634   0.846   7.023   6.137 -1.4404  0.7259  0.7253
   62MOL   H15346635   1.111   7.054   6.087  0.2949 -0.0702 -3.4444
   62MOL   C15446636   1.035   7.235   6.035  0.3867  0.0565 -0.0092
   62MOL   O15546637   0.941   7.313   6.039  0.6071  0.1241  0.5986
   62MOL   C15646638   1.155   7.273   5.949  0.5224  0.6495 -0.0115
   62MOL   C15746639   1.191   7.420   5.972  0.5661  0.9182 -0.5174
   62MOL   C15846640   1.325   7.466   5.909  0.1293 -0.6283 -0.8326
   62MOL   C15946641   1.376   7.614   5.931 -0.1105 -0.0732  0.2152
   62MOL   C16046642   1.396   7.660   6.075 -0.2888  0.1988 -0.5218
   62MOL   O16146643   1.503   7.644   6.136  0.8585  0.1090  0.3396
   62MOL   N16246644   1.295   0.019   6.130 -0.4057 -0.1109 -0.4481
   62MOL   C16346645   1.289   0.071   6.271 -0.3905 -0.2472 -0.6973
   62MOL   C16446646   1.268   7.671   6.385  0.0717 -0.1935  0.2611
   62MOL   C16546647   1.177   0.012   6.501  0.2189  0.0276  0.4952
   62MOL   C16646648   1.227   0.139   6.569  0.3427 -0.4605  0.1505
   62MOL   C16746649   1.365   0.130   6.627  0.2376  0.2048  0.4916
   62MOL   C16846650   1.392   0.254   6.709 -0.1567  0.4427 -0.2872
   62MOL   N16946651   1.513   0.243   6.788  0.2030  0.2536 -0.3434
   62MOL   H17046652   1.238   7.207   5.973 -0.1682 -0.1101  0.3239
   62MOL   H17146653   1.120   7.254   5.848 -0.2708 -1.0280  0.5521
   62MOL   H17246654   1.115   7.471   5.913 -1.3717  1.1206  2.0782
   62MOL   H17346655   1.180   7.445   6.077 -0.3154 -1.0173 -0.1342
   62MOL   H17446656   1.333   7.433   5.806 -0.6118 -2.6071 -0.2798
   62MOL   H17546657   1.395   7.392   5.949  0.6134 -0.2044 -0.8918
   62MOL   H17646658   1.310   7.680   5.875 -0.1350 -1.8095 -1.8750
   62MOL   H17746659   1.467   7.622   5.872  0.1888 -2.1469  0.3593
   62MOL   H17846660   1.216   0.030   6.068 -0.2543  5.2645  0.0119
   62MOL   H17946661   1.378   0.131   6.284  0.1151 -0.2088 -3.9139
   62MOL   H18046662   1.200   0.134   6.272 -2.1597 -2.6110 -2.5562
   62MOL   H18146663   1.220   7.588   6.333 -0.9082 -0.3365  1.3627
   62MOL   H18246664   1.365   7.636   6.420  0.0099 -1.1682 -0.5221
   62MOL   H18346665   1.176   7.631   6.563 -0.1483 -1.7187 -1.9308
   62MOL   H18446666   1.078   0.022   6.456  0.0274 -2.2784  0.3407
   62MOL   H18546667   1.231   0.220   6.497 -1.4119  1.3353  2.0193
   62MOL   H18646668   1.152   0.176   6.638 -0.5171 -1.1279 -0.4064
   62MOL   H18746669   1.376   0.040   6.687  1.6841 -0.2717 -0.4673
   62MOL   H18846670   1.435   0.123   6.544 -0.3082 -1.4266  0.1572
   62MOL   H18946671   1.317   0.259   6.788 -0.2489  1.0577 -0.4087
   62MOL   H19046672   1.373   0.343   6.649 -3.3759 -0.0213 -0.0362
   62MOL   H19146673   1.550   0.151   6.806  2.0778  1.0892  0.1752
   62MOL   C19246674   1.576   0.348   6.844 -0.5620 -0.9665  0.0354
   62MOL   O19346675   1.534   0.470   6.850 -0.3536  0.2682  0.5219
   62MOL   C19446676   1.710   0.311   6.909 -0.0148  0.9034  0.2968
   62MOL   C19546677   1.774   0.422   6.991  0.0696 -0.1984 -0.6826
   62MOL   C19646678   1.697   0.466   7.122  0.6151  0.9134  0.2194
   62MOL   C19746679   1.781   0.541   7.229  0.3628  0.0724 -0.0923
   62MOL   C19846680   1.823   0.680   7.171  0.6881 -0.4469 -0.0918
   62MOL   O19946681   1.742   0.770   7.152  0.7580  0.2609 -0.0802
   62MOL   N20046682   1.956   0.696   7.149 -0.6369 -0.2000  0.5764
   62MOL   C20146683   2.013   0.815   7.092  0.4735 -0.6364 -0.2071
   62MOL   C20246684   2.013   0.806   6.937 -0.0183 -0.6819  0.5156
   62MOL   C20346685   2.041   0.944   6.866 -0.0983  0.2938 -0.1117
   62MOL   C20446686   1.992   0.947   6.718  0.1612  0.4808 -0.1549
   62MOL   C20546687   2.078   1.057   6.641  0.1737  0.0446  0.5120
   62MOL   C20646688   2.060   1.194   6.702 -0.1088 -0.0840  0.6712
   62MOL   N20746689   2.132   1.289   6.620  0.3222 -0.5527  0.4946
   62MOL   H20846690   1.697   0.223   6.972 -0.7763  0.1029 -0.9546
   62MOL   H20946691   1.776   0.289   6.825 -1.7841  0.0706 -0.9063
   62MOL   H21046692   1.866   0.376   7.027  1.8496 -0.1569 -4.8880
   62MOL   H21146693   1.807   0.506   6.929 -0.0918  1.6966  1.7333
   62MOL   H21246694   1.652   0.378   7.169 -0.6638  1.0738 -0.6801
   62MOL   H21346695   1.608   0.524   7.099 -1.1754 -1.9509 -0.3900
   62MOL   H21446696   1.855   0.474   7.274  1.0880  1.0763  0.2438
   62MOL   H21546697   1.721   0.565   7.317  0.9901 -0.6713  0.5552
   62MOL   H21646698   2.022   0.628   7.183 -0.2888 -0.6445 -0.9356
   62MOL   H21746699   1.958   0.907   7.111  2.7110  0.4418  1.3018
   62MOL   H21846700   2.112   0.833   7.135  1.4353 -1.2262 -2.1228
   62MOL   H21946701   2.072   0.720   6.907  0.4830 -0.1422 -0.0496
   62MOL   H22046702   1.913   0.780   6.901 -0.1299  1.2523 -0.6261
   62MOL   H22146703   2.148   0.964   6.868 -0.0732  0.1022  0.8462
   62MOL   H22246704   1.996   1.024   6.925  0.5664  0.6833 -0.1266
   62MOL   H22346705   1.998   0.856   6.657  0.4442 -1.1409  2.2548
   62MOL   H22446706   1.886   0.972   6.711 -0.0095 -0.5768 -1.7110
   62MOL   H22546707   2.183   1.027   6.640  0.7700  2.0994 -2.2347
   62MOL   H22646708   2.048   1.059   6.536 -0.0054 -0.0346  0.5601
   62MOL   H22746709   2.094   1.193   6.806 -0.4116  0.2815  0.7758
   62MOL   H22846710   1.953   1.212   6.706 -0.2955 -1.0717  0.3118
   62MOL   H22946711   2.138   1.265   6.522  0.5699  0.3843  0.2715
   62MOL   C23046712   2.200   1.389   6.668  0.2606  0.2807  0.1270
   62MOL   O23146713   2.213   1.410   6.791 -0.0295  0.3872 -0.3601
   62MOL   C23246714   2.271   1.473   6.559  0.1066 -0.4979 -0.5634
   62MOL   C23346715   2.336   1.593   6.625 -0.9150  0.9643  0.2849
   62MOL   C23446716   2.413   1.685   6.530  0.0629  0.1554  0.3451
   62MOL   C23546717   2.498   1.786   6.610 -0.0044 -0.1256  0.0148
   62MOL   C23646718   2.416   1.895   6.679 -0.1318  0.7215 -0.8273
   62MOL   O23746719   2.310   1.923   6.624  0.1967 -0.0080  0.1841
   62MOL   N23846720   2.457   1.944   6.795  0.4299  0.1526 -0.1711
   62MOL   C23946721   2.398   2.065   6.859  0.2122  0.7710 -0.5119
   62MOL   C24046722   2.502   2.180   6.839  0.1663 -0.0051 -0.6273
   62MOL   C24146723   2.603   2.181   6.955 -0.8182 -0.7504  0.3516
   62MOL   C24246724   2.687   2.304   6.930 -0.0009 -0.8282  0.7528
   62MOL   C24346725   2.816   2.313   7.017  0.5794 -0.2823  0.4998
   62MOL   C24446726   2.916   2.428   6.979 -0.1392  0.1492 -0.2857
   62MOL   N24546727   2.845   2.547   6.937 -0.5634  0.2302  0.2083
   62MOL   H24646728   2.338   1.404   6.507  1.9996  1.3031 -0.5637
   62MOL   H24746729   2.202   1.515   6.486 -1.7318  0.3587  1.6166
   62MOL   H24846730   2.262   1.660   6.670 -1.4656  0.7190 -0.2462
   62MOL   H24946731   2.405   1.553   6.699 -2.4801  0.8132  1.7012
   62MOL   H25046732   2.341   1.732   6.463 -0.8433 -2.1361 -0.3668
   62MOL   H25146733   2.479   1.624   6.469 -1.8543 -2.9973  1.2286
   62MOL   H25246734   2.557   1.844   6.539  0.8522 -0.7692  0.1848
   62MOL   H25346735   2.569   1.729   6.671 -2.2835 -0.6545  2.2387
   62MOL   H25446736   2.540   1.900   6.831 -1.3500 -0.7428  3.0282
   62MOL   H25546737   2.302   2.095   6.816 -1.0454 -0.9183  1.0379
   62MOL   H25646738   2.374   2.045   6.963 -0.1550 -0.3716 -0.8177
   62MOL   H25746739   2.562   2.168   6.749  2.1379 -1.1065  0.7737
   62MOL   H25846740   2.446   2.272   6.829 -0.4318 -0.0662  1.7732
   62MOL   H25946741   2.661   2.089   6.944 -2.2710 -1.5857 -0.5667
   62MOL   H26046742   2.560   2.193   7.054  1.2245 -1.0186  1.2975
   62MOL   H26146743   2.729   2.304   6.829 -1.9372  1.8976 -0.0994
   62MOL   H26246744   2.632   2.397   6.934  1.0297 -0.1364 -0.5918
   62MOL   H26346745   2.787   2.329   7.120 -0.3965  1.5506 -0.0428
   62MOL   H26446746   2.879   2.224   7.014  1.3362  0.2356  1.0522
   62MOL   H26546747   2.972   2.411   6.887  0.5996  0.6989  0.0525
   62MOL   H26646748   2.991   2.447   7.056  0.6079 -1.9309 -0.4577
   62MOL   H26746749   2.820   2.552   6.839  1.7036  1.4269 -0.3476
   62MOL   C26846750   2.772   2.621   7.020 -0.5539 -0.3216  0.0243
   62MOL   O26946751   2.795   2.623   7.141  0.1951 -0.2905  0.2165
   62MOL   C27046752   2.668   2.717   6.954 -0.4984 -0.4224  0.2993
   62MOL   C27146753   2.666   2.858   7.006  0.3781  0.8279 -0.5012
   62MOL   C27246754   2.798   2.938   6.996  0.3363 -0.0389 -0.3652
   62MOL   C27346755   2.846   2.980   6.862  0.2100 -0.3766 -0.0335
   62MOL   C27446756   2.952   2.888   6.804 -0.0483  0.4686 -0.6827
   62MOL   O27546757   3.055   2.864   6.862 -0.1101  0.1238 -0.2048
   62MOL   N27646758   2.922   2.821   6.691  0.2754 -0.0320  0.4539
   62MOL   C27746759   3.004   2.712   6.628 -0.3344 -0.1397  0.5978
   62MOL   C27846760   2.976   2.718   6.481  0.3802  0.3108  0.2506
   62MOL   C27946761   3.077   2.623   6.407  0.7779 -0.4466  0.0842
   62MOL   C28046762   3.042   2.617   6.254 -0.0674 -0.0089  0.8334
   62MOL   C28146763   2.907   2.553   6.222  0.3530 -0.4923 -0.4385
   62MOL   C28246764   2.897   2.474   6.090  0.0157 -0.1215  0.2094
   62MOL   N28346765   2.763   2.415   6.068  0.0963  0.4349 -0.5158
   62MOL   H28446766   2.693   2.719   6.848 -2.9760  0.0766 -0.2981
   62MOL   H28546767   2.577   2.658   6.953 -1.1039  0.5047  0.3892
   62MOL   H28646768   2.583   2.904   6.953 -0.3117 -0.1865 -0.3139
   62MOL   H28746769   2.634   2.849   7.110 -0.9483  0.7761 -0.9081
   62MOL   H28846770   2.887   2.896   7.043 -0.7536 -1.0520  0.8230
   62MOL   H28946771   2.777   3.031   7.050  1.7737 -0.8762  1.7093
   62MOL   H29046772   2.902   3.072   6.874 -0.7386  0.0857  0.9377
   62MOL   H29146773   2.771   2.996   6.786  0.6321  1.8216 -0.0129
   62MOL   H29246774   2.841   2.838   6.633  0.7987 -2.9833 -1.2502
   62MOL   H29346775   3.110   2.718   6.653  0.6717 -0.3145 -3.2954
   62MOL   H29446776   2.976   2.615   6.668  1.5715  0.0221  2.4177
   62MOL   H29546777   2.876   2.686   6.452 -0.3062  0.2992  2.5940
   62MOL   H29646778   2.983   2.819   6.442 -0.4723 -0.0326 -0.8253
   62MOL   H29746779   3.078   2.533   6.467 -0.1920 -1.7744 -1.8205
   62MOL   H29846780   3.174   2.672   6.417  0.4076  0.4613 -0.6923
   62MOL   H29946781   3.055   2.718   6.216  3.8742  0.3629  2.8696
   62MOL   H30046782   3.111   2.551   6.202  1.0757  1.6527  0.2064
   62MOL   H30146783   2.892   2.493   6.312 -2.5109  0.4999 -0.1941
   62MOL   H30246784   2.832   2.633   6.223 -1.5457 -2.2469  0.0032
   62MOL   H30346785   2.969   2.393   6.074 -1.4988 -1.1785 -1.5120
   62MOL   H30446786   2.909   2.532   5.999  1.1657  0.0531  0.4722
   62MOL   H30546787   2.713   2.428   5.982 -3.6320 -2.1592  1.1191
   62MOL   C30646788   2.701   2.331   6.152 -0.5848  0.6625 -0.7215
   62MOL   O30746789   2.753   2.292   6.255 -0.2952 -0.2823 -0.1146
   62MOL   C30846790   2.552   2.290   6.115  0.5564 -0.1244  0.0373
   62MOL   C30946791   2.525   2.166   6.030  0.2297  0.1955  0.5446
   62MOL   C31046792   2.593   2.175   5.892 -0.8820 -0.4862 -0.7118
   62MOL   C31146793   2.518   2.255   5.787 -1.0377 -0.2956  0.9844
   62MOL   C31246794   2.568   2.394   5.761  0.7895  0.5736  0.4685
   62MOL   O31346795   2.674   2.431   5.805  0.3745  0.6166 -0.0729
   62MOL   N31446796   2.484   2.476   5.697 -0.1178 -0.5792 -0.2591
   62MOL   C31546797   2.517   2.608   5.652  0.2544  0.1755  0.4239
   62MOL   C31646798   2.410   2.650   5.550  0.7934 -0.2646 -0.6364
   62MOL   C31746799   2.423   2.798   5.519 -0.0872  0.0542 -0.4516
   62MOL   C31846800   2.329   2.864   5.416 -0.6039  0.4578 -0.1289
   62MOL   C31946801   2.179   2.848   5.453 -0.4897  0.1906  0.8340
   62MOL   C32046802   2.118   2.726   5.386  0.1426  0.1580  0.5065
   62MOL   N32146803   1.970   2.729   5.385  0.5097 -0.1396  0.2292
   62MOL   H32246804   2.497   2.274   6.208  0.7086 -0.2445  0.1083
   62MOL   H32346805   2.504   2.373   6.064 -0.0535  1.0923  2.5186
   62MOL   H32446806   2.557   2.074   6.077  3.1326  1.2442  0.6856
   62MOL   H32546807   2.419   2.171   6.004  0.0877 -2.2556  0.5831
   62MOL   H32646808   2.589   2.075   5.849  0.4808 -1.3908  1.2230
   62MOL   H32746809   2.700   2.196   5.893 -0.2102 -3.6632  1.0043
   62MOL   H32846810   2.410   2.255   5.804 -1.2970  0.3069 -0.5931
   62MOL   H32946811   2.536   2.210   5.690  1.1033  2.4876  0.0068
   62MOL   H33046812   2.406   2.439   5.644  2.2620 -0.7687 -3.8569
   62MOL   H33146813   2.516   2.682   5.732 -0.0246  0.3761  0.2327
   62MOL   H33246814   2.611   2.614   5.597  1.1907  0.3783  2.0104
   62MOL   H33346815   2.422   2.580   5.466  0.4376 -1.3708  0.2225
   62MOL   H33446816   2.310   2.628   5.588  1.2206 -0.9470  0.0951
   62MOL   H33546817   2.525   2.830   5.499 -0.4875  0.4541 -1.9509
   62MOL   H33646818   2.405   2.848   5.615 -0.1908  0.1626 -0.5276
   62MOL   H33746819   2.351   2.970   5.427  0.5290  0.3965 -1.7182
   62MOL   H33846820   2.346   2.833   5.313  1.2064  0.1548  0.2490
   62MOL   H33946821   2.169   2.837   5.561 -2.0514 -0.4757  0.6540
   62MOL   H34046822   2.129   2.938   5.417  0.1902  0.3633  0.3214
   62MOL   H34146823   2.156   2.632   5.426 -0.6410  0.4880  2.0636
   62MOL   H34246824   2.135   2.732   5.278  0.9943 -2.9984  0.3942
   62MOL   H34346825   1.930   2.748   5.294  0.0092 -0.9975  0.2739
   62MOL   C34446826   1.900   2.692   5.491 -0.7872 -0.0428  0.4251
   62MOL   O34546827   1.954   2.668   5.600 -0.0751 -0.8779 -0.2556
   62MOL   C34646828   1.751   2.678   5.473  0.3244 -0.5689 -0.2219
   62MOL   C34746829   1.652   2.769   5.554 -0.5638  0.8450  0.3502
   62MOL   C34846830   1.653   2.918   5.506  0.1338  0.6684  0.0259
   62MOL   C34946831   1.554   3.008   5.576 -0.1245  0.6456  0.3968
   62MOL   C35046832   1.589   3.035   5.725 -0.3256 -0.2798 -0.2124
   62MOL   O35146833   1.545   2.955   5.809  0.0014 -0.2377  0.1390
   62MOL   N35246834   1.672   3.129   5.757  0.2810  0.0935 -0.8241
   62MOL   C35346835   1.727   3.231   5.671 -0.4916 -0.2122  0.1748
   62MOL   C35446836   1.639   3.362   5.655  0.8816  0.2984 -0.7082
   62MOL   C35546837   1.685   3.469   5.550 -0.6076 -0.2655 -0.4695
   62MOL   C35646838   1.575   3.568   5.514 -0.0589 -0.0275  0.0401
   62MOL   C35746839   1.640   3.696   5.441 -0.1874 -0.2443 -0.1904
   62MOL   C35846840   1.534   3.791   5.371  0.2512 -0.2093 -0.0782
   62MOL   N35946841   1.448   3.722   5.277 -0.0244  0.5708  0.4196
   62MOL   H36046842   1.731   2.697   5.367 -1.6353 -1.5976 -0.0784
   62MOL   H36146843   1.726   2.579   5.510 -0.9992 -1.4566 -3.2606
   62MOL   H36246844   1.553   2.729   5.535 -0.0075  0.4784 -1.9343
   62MOL   H36346845   1.681   2.762   5.659  1.5369  2.3257 -0.0856
   62MOL   H36446846   1.622   2.914   5.401 -0.9551  3.8230  0.1680
   62MOL   H36546847   1.758   2.948   5.517  0.5939 -1.2073  0.7678
   62MOL   H36646848   1.459   2.955   5.572  0.4186 -0.3018 -0.6443
   62MOL   H36746849   1.542   3.097   5.514 -1.5406 -0.4210 -0.9096
   62MOL   H36846850   1.694   3.125   5.855 -1.8425 -2.1634 -0.3845
   62MOL   H36946851   1.817   3.257   5.727  0.0890 -0.1547 -0.7840
   62MOL   H37046852   1.763   3.188   5.577  2.3454  1.1901  0.5625
   62MOL   H37146853   1.538   3.323   5.643  0.9349  0.0069 -0.2237
   62MOL   H37246854   1.643   3.406   5.755  3.0344 -0.6524 -0.3504
   62MOL   H37346855   1.690   3.409   5.459  2.1172 -0.8890  0.0430
   62MOL   H37446856   1.783   3.505   5.581 -1.0631 -1.2596  2.2673
   62MOL   H37546857   1.501   3.520   5.450 -0.7871 -0.3820  1.1356
   62MOL   H37646858   1.513   3.595   5.600 -0.5622  0.6535 -0.5325
   62MOL   H37746859   1.700   3.754   5.512  2.5878 -2.3806 -0.7052
   62MOL   H37846860   1.716   3.658   5.373  0.4749 -0.6740  0.7775
   62MOL   H37946861   1.588   3.870   5.319 -1.4753  0.1300 -1.4243
   62MOL   H38046862   1.478   3.852   5.442 -1.0404  0.4756 -1.6413
   62MOL   H38146863   1.355   3.713   5.313 -0.1973 -0.9915 -0.3945
   62MOL   C38246864   1.476   3.676   5.150  0.6343  0.1932  0.0262
   62MOL   O38346865   1.572   3.713   5.089  0.2649  0.2815  0.3956
   62MOL   C38446866   1.383   3.563   5.097 -0.3085 -0.1367  0.9326
   62MOL   C38546867   1.382   3.562   4.943  0.0099 -0.4710 -0.1319
   62MOL   C38646868   1.316   3.695   4.886  0.6133  0.4308 -0.9475
   62MOL   C38746869   1.345   3.725   4.737  0.2536 -0.4162 -0.0915
   62MOL   C38846870   1.277   3.628   4.638 -0.4092  0.9107 -0.5202
   62MOL   O38946871   1.158   3.598   4.658 -0.3308 -0.0611  0.1469
   62MOL   N39046872   1.356   3.585   4.534 -0.1151  0.1876  0.0401
   62MOL   C39146873   1.316   3.481   4.437  0.5973 -0.9588  0.3476
   62MOL   C39246874   1.192   3.520   4.365  1.4234  0.5910 -0.6328
   62MOL   C39346875   1.179   3.446   4.229  0.2796  0.1771  0.2740
   62MOL   C39446876   1.162   3.292   4.222 -0.2755  0.2739  0.2354
   62MOL   C39546877   1.132   3.252   4.082  0.3173  0.9517  0.2609
   62MOL   C39646878   1.135   3.100   4.053 -0.5998  0.9691 -0.2909
   62MOL   N39746879   1.125   3.076   3.909  0.0648  0.5664  0.3190
   62MOL   H39846880   1.421   3.463   5.119  0.4138 -0.4703 -1.7047
   62MOL   H39946881   1.284   3.570   5.143 -0.7293  0.7454 -0.0804
   62MOL   H40046882   1.484   3.544   4.910  0.1568  0.3572 -0.1609
   62MOL   H40146883   1.314   3.483   4.913 -1.6403  0.6931  0.4783
   62MOL   H40246884   1.336   3.787   4.941  0.5224  0.6710 -1.3123
   62MOL   H40346885   1.208   3.695   4.894  0.6246 -3.2266  0.1937
   62MOL   H40446886   1.452   3.724   4.714  0.5841 -0.1796  1.3659
   62MOL   H40546887   1.310   3.824   4.707 -2.3609 -1.4185 -0.3959
   62MOL   H40646888   1.441   3.638   4.531 -0.3489  0.5396 -0.3681
   62MOL   H40746889   1.400   3.464   4.370  1.5422 -1.2177  1.5944
   62MOL   H40846890   1.303   3.387   4.490 -0.6319 -0.6337  0.6414
   62MOL   H40946891   1.116   3.497   4.439  2.9295 -1.6288  0.2921
   62MOL   H41046892   1.176   3.627   4.357  0.0657  0.3819 -0.8999
   62MOL   H41146893   1.263   3.477   4.168 -1.1819  0.6684 -1.5555
   62MOL   H41246894   1.089   3.486   4.182  0.4023  1.7622  1.3618
   62MOL   H41346895   1.247   3.243   4.269 -0.4149  0.7076  0.9576
   62MOL   H41446896   1.076   3.263   4.283  0.1630  1.9806  1.6888
   62MOL   H41546897   1.030   3.282   4.060 -0.6078 -1.3688  1.1485
   62MOL   H41646898   1.192   3.302   4.006 -0.0411  2.3709  0.8971
   62MOL   H41746899   1.053   3.053   4.109 -0.5781  0.7432 -0.4465
   62MOL   H41846900   1.232   3.064   4.087 -1.0556 -1.8232 -1.7587
   62MOL   H41946901   1.194   3.126   3.854 -1.2138  1.8761 -0.1107
   62MOL   C42046902   1.024   3.017   3.840  0.2835  0.1344 -0.1020
   62MOL   O42146903   0.922   2.971   3.890  0.3996  0.2275 -0.2199
   62MOL   C42246904   1.050   3.003   3.691  0.1854  0.2215  1.0733
   62MOL   C42346905   0.921   3.045   3.610 -0.4570  0.4639 -0.0063
   62MOL   C42446906   0.847   2.912   3.558 -0.1708 -0.0321  0.0217
   62MOL   C42546907   0.754   2.938   3.437 -0.3417 -0.0301 -0.3910
   62MOL   C42646908   0.615   3.000   3.469  0.0025 -0.0717  0.2521
   62MOL   O42746909   0.577   2.987   3.583  0.1937 -0.0208  0.2148
   62MOL   N42846910   0.526   3.045   3.379 -0.8440 -0.5912 -0.1217
   62MOL   C42946911   0.385   3.052   3.407 -0.5731 -0.3515  1.1171
   62MOL   C43046912   0.340   3.165   3.496  0.2788 -0.3217 -0.5497
   62MOL   C43146913   0.320   3.296   3.424 -0.3409 -0.1595 -0.5447
   62MOL   C43246914   0.294   3.410   3.521  0.3836 -0.3432  0.2031
   62MOL   C43346915   0.185   3.384   3.629  0.5834 -1.1668 -0.3023
   62MOL   C43446916   0.147   3.493   3.732  0.6335 -0.0477 -0.5431
   62MOL   N43546917   0.244   3.511   3.837 -0.1619 -0.4707  0.4414
   62MOL   H43646918   1.136   3.063   3.664  0.9925 -1.5142 -0.2718
   62MOL   H43746919   1.071   2.896   3.680  0.2186  0.5382 -2.3511
   62MOL   H43846920   0.857   3.099   3.679 -0.0267 -0.7717  1.3934
   62MOL   H43946921   0.932   3.123   3.535 -1.0566  1.1173  0.5764
   62MOL   H44046922   0.795   2.867   3.643 -2.1982 -1.4884 -1.9378
   62MOL   H44146923   0.921   2.834   3.541 -1.4133 -1.4527  1.0274
   62MOL   H44246924   0.743   2.844   3.383  0.9213 -0.0874 -0.5733
   62MOL   H44346925   0.803   3.001   3.363  1.7904  1.2859  2.0458
   62MOL   H44446926   0.550   3.044   3.280  0.7494 -0.1507  0.2387
   62MOL   H44546927   0.339   3.055   3.308  1.7493  0.3908  0.0415
   62MOL   H44646928   0.347   2.959   3.448 -0.9971 -1.4634 -1.6770
   62MOL   H44746929   0.240   3.142   3.533 -0.0345 -0.3797 -1.4213
   62MOL   H44846930   0.395   3.188   3.587 -0.2070  1.1087 -0.6040
   62MOL   H44946931   0.238   3.274   3.355 -0.3115 -1.5665 -0.1359
   62MOL   H45046932   0.408   3.312   3.361 -0.7808 -2.4078 -1.7914
   62MOL   H45146933   0.388   3.438   3.569  0.5383  1.2249 -0.9694
   62MOL   H45246934   0.271   3.493   3.455  3.1630 -1.2596 -1.9982
   62MOL   H45346935   0.103   3.379   3.557  0.2780  0.1725 -0.0542
   62MOL   H45446936   0.203   3.287   3.676  2.6836 -0.4269  0.4858
   62MOL   H45546937   0.047   3.473   3.770  1.4534 -3.3125  0.0134
   62MOL   H45646938   0.124   3.588   3.684  1.0730  2.1920  3.4948
   62MOL   H45746939   0.268   3.426   3.886 -1.3959 -0.4821  1.0299
   62MOL   C45846940   0.310   3.618   3.873  0.6978  0.0111  0.2312
   62MOL   O45946941   0.290   3.729   3.825 -0.1557 -0.0924 -0.2971
   62MOL   C46046942   0.422   3.593   3.975  0.0356 -0.4779 -0.4714
   62MOL   C46146943   0.555   3.632   3.916  0.2082 -0.6109  0.2194
   62MOL   C46246944   0.597   3.568   3.782  0.0870 -0.1468  0.2188
   62MOL   C46346945   0.634   3.417   3.785 -0.5102 -0.1987 -0.2838
   62MOL   C46446946   0.785   3.390   3.801  0.3585  0.2677 -0.2279
   62MOL   O46546947   0.843   3.384   3.909 -0.4876  0.4482  0.0139
   62MOL   N46646948   0.856   3.381   3.685 -0.4066  0.4384  0.1288
   62MOL   C46746949   1.004   3.385   3.689 -0.5752  0.2029  0.4963
   62MOL   C46846950   1.032   3.426   3.548 -0.1349 -0.9677  0.5790
   62MOL   C46946951   1.187   3.434   3.523  0.4662  1.0053 -0.3227
   62MOL   C47046952   1.227   3.463   3.380 -0.2392  0.8234 -0.5191
   62MOL   C47146953   1.188   3.604   3.336  0.0403 -0.4520  0.1760
   62MOL   C47246954   1.263   3.648   3.206  0.0743  0.3288 -0.1012
   62MOL   N47346955   1.211   3.784   3.163  0.1992  0.1003 -0.3997
   62MOL   H47446956   0.399   3.652   4.064  0.3136  0.3233 -0.9181
   62MOL   H47546957   0.428   3.489   4.006  2.6184  0.0021  0.7513
   62MOL   H47646958   0.568   3.740   3.915  3.1288 -0.9242  0.2590
   62MOL   H47746959   0.631   3.617   3.993  0.4134  2.0893  0.6029
   62MOL   H47846960   0.686   3.625   3.754  1.1318 -1.2160  1.3344
   62MOL   H47946961   0.515   3.576   3.711 -2.2332 -2.2554  2.5565
   62MOL   H48046962   0.591   3.357   3.705  0.3742  1.5271 -2.0750
   62MOL   H48146963   0.588   3.371   3.873  0.3791  0.8068  0.7206
   62MOL   H48246964   0.810   3.386   3.595 -2.2772 -2.4526  0.8437
   62MOL   H48346965   1.048   3.460   3.756 -0.4054  0.2242  0.3592
   62MOL   H48446966   1.040   3.284   3.704  0.2547  0.2630 -1.0787
   62MOL   H48546967   0.991   3.347   3.485  1.9369 -2.6419  1.2704
   62MOL   H48646968   0.977   3.514   3.516  0.9109 -0.3693  0.4078
   62MOL   H48746969   1.229   3.335   3.542  1.6083  1.4282 -0.5908
   62MOL   H48846970   1.229   3.508   3.592  0.5087  1.6128 -0.9918
   62MOL   H48946971   1.334   3.443   3.374 -0.4005 -1.9944  3.5078
   62MOL   H49046972   1.172   3.390   3.320  1.2739  0.0789 -1.0135
   62MOL   H49146973   1.081   3.590   3.322  0.0973 -0.9927  0.2688
   62MOL   H49246974   1.208   3.676   3.415 -0.0331  1.9802 -1.9426
   62MOL   H49346975   1.239   3.587   3.119  1.3286 -0.8184  0.3448
   62MOL   H49446976   1.371   3.650   3.218  0.1288 -2.2092  0.0758
   62MOL   H49546977   1.250   3.868   3.203  0.5297 -0.8843  1.3912
   62MOL   C49646978   1.116   3.800   3.070 -0.8357 -0.0111 -0.3030
   62MOL   O49746979   1.058   3.706   3.014 -0.0488 -0.6799  0.6530
   62MOL   C49846980   1.083   3.948   3.036  0.0343 -0.1909 -0.3696
   62MOL   C49946981   1.053   3.984   2.890  0.4122  0.1477 -0.5519
   62MOL   C50046982   1.178   3.972   2.803  0.1763  0.3345 -0.2856
   62MOL   C50146983   1.152   4.044   2.672 -0.2523  0.0463  0.1106
   62MOL   C50246984   1.058   3.968   2.582  0.3694  0.2059 -1.0865
   62MOL   O50346985   0.937   3.969   2.600  0.3287 -0.0491 -0.2192
   62MOL   N50446986   1.119   3.889   2.490 -0.0633  0.0686 -0.3443
   62MOL   C50546987   1.055   3.832   2.369 -0.1135 -0.5380 -0.2437
   62MOL   C50646988   1.128   3.873   2.241 -0.6897  0.6467  0.0728
   62MOL   C50746989   1.182   4.011   2.222 -0.0534 -0.0785 -0.2241
   62MOL   C50846990   1.262   4.034   2.089 -0.0142 -0.0424  0.2659
   62MOL   C50946991   1.247   4.176   2.028 -1.4436 -0.3936  0.1607
   62MOL   C51046992   1.355   4.215   1.930 -0.2365 -0.1351  0.3129
   62MOL   N51146993   1.314   4.325   1.850 -0.4375 -0.3430 -0.2542
   62MOL   H51246994   1.012   3.986   3.110 -1.3296 -0.5184 -1.4786
   62MOL   H51346995   1.172   4.008   3.058 -0.8205  0.6034  1.0232
   62MOL   H51446996   0.976   3.912   2.862 -0.1538  0.6761 -0.3711
   62MOL   H51546997   1.010   4.084   2.885  0.2871  0.1020 -0.4226
   62MOL   H51646998   1.212   3.874   2.769  1.3317  0.8866 -0.7329
   62MOL   H51746999   1.262   4.014   2.858  1.5163  0.7443 -2.5702
   62MOL   H51847000   1.244   4.063   2.616 -1.5880 -0.8118 -2.4833
   62MOL   H51947001   1.107   4.140   2.699  1.1038  0.6035  0.4589
   62MOL   H52047002   1.220   3.892   2.492 -0.0590 -0.6680  1.0320
   62MOL   H52147003   1.062   3.724   2.384  0.2522 -0.5969 -0.8332
   62MOL   H52247004   0.951   3.863   2.352  0.4750  0.8097 -1.4991
   62MOL   H52347005   1.208   3.803   2.216 -2.6147 -0.7373 -2.4380
   62MOL   H52447006   1.049   3.852   2.169  0.1430 -2.4940 -0.0060
   62MOL   H52547007   1.252   4.039   2.301 -0.3826  2.0524 -0.6493
   62MOL   H52647008   1.103   4.085   2.230  1.6136  1.7855 -0.4568
   62MOL   H52747009   1.368   4.014   2.105 -0.1220 -2.2689 -1.5347
   62MOL   H52847010   1.233   3.953   2.021 -0.1623  0.3694 -0.1647
   62MOL   H52947011   1.147   4.177   1.984 -1.4970 -0.4482  0.2804
   62MOL   H53047012   1.243   4.228   2.124  1.4438  1.9603 -0.8978
   62MOL   H53147013   1.393   4.133   1.870 -0.3172 -0.2079  0.3607
   62MOL   H53247014   1.434   4.252   1.995 -0.1678  0.7765 -0.2753
   62MOL   H53347015   1.228   4.374   1.870  1.2113  0.8725  4.4717
   62MOL   C53447016   1.398   4.368   1.755 -0.2075  0.0895  0.3780
   62MOL   O53547017   1.506   4.315   1.735 -0.2724 -0.0755  0.1504
   62MOL   C53647018   1.352   4.483   1.674 -0.0596 -0.2991 -0.2285
   62MOL   C53747019   1.329   4.425   1.534  0.3805  0.2878 -0.3293
   62MOL   C53847020   1.214   4.323   1.527  0.4126  0.4177  0.0019
   62MOL   C53947021   1.074   4.376   1.557  0.5373  0.4660 -0.9122
   62MOL   C54047022   0.952   4.280   1.567 -0.6737  0.0339 -0.4442
   62MOL   O54147023   0.967   4.160   1.591  0.0608  0.0977  0.5303
   62MOL   N54247024   0.834   4.340   1.553 -0.1599 -0.4422  0.3381
   62MOL   C54347025   0.709   4.263   1.535  0.0735 -0.1621 -0.5192
   62MOL   C54447026   0.661   4.231   1.389 -0.3734  0.2740 -1.2243
   62MOL   C54547027   0.504   4.204   1.365  0.0680 -0.3484  0.4400
   62MOL   C54647028   0.409   4.314   1.408  1.0188  0.2083 -0.1620
   62MOL   C54747029   0.258   4.277   1.382  0.0502  0.2745 -0.0941
   62MOL   C54847030   0.155   4.361   1.459 -0.4538 -0.3503 -0.0835
   62MOL   N54947031   0.020   4.323   1.432 -0.3012  0.3052  0.1039
   62MOL   H55047032   1.261   4.519   1.721 -0.7890 -2.1859 -0.1586
   62MOL   H55147033   1.430   4.558   1.668  1.2200 -1.7087 -2.3163
   62MOL   H55247034   1.309   4.507   1.465  1.0385 -0.6418 -1.6291
   62MOL   H55347035   1.414   4.366   1.501 -0.2453 -0.4236 -0.6765
   62MOL   H55447036   1.227   4.235   1.590 -3.3655 -0.3873 -0.2077
   62MOL   H55547037   1.217   4.283   1.426  0.6810  0.1630  0.1139
   62MOL   H55647038   1.058   4.448   1.476  0.8390  0.3669 -1.0627
   62MOL   H55747039   1.072   4.439   1.646  0.0287 -1.9445  0.8058
   62MOL   H55847040   0.840   4.441   1.553 -1.3027 -0.3560 -1.5929
   62MOL   H55947041   0.718   4.168   1.586  1.2584 -0.4825 -1.3027
   62MOL   H56047042   0.628   4.317   1.584  0.1640 -0.8694  0.4297
   62MOL   H56147043   0.696   4.324   1.343 -0.5476  0.4355 -1.0372
   62MOL   H56247044   0.718   4.152   1.342 -0.4632 -0.8368  0.4861
   62MOL   H56347045   0.487   4.113   1.422 -2.0922  0.7468  1.6297
   62MOL   H56447046   0.473   4.165   1.268  2.0880 -0.0056 -0.3693
   62MOL   H56547047   0.421   4.331   1.515 -1.5431  0.9724  0.0339
   62MOL   H56647048   0.430   4.409   1.358  2.5194 -0.6540 -1.2278
   62MOL   H56747049   0.246   4.290   1.274  0.4596 -0.7459 -0.2730
   62MOL   H56847050   0.238   4.172   1.404  0.4212  0.2489  0.1252
   62MOL   H56947051   0.164   4.458   1.410  0.6739 -0.8727 -0.9407
   62MOL   H57047052   0.179   4.388   1.562  0.2126  0.9288 -0.5685
   62MOL   H57147053   7.682   4.355   1.348  1.6651  0.2387 -1.0130
   62MOL   C57247054   7.646   4.265   1.521 -0.3006  0.3328  0.7170
   62MOL   O57347055   7.697   4.213   1.622  0.2368  0.2539  0.8122
   62MOL   C57447056   7.497   4.246   1.487 -0.6710 -0.2035  0.7923
   62MOL   C57547057   7.425   4.176   1.600  0.7470  0.0272  0.1720
   62MOL   C57647058   7.422   4.016   1.588  0.0278 -0.3976 -0.4390
   62MOL   C57747059   7.342   3.951   1.470  0.6210  0.3133  0.8448
   62MOL   C57847060   7.193   3.971   1.469 -0.5099  0.2558 -0.3379
   62MOL   O57947061   7.136   3.961   1.579  0.1325 -0.2637 -0.2994
   62MOL   N58047062   7.133   4.006   1.356  0.4090  0.4824  0.1153
   62MOL   C58147063   6.988   4.017   1.344  0.4435  1.2239  0.4462
   62MOL   C58247064   6.936   3.928   1.224 -0.7193  0.2005 -0.2524
   62MOL   C58347065   6.951   3.779   1.259 -0.4502 -0.1690  0.2900
   62MOL   C58447066   6.932   3.693   1.129  0.5458  0.3682  0.7221
   62MOL   C58547067   6.909   3.547   1.174 -0.0861  0.0731 -0.0512
   62MOL   C58647068   6.858   3.451   1.063 -0.5688 -0.8008  0.1824
   62MOL   N58747069   6.878   3.305   1.093  0.0537  0.0683  0.2146
   62MOL   H58847070   7.457   4.343   1.458  0.0591 -1.0513 -3.3922
   62MOL   H58947071   7.477   4.187   1.397  0.5893  2.5242 -1.3302
   62MOL   H59047072   7.465   4.208   1.696  0.5439 -0.9632  0.5863
   62MOL   H59147073   7.324   4.215   1.606  0.9775  1.1977 -2.6200
   62MOL   H59247074   7.388   3.980   1.685  2.1201 -0.1440  0.4224
   62MOL   H59347075   7.527   3.991   1.572 -0.2038 -1.4774 -0.3125
   62MOL   H59447076   7.357   3.843   1.469  0.3731  0.2953 -0.9095
   62MOL   H59547077   7.392   3.991   1.383 -1.5762  0.3276 -0.4511
   62MOL   H59647078   7.181   4.011   1.267  2.2575 -1.2825  0.9611
   62MOL   H59747079   6.939   4.008   1.440  0.0198  1.1010  0.2186
   62MOL   H59847080   6.961   4.116   1.309 -1.7885  0.6709  0.5766
   62MOL   H59947081   6.834   3.958   1.199 -0.6570  0.5626 -0.0815
   62MOL   H60047082   6.998   3.961   1.140  0.9650 -2.2582 -0.0286
   62MOL   H60147083   6.879   3.747   1.335 -0.6293 -0.6997 -0.1047
   62MOL   H60247084   7.044   3.763   1.314  0.3285 -1.1940 -1.2843
   62MOL   H60347085   6.849   3.726   1.067  2.3382 -0.8094 -2.4178
   62MOL   H60447086   7.018   3.694   1.062  0.0669  1.0061  0.1106
   62MOL   H60547087   7.009   3.506   1.193  0.6655  1.4234 -0.9553
   62MOL   H60647088   6.862   3.539   1.272  1.6496 -0.4157  0.7640
   62MOL   H60747089   6.907   3.485   0.972  1.4504  1.1403  1.9141
   62MOL   H60847090   6.755   3.475   1.037 -0.7347 -2.5945 -0.9337
   62MOL   H60947091   6.884   3.285   1.192  0.4854 -0.2302  0.1278
   62MOL   C61047092   6.889   3.215   0.993 -0.0023 -0.3007  0.2619
   62MOL   O61147093   6.871   3.247   0.877 -0.6830  0.1566  0.0705
   62MOL   C61247094   6.939   3.078   1.043 -0.2595  0.7007  0.1020
   62MOL   C61347095   6.894   2.966   0.952  0.1558  0.5043 -0.2045
   62MOL   C61447096   6.953   2.827   0.989  0.3819 -0.3036  0.1093
   62MOL   C61547097   6.905   2.719   0.885  0.4351  0.0467  0.1828
   62MOL   C61647098   6.987   2.587   0.900  0.2030 -0.2072 -0.0256
   62MOL   O61747099   7.018   2.540   1.006  0.1567 -0.6203  0.2520
   62MOL   N61847100   7.021   2.524   0.783 -0.3754 -0.2191  0.2731
   62MOL   C61947101   7.121   2.423   0.769 -0.0819 -0.1789  0.0077
   62MOL   C62047102   7.199   2.429   0.632  0.3517  0.6121  0.6088
   62MOL   C62147103   7.121   2.371   0.514 -0.2441 -0.0482 -0.2454
   62MOL   C62247104   7.211   2.343   0.395  0.0473  0.0397  0.6523
   62MOL   C62347105   7.139   2.306   0.259 -0.1022  0.7284 -0.2501
   62MOL   C62447106   7.220   2.250   0.146 -0.0953 -0.4754  0.2208
   62MOL   N62547107   7.132   2.218   0.027  0.1741 -0.0727 -0.2288
   62MOL   H62647108   7.048   3.090   1.045 -0.1385 -0.3940  0.7989
   62MOL   H62747109   6.901   3.070   1.145  0.2304 -0.5250  0.2064
   62MOL   H62847110   6.785   2.964   0.950  0.0869  2.9180 -0.3793
   62MOL   H62947111   6.930   2.977   0.850  2.1894  0.9089  0.5419
   62MOL   H63047112   6.928   2.811   1.094 -2.1167  0.4870 -0.3273
   62MOL   H63147113   7.059   2.846   0.973  0.6066 -1.1824  0.5296
   62MOL   H63247114   6.898   2.762   0.785 -4.0204 -1.8029 -0.4320
   62MOL   H63347115   6.800   2.696   0.899  0.7426 -0.9458  0.9648
   62MOL   H63447116   6.989   2.560   0.694 -0.4029 -0.0405  0.3560
   62MOL   H63547117   7.187   2.435   0.854  2.2547 -0.5718 -1.6982
   62MOL   H63647118   7.077   2.324   0.780  0.4195 -0.1165  2.8729
   62MOL   H63747119   7.235   2.530   0.612 -1.1778  0.9146 -0.6721
   62MOL   H63847120   7.292   2.375   0.648  1.7776  2.4976 -1.0570
   62MOL   H63947121   7.046   2.446   0.488  0.3173  0.3616 -0.7000
   62MOL   H64047122   7.072   2.277   0.537 -1.8814  1.2356  1.6936
   62MOL   H64147123   7.283   2.423   0.380 -1.3530  1.5852  2.0726
   62MOL   H64247124   7.267   2.249   0.404  0.8907  0.2748 -1.6966
   62MOL   H64347125   7.054   2.241   0.276  0.1511  1.0272  2.3676
   62MOL   H64447126   7.098   2.396   0.215  0.9639  1.3158 -0.0553
   62MOL   H64547127   7.274   2.159   0.171 -0.7881 -0.3817  2.2092
   62MOL   H64647128   7.296   2.323   0.117 -0.9025 -0.7053 -2.6418
   62MOL   H64747129   7.033   2.240   0.030  0.2545  0.2054  1.0270
   62MOL   C64847130   7.176   2.170   7.616  0.4600 -0.3399 -0.2636
   62MOL   O64947131   7.279   2.114   7.599 -0.1533  0.2939  0.2081
   62MOL   C65047132   7.078   2.191   7.503 -0.8130  0.2164  0.9322
   62MOL   C65147133   7.061   2.062   7.419  0.0339 -0.3926  0.2436
   62MOL   C65247134   6.972   2.073   7.302  0.0769 -0.2409  0.9733
   62MOL   C65347135   6.968   1.946   7.217  0.0900 -0.5137 -1.8494
   62MOL   C65447136   7.090   1.893   7.165  0.8379 -0.5798 -0.3856
   62MOL   O65547137   7.163   1.814   7.229 -0.2248  0.6096  0.1576
   62MOL   N65647138   7.115   1.923   7.040  0.4002  0.0477 -0.0209
   62MOL   C65747139   7.236   1.879   6.964 -0.2397 -0.8484 -0.0904
   62MOL   C65847140   7.214   1.910   6.818  0.5229 -0.9697  0.1958
   62MOL   C65947141   7.328   1.852   6.726  0.0868  0.2264 -1.4075
   62MOL   C66047142   7.320   1.870   6.573  0.2906 -0.2831 -0.1189
   62MOL   C66147143   7.259   2.013   6.538 -0.1748  0.1574 -0.1864
   62MOL   C66247144   7.342   2.125   6.603 -0.2854 -0.8339 -0.3855
   62MOL   N66347145   7.266   2.241   6.574  0.4884  0.0073 -0.1736
   62MOL   H66447146   6.985   2.236   7.536 -0.3631  2.5109 -0.7924
   62MOL   H66547147   7.127   2.267   7.442 -0.1107  0.8638  2.2676
   62MOL   H66647148   7.158   2.031   7.379  0.1114  1.5984 -1.1879
   62MOL   H66747149   7.026   1.980   7.481 -2.5003  0.0187 -0.6022
   62MOL   H66847150   7.017   2.142   7.230 -1.9961  2.6461  2.3800
   62MOL   H66947151   6.877   2.117   7.332 -0.2893 -1.2300  1.2664
   62MOL   H67047152   6.902   1.974   7.135 -2.3018  0.4231  0.3270
   62MOL   H67147153   6.927   1.861   7.272 -0.8284  0.6338 -0.7377
   62MOL   H67247154   7.062   2.004   7.011 -0.8525 -0.2901  1.2632
   62MOL   H67347155   7.330   1.928   6.992 -0.3212 -1.1759  0.7756
   62MOL   H67447156   7.252   1.772   6.971  0.4139 -0.6299  2.1854
   62MOL   H67547157   7.121   1.873   6.776  0.5911 -0.1372 -0.7124
   62MOL   H67647158   7.215   2.019   6.814  1.8459 -0.9801 -0.0063
   62MOL   H67747159   7.340   1.745   6.744 -0.4461  0.4255  0.1651
   62MOL   H67847160   7.416   1.900   6.770 -0.2248  0.2825 -0.8391
   62MOL   H67947161   7.418   1.836   6.540  0.7171 -0.8360  1.6545
   62MOL   H68047162   7.257   1.790   6.534  1.5154 -1.9173  1.2129
   62MOL   H68147163   7.253   2.020   6.430  3.1164 -1.4194 -0.5424
   62MOL   H68247164   7.157   2.020   6.577 -0.0992 -0.5118  0.1471
   62MOL   H68347165   7.433   2.131   6.544  0.7714 -1.3504  1.1597
   62MOL   H68447166   7.380   2.116   6.705  4.0408  0.9340 -1.7460
   62MOL   H68547167   7.223   2.247   6.482 -0.4435 -1.9837  0.0998
   62MOL   C68647168   7.262   2.356   6.647  0.0025  0.1713  0.3214
   62MOL   O68747169   7.340   2.374   6.739  0.1298 -0.2343 -0.2740
   62MOL   C68847170   7.163   2.462   6.605  1.1908 -0.1862  0.3627
   62MOL   C68947171   7.137   2.570   6.718 -1.2195  0.2318  0.2467
   62MOL   C69047172   7.051   2.514   6.833  0.8282 -0.5207 -0.6771
   62MOL   C69147173   7.038   2.616   6.952 -0.0944 -0.3992  0.3718
   62MOL   C69247174   6.989   2.547   7.078  0.0905 -0.6625 -0.1540
   62MOL   O69347175   6.944   2.433   7.077  0.3214 -0.5830 -0.2411
   62MOL   N69447176   6.978   2.626   7.187  0.5698  0.0991 -0.3561
   62MOL   C69547177   6.906   2.586   7.304  0.2188 -0.1944  0.0809
   62MOL   C69647178   7.001   2.546   7.411  0.4159 -0.0829 -0.4607
   62MOL   C69747179   7.114   2.649   7.440 -0.4585  0.1070 -0.4687
   62MOL   C69847180   7.226   2.597   7.533  0.4070  0.2403 -0.1722
   62MOL   C69947181   7.366   2.666   7.518 -0.2623  0.5327 -0.0695
   62MOL   C70047182   7.371   2.819   7.561  0.8147  0.0537  0.4676
   62MOL   N70147183   7.503   2.862   7.585  0.1954 -0.1309  0.0291
   62MOL   H70247184   7.195   2.498   6.507 -1.6696  0.2878 -0.4405
   62MOL   H70347185   7.068   2.412   6.588 -0.1768  1.9454  1.4574
   62MOL   H70447186   7.234   2.599   6.758 -0.9622  0.6827 -0.6860
   62MOL   H70547187   7.092   2.656   6.668  0.0996 -0.5202 -2.2785
   62MOL   H70647188   7.080   2.413   6.862  0.3665 -0.2564  0.7173
   62MOL   H70747189   6.950   2.501   6.794  0.2047 -0.0280  0.7363
   62MOL   H70847190   6.974   2.698   6.922  1.8628  0.8735 -0.3926
   62MOL   H70947191   7.133   2.666   6.973 -1.1991  1.5500  0.8393
   62MOL   H71047192   7.039   2.707   7.191 -1.3708  1.5813 -0.4038
   62MOL   H71147193   6.842   2.667   7.339 -2.3593 -1.4385 -1.5815
   62MOL   H71247194   6.834   2.508   7.278  0.1299  0.3016 -1.2127
   62MOL   H71347195   6.952   2.526   7.506 -0.2852 -1.9152 -1.1989
   62MOL   H71447196   7.040   2.449   7.381  2.3914 -0.7310  3.9416
   62MOL   H71547197   7.078   2.747   7.472 -0.0925  0.0837  0.0254
   62MOL   H71647198   7.165   2.669   7.346 -0.0527 -1.8169 -0.6734
   62MOL   H71747199   7.181   2.585   7.632 -0.7781 -0.6707 -0.8161
   62MOL   H71847200   7.235   2.497   7.491  0.7479  0.8905 -1.6619
   62MOL   H71947201   7.444   2.623   7.581 -1.5263 -2.6066 -0.5689
   62MOL   H72047202   7.395   2.664   7.412 -0.1065 -0.5402 -0.0152
   62MOL   H72147203   7.301   2.826   7.645 -0.3981  1.6794 -0.6432
   62MOL   H72247204   7.325   2.887   7.489  1.3765 -0.0868 -0.0273
   62MOL   H72347205   7.574   2.793   7.603 -1.3229 -2.2390 -1.9157
   62MOL   C72447206   7.535   2.992   7.608  0.1767 -0.3563  0.4903
   62MOL   O72547207   7.452   3.088   7.606 -0.1254 -0.1606 -0.1814
   62MOL   C72647208   7.682   3.014   7.625  0.7344  0.3685 -0.2380
   62MOL   C72747209   0.049   3.146   7.573  0.0764  0.4375 -0.4715
   62MOL   C72847210   0.013   3.255   7.669  0.0139  1.2826 -0.4749
   62MOL   C72947211   0.095   3.386   7.651 -0.4958  0.8844 -0.0538
   62MOL   C73047212   0.039   3.506   0.019 -0.5138 -0.5428  0.1196
   62MOL   O73147213   0.009   3.493   0.134  0.7055  0.2871 -0.2893
   62MOL   N73247214   0.028   3.618   7.656 -0.0970 -0.4677  0.0141
   62MOL   C73347215   7.678   3.741   7.705 -0.1341  0.0222  0.2694
   62MOL   C73447216   0.072   3.821   0.083  0.1888 -0.3347 -0.3178
   62MOL   C73547217   0.024   3.968   0.118 -0.1579  0.1158  0.7665
   62MOL   C73647218   0.130   4.038   0.203 -0.1398  0.8424  0.2720
   62MOL   C73747219   0.071   4.164   0.269 -0.2365 -0.2171 -0.2717
   62MOL   C73847220   0.181   4.260   0.309  0.4985 -0.3615 -0.1260
   62MOL   N73947221   0.134   4.383   0.369  0.8792  0.2040  0.1546
   62MOL   H74047222   7.702   3.003   0.024  0.5342  0.7427 -0.1618
   62MOL   H74147223   0.022   2.925   7.583  0.5397 -0.3746  1.0692
   62MOL   H74247224   0.154   3.127   7.552 -0.4606 -2.0670 -1.0715
   62MOL   H74347225   0.001   3.163   7.476  2.0525 -0.5017 -1.6433
   62MOL   H74447226   0.036   3.219   0.061 -0.0001  0.9963 -0.5733
   62MOL   H74547227   7.615   3.276   7.681  0.0403  1.4731 -0.5705
   62MOL   H74647228   0.112   3.415   7.548 -0.2984  1.3558  0.1084
   62MOL   H74747229   0.195   3.371   7.692 -0.9128  0.1149  0.7208
   62MOL   H74847230   0.077   3.625   7.569  1.2398 -0.6833  0.7392
   62MOL   H74947231   7.656   3.795   7.613  0.8601  0.5428  0.3241
   62MOL   H75047232   7.592   3.726   0.062  0.4928  3.9755  2.1813
   62MOL   H75147233   0.103   3.758   0.166 -2.5903 -0.3460  0.7495
   62MOL   H75247234   0.161   3.842   0.023 -0.0114 -1.5079 -1.0366
   62MOL   H75347235   7.636   3.962   0.169 -0.8044  3.2797  0.0472
   62MOL   H75447236   0.005   4.016   0.022 -1.4553 -1.3226  0.2768
   62MOL   H75547237   0.167   3.975   0.283  1.2545  0.8853 -0.3349
   62MOL   H75647238   0.221   4.050   0.145 -0.3703  1.7751  0.0807
   62MOL   H75747239   7.708   4.212   0.203  0.7049  0.8039 -0.5660
   62MOL   H75847240   0.009   4.140   0.355  1.3762  0.7785  1.2186
   62MOL   H75947241   0.236   4.283   0.218 -2.6729 -1.4031 -2.4015
   62MOL   H76047242   0.249   4.205   0.374  0.3936 -1.8746 -1.2517
   62MOL   H76147243   0.070   4.438   0.315  3.2140  3.2134  0.2867
   62MOL   H76247244   0.213   4.445   0.385 -1.1483  2.7779  0.5999
   63MOL     C147245   5.252   5.003   0.345 -0.3305  0.3579 -0.1984
   63MOL     O247246   5.164   4.956   0.274  0.0574 -0.5837 -0.1768
   63MOL     C347247   5.214   5.037   0.487 -0.0043  0.5438 -0.2442
   63MOL     C447248   5.060   5.024   0.524 -0.4629 -0.1050  0.0809
   63MOL     C547249   5.030   5.107   0.649 -0.0804  0.0436 -0.1563
   63MOL     C647250   4.878   5.134   0.663  0.7406 -0.4705 -0.6192
   63MOL     C747251   4.823   5.234   0.564  0.9436 -0.1697  0.4122
   63MOL     O847252   4.872   5.347   0.552 -0.0982  0.2694  0.1644
   63MOL     N947253   4.716   5.203   0.496  0.7287  0.3704 -0.2775
   63MOL    C1047254   4.637   5.295   0.424  0.1992 -0.8374  0.2067
   63MOL    C1147255   4.500   5.246   0.401  0.1139 -0.0137  0.2397
   63MOL    C1247256   4.413   5.355   0.340  0.1642  0.1628  0.1332
   63MOL    C1347257   4.276   5.294   0.310  0.6042  0.1524 -0.2114
   63MOL    C1447258   4.173   5.390   0.245 -0.3102  0.4686  0.4674
   63MOL    C1547259   4.032   5.333   0.231 -0.5332  0.1225 -0.5221
   63MOL    N1647260   4.039   5.201   0.159  0.5014 -0.2800 -0.3965
   63MOL    H1747261   5.253   4.949   0.537 -1.4304 -0.7813 -1.3701
   63MOL    H1847262   5.267   5.126   0.521  1.7601 -1.1450  1.5066
   63MOL    H1947263   5.009   5.069   0.439  1.0995  3.1554  0.8318
   63MOL    H2047264   5.017   4.924   0.514  1.3940 -1.0465  1.1743
   63MOL    H2147265   5.093   5.195   0.662 -0.4991  0.7854 -2.8025
   63MOL    H2247266   5.052   5.053   0.740  1.2264 -0.1473 -0.5782
   63MOL    H2347267   4.861   5.171   0.764  0.9718  0.3542 -0.8806
   63MOL    H2447268   4.830   5.037   0.649  0.6908 -0.7864  1.5549
   63MOL    H2547269   4.678   5.110   0.507 -0.8511  1.3276  2.7188
   63MOL    H2647270   4.631   5.388   0.480  0.0213 -0.9616  0.3939
   63MOL    H2747271   4.688   5.320   0.331 -1.4921 -1.0053 -0.7919
   63MOL    H2847272   4.512   5.153   0.345 -1.2449 -0.0604  0.0074
   63MOL    H2947273   4.455   5.217   0.496  0.7516 -0.9556  0.2723
   63MOL    H3047274   4.458   5.401   0.252  1.0303 -0.3506  0.2979
   63MOL    H3147275   4.410   5.437   0.411 -1.0200 -0.5235  0.9037
   63MOL    H3247276   4.283   5.204   0.248  1.4690  0.1629 -0.1268
   63MOL    H3347277   4.222   5.260   0.399  1.3380 -1.0907 -0.2164
   63MOL    H3447278   4.171   5.484   0.301  0.6150  1.2807 -0.8180
   63MOL    H3547279   4.206   5.423   0.146 -0.3982  2.0010  0.9364
   63MOL    H3647280   3.965   5.402   0.180 -0.0647  0.0027 -1.2964
   63MOL    H3747281   3.990   5.320   0.331  1.0142  0.9633  0.2542
   63MOL    H3847282   4.081   5.121   0.203 -0.9912 -0.3564  0.9599
   63MOL    H3947283   5.345   5.049   0.311 -0.3627  0.5519 -0.0233
   63MOL    C4047284   4.008   5.188   0.027 -0.1227 -0.0686 -0.9392
   63MOL    O4147285   3.956   5.273   7.667  0.1603  0.2578  0.2946
   63MOL    C4247286   4.051   5.060   7.675  0.2841  0.0155  0.6626
   63MOL    C4347287   4.201   5.061   7.640 -0.1933  0.0368 -0.1138
   63MOL    C4447288   4.234   4.931   7.574  0.2184 -0.4678 -0.1901
   63MOL    C4547289   4.380   4.901   7.540 -0.3684 -0.4946 -0.5861
   63MOL    C4647290   4.435   4.995   7.435 -0.0738  0.3331  0.1569
   63MOL    O4747291   4.363   5.043   7.344  0.4386 -0.1309 -0.8331
   63MOL    N4847292   4.561   5.023   7.450 -1.0136 -0.1687  0.1454
   63MOL    C4947293   4.630   5.145   7.397 -0.2934  0.3509 -0.1439
   63MOL    C5047294   4.698   5.120   7.258  1.0728 -0.5189  0.3816
   63MOL    C5147295   4.756   5.249   7.205  0.2764 -0.1546 -0.0766
   63MOL    C5247296   4.881   5.298   7.287 -0.4645  0.3695  0.1437
   63MOL    C5347297   4.913   5.438   7.240  0.3581  0.0105  0.2014
   63MOL    C5447298   5.044   5.491   7.305 -0.4708  0.2942  0.0529
   63MOL    N5547299   5.158   5.440   7.239 -0.5879  0.2400 -0.9933
   63MOL    H5647300   4.028   4.968   0.020 -0.1538 -0.5533 -0.4834
   63MOL    H5747301   3.996   5.036   7.583  1.0202  0.9922 -0.0443
   63MOL    H5847302   4.227   5.148   7.581  0.2799 -2.5791 -3.9060
   63MOL    H5947303   4.257   5.073   0.025  0.8375  0.2774 -0.7557
   63MOL    H6047304   4.176   4.903   7.486  1.6413  0.1760 -1.3757
   63MOL    H6147305   4.181   4.861   7.637 -1.5576  0.8432 -0.2008
   63MOL    H6247306   4.387   4.802   7.497 -1.6752 -1.0491  0.4209
   63MOL    H6347307   4.437   4.907   7.633 -2.9828 -1.0818  1.1268
   63MOL    H6447308   4.600   4.993   7.538 -2.3310 -0.1769  0.7326
   63MOL    H6547309   4.553   5.216   7.368  1.8961  3.9065  2.2544
   63MOL    H6647310   4.694   5.192   7.472  1.9879  0.2820 -1.9920
   63MOL    H6747311   4.762   5.032   7.255  0.0221 -1.2780 -0.0087
   63MOL    H6847312   4.616   5.097   7.191  2.5809 -1.1211 -1.2925
   63MOL    H6947313   4.685   5.328   7.181  0.9647  0.8234  0.9823
   63MOL    H7047314   4.798   5.222   7.109  2.3517 -3.7209  1.7065
   63MOL    H7147315   4.858   5.296   7.394 -2.3117 -1.3747 -0.2730
   63MOL    H7247316   4.968   5.235   7.272 -0.1857 -0.0334  3.0404
   63MOL    H7347317   4.924   5.440   7.131 -0.4509  0.6390  0.1311
   63MOL    H7447318   4.843   5.521   7.247 -1.4297 -1.5079  0.7238
   63MOL    H7547319   5.047   5.467   7.411  1.6823  3.4071  0.7634
   63MOL    H7647320   5.047   5.600   7.304  1.7064  0.2529 -0.5847
   63MOL    H7747321   5.139   5.403   7.148  0.7234  1.1926 -1.6723
   63MOL    C7847322   5.287   5.450   7.289 -0.3575 -0.3306 -0.0059
   63MOL    O7947323   5.315   5.529   7.385  0.0185  0.5490  0.4946
   63MOL    C8047324   5.393   5.382   7.201  0.6177 -0.0622 -0.4763
   63MOL    C8147325   5.374   5.235   7.182 -0.0564 -0.5362 -0.6257
   63MOL    C8247326   5.480   5.164   7.094 -0.0122  0.3323 -0.4890
   63MOL    C8347327   5.435   5.150   6.946 -0.2646  0.6235 -0.4750
   63MOL    C8447328   5.496   5.036   6.870  0.2063 -0.3715 -0.1953
   63MOL    O8547329   5.493   4.916   6.903  0.1486  0.2560  0.6384
   63MOL    N8647330   5.571   5.070   6.762 -0.5889 -0.3701  0.3306
   63MOL    C8747331   5.616   4.985   6.654 -0.0077  0.2336 -0.4265
   63MOL    C8847332   5.512   4.986   6.540  0.3672  0.2901  0.1109
   63MOL    C8947333   5.553   4.898   6.417  0.4762 -0.3293 -0.5488
   63MOL    C9047334   5.464   4.931   6.303 -0.3954 -0.3173  0.5519
   63MOL    C9147335   5.522   4.880   6.176 -0.3249 -0.1424 -0.1674
   63MOL    C9247336   5.450   4.927   6.052 -0.0000  0.1012  0.2485
   63MOL    N9347337   5.448   5.072   6.030 -0.1383 -0.2541  0.1735
   63MOL    H9447338   5.392   5.416   7.097  2.6893  1.7701  0.0971
   63MOL    H9547339   5.496   5.400   7.230  0.3225  0.6715  0.1350
   63MOL    H9647340   5.373   5.177   7.275  0.0050 -1.1655 -1.0129
   63MOL    H9747341   5.273   5.221   7.145 -0.3408  2.1780 -0.9689
   63MOL    H9847342   5.501   5.070   7.145 -3.1768  0.6392  1.4903
   63MOL    H9947343   5.577   5.212   7.105 -0.0117  0.0250  0.9998
   63MOL   H10047344   5.467   5.239   6.891  1.4276 -0.1559 -0.7813
   63MOL   H10147345   5.326   5.149   6.943 -0.3208 -1.3142  1.3814
   63MOL   H10247346   5.545   5.165   6.740 -0.7286 -0.7787 -1.3235
   63MOL   H10347347   5.715   5.022   6.625 -0.0173 -0.1868 -1.0028
   63MOL   H10447348   5.639   4.886   6.692 -1.0492 -0.2701 -1.1099
   63MOL   H10547349   5.417   4.950   6.578  0.6391 -1.2693 -0.6218
   63MOL   H10647350   5.506   5.089   6.507  0.2619 -0.1834 -1.4047
   63MOL   H10747351   5.547   4.793   6.443 -0.4004 -0.1513 -0.0050
   63MOL   H10847352   5.658   4.925   6.404  0.0782  0.3914 -2.5847
   63MOL   H10947353   5.358   4.904   6.306 -1.1516  2.3411 -1.0141
   63MOL   H11047354   5.464   5.038   6.282  0.1588 -0.3226  0.5162
   63MOL   H11147355   5.625   4.910   6.156 -0.4066 -0.3615 -0.9662
   63MOL   H11247356   5.514   4.771   6.185  0.7319 -0.2423 -0.4034
   63MOL   H11347357   5.349   4.893   6.075 -0.1108 -1.2595 -2.1473
   63MOL   H11447358   5.488   4.874   5.965 -1.4039 -1.7533  0.7407
   63MOL   H11547359   5.405   5.128   6.103  0.2814  1.2986 -0.7454
   63MOL   C11647360   5.430   5.132   5.914 -0.1590 -0.6875 -0.1071
   63MOL   O11747361   5.440   5.063   5.812  0.2206  0.5679  0.0259
   63MOL   C11847362   5.401   5.284   5.910 -0.1509  0.4972 -1.0323
   63MOL   C11947363   5.345   5.344   5.781  0.4704 -0.0824  0.3879
   63MOL   C12047364   5.440   5.373   5.669  0.0268  0.2931 -0.1259
   63MOL   C12147365   5.461   5.251   5.571 -0.4174  0.0659  0.0831
   63MOL   C12247366   5.328   5.194   5.519  0.0540 -0.0254  0.0387
   63MOL   O12347367   5.271   5.255   5.431 -0.0957  0.2816  0.1144
   63MOL   N12447368   5.285   5.083   5.577  0.5499 -0.5869  0.1361
   63MOL   C12547369   5.160   5.011   5.551  0.0989  0.8417 -0.1583
   63MOL   C12647370   5.045   5.038   5.642 -0.4418  0.7002  0.1848
   63MOL   C12747371   5.078   5.012   5.793  0.0719 -0.0633 -1.1519
   63MOL   C12847372   4.954   5.036   5.880 -0.0948 -0.2593  0.3688
   63MOL   C12947373   4.983   5.049   6.029 -0.0753 -0.3042  0.1110
   63MOL   C13047374   5.042   5.185   6.056  0.0431  0.0445 -0.4181
   63MOL   N13147375   5.050   5.204   6.199 -0.4055  0.3927  0.1343
   63MOL   H13247376   5.325   5.310   5.984  1.1902  1.3609  0.0534
   63MOL   H13347377   5.489   5.341   5.941  0.4700 -0.4694 -1.0151
   63MOL   H13447378   5.262   5.279   5.753 -0.2320  0.0274  2.1537
   63MOL   H13547379   5.296   5.435   5.814  1.6883  0.3888  0.9045
   63MOL   H13647380   5.534   5.415   5.707  0.5676 -1.3597  0.4355
   63MOL   H13747381   5.395   5.459   5.620  0.3491  1.0543  0.8967
   63MOL   H13847382   5.525   5.166   5.594 -0.8573  0.1302  1.6087
   63MOL   H13947383   5.508   5.289   5.480 -0.0525  0.3867  0.4055
   63MOL   H14047384   5.333   5.048   5.659 -0.0524 -0.5549  0.5094
   63MOL   H14147385   5.136   5.020   5.445  2.3080  0.6579 -0.7118
   63MOL   H14247386   5.188   4.906   5.568  2.1505  1.3173 -0.3958
   63MOL   H14347387   5.003   5.138   5.630  0.2640  1.0181  0.3333
   63MOL   H14447388   4.965   4.971   5.612 -2.0043  2.0832  1.1921
   63MOL   H14547389   5.161   5.078   5.819 -0.7224 -0.8524  3.7232
   63MOL   H14647390   5.124   4.914   5.804  0.6766  0.2508 -0.8255
   63MOL   H14747391   4.907   5.129   5.850 -0.1912  0.4801  2.7298
   63MOL   H14847392   4.889   4.949   5.866  0.6251 -0.6574 -0.5426
   63MOL   H14947393   4.891   5.037   6.085  0.0964  1.9261  0.9408
   63MOL   H15047394   5.046   4.961   6.042  1.1245  0.2799 -1.5253
   63MOL   H15147395   4.974   5.259   6.014  1.2108  0.1338 -2.2162
   63MOL   H15247396   5.135   5.197   6.001 -0.3507  2.6276 -0.5687
   63MOL   H15347397   4.959   5.225   6.239 -0.6341  1.0886 -0.7304
   63MOL   C15447398   5.153   5.218   6.287  0.9477  0.3465 -0.1583
   63MOL   O15547399   5.273   5.227   6.249 -0.6319  0.0838  0.4909
   63MOL   C15647400   5.112   5.261   6.430  0.4402 -0.2204 -0.5709
   63MOL   C15747401   5.189   5.188   6.545  0.0439 -0.5190 -0.6047
   63MOL   C15847402   5.198   5.289   6.673 -0.2051  0.2621 -0.6595
   63MOL   C15947403   5.058   5.319   6.739 -0.3767  0.1579  0.0910
   63MOL   C16047404   5.071   5.417   6.856  0.0147  0.6480 -0.1167
   63MOL   O16147405   5.136   5.369   6.955  0.2004 -0.5224 -0.1948
   63MOL   N16247406   5.019   5.541   6.844 -0.6852  0.1743  0.2572
   63MOL   C16347407   5.043   5.649   6.936  0.5232  0.2687 -0.5641
   63MOL   C16447408   5.182   5.704   6.923  0.4408  0.4185 -1.0920
   63MOL   C16547409   5.195   5.841   6.982 -0.2123 -0.2207  0.3097
   63MOL   C16647410   5.322   5.881   7.062 -0.2458 -0.2952  0.3267
   63MOL   C16747411   5.305   5.814   7.195 -0.2759 -0.2315  0.1776
   63MOL   C16847412   5.415   5.861   7.289 -0.4719 -0.4554  0.2447
   63MOL   N16947413   5.412   5.797   7.421  0.0843 -0.0080  0.0051
   63MOL   H17047414   5.139   5.366   6.434  0.0251 -0.1859  1.5686
   63MOL   H17147415   5.004   5.258   6.443  0.5129  1.2007  0.4426
   63MOL   H17247416   5.146   5.091   6.571  0.8608 -0.4625  0.9792
   63MOL   H17347417   5.292   5.166   6.520  0.3710  0.2625  0.0624
   63MOL   H17447418   5.250   5.377   6.637  2.1568 -1.0490 -0.5521
   63MOL   H17547419   5.270   5.249   6.744 -0.0423  1.3932 -0.1874
   63MOL   H17647420   5.016   5.234   6.792  0.9573  0.4024  1.5813
   63MOL   H17747421   4.979   5.348   6.669  0.0778  0.9523 -0.1026
   63MOL   H17847422   4.970   5.557   6.758  0.4420 -0.9896 -0.6255
   63MOL   H17947423   4.976   5.733   6.917  1.0417  0.9779  0.6849
   63MOL   H18047424   5.030   5.633   7.043  1.8122 -0.1360 -0.4616
   63MOL   H18147425   5.256   5.641   6.970  0.0601 -1.3621 -2.7866
   63MOL   H18247426   5.212   5.713   6.818 -2.5724  1.5090 -1.9127
   63MOL   H18347427   5.104   5.878   7.030  0.2679  0.1436  0.9349
   63MOL   H18447428   5.192   5.906   6.895  1.8770 -0.9111 -0.3021
   63MOL   H18547429   5.407   5.836   7.010  2.0514 -1.0622  4.5060
   63MOL   H18647430   5.324   5.990   7.060  0.0945 -0.3153 -0.9950
   63MOL   H18747431   5.212   5.840   7.245  0.8168  0.0705  2.1284
   63MOL   H18847432   5.305   5.705   7.189 -2.6609 -0.2956  0.8354
   63MOL   H18947433   5.410   5.969   7.295 -0.8687 -0.4510 -0.1370
   63MOL   H19047434   5.513   5.851   7.242  0.3945  3.6784  1.0584
   63MOL   H19147435   5.344   5.724   7.433  0.1771 -0.1915 -0.5468
   63MOL   C19247436   5.505   5.809   7.508  0.2314  1.1242 -0.0327
   63MOL   O19347437   5.592   5.896   7.510  0.4607  0.4165 -0.1560
   63MOL   C19447438   5.495   5.708   7.623 -0.1582  0.6521  0.3304
   63MOL   C19547439   5.537   5.749   0.058  0.2898 -0.1575  0.1344
   63MOL   C19647440   5.417   5.822   0.135  0.0410 -0.0706 -0.5718
   63MOL   C19747441   5.418   5.810   0.286  0.4246  0.1004 -0.0336
   63MOL   C19847442   5.366   5.673   0.340 -0.0466 -0.7634 -0.3449
   63MOL   O19947443   5.416   5.569   0.295 -0.2162 -0.1031  0.0295
   63MOL   N20047444   5.275   5.668   0.440 -0.3378  0.3405  0.1398
   63MOL   C20147445   5.198   5.546   0.464  0.0805 -0.3155  0.2533
   63MOL   C20247446   5.274   5.428   0.531 -0.2076 -0.5305 -0.2957
   63MOL   C20347447   5.337   5.467   0.669 -0.4007  0.3125  0.0582
   63MOL   C20447448   5.342   5.355   0.769 -0.8105 -0.7218  0.2874
   63MOL   C20547449   5.395   5.400   0.907  0.2871  0.0416 -0.3777
   63MOL   C20647450   5.386   5.288   1.010  0.1794  0.0185 -0.1470
   63MOL   N20747451   5.431   5.327   1.141  0.2818 -0.2582 -0.6822
   63MOL   H20847452   5.401   5.654   7.631  0.5416 -0.6146  0.1674
   63MOL   H20947453   5.569   5.634   7.592  0.4325  1.7086 -0.8315
   63MOL   H21047454   5.576   5.666   0.117  1.1719  0.8485  0.9813
   63MOL   H21147455   5.617   5.822   0.048 -0.7517  1.1581  1.2109
   63MOL   H21247456   5.318   5.787   0.106 -0.4219  0.7076  0.0621
   63MOL   H21347457   5.407   5.923   0.095  1.7754  1.2253  2.1420
   63MOL   H21447458   5.375   5.892   0.344 -0.4557  0.0087 -0.5484
   63MOL   H21547459   5.523   5.817   0.313  0.9398  2.4734 -2.5103
   63MOL   H21647460   5.247   5.740   0.507 -0.6553  0.8008 -0.4837
   63MOL   H21747461   5.127   5.582   0.539  1.4356 -0.9872  1.9069
   63MOL   H21847462   5.146   5.514   0.375  1.1571  1.3482 -1.0102
   63MOL   H21947463   5.206   5.345   0.545  1.9220 -2.1916  0.4446
   63MOL   H22047464   5.350   5.394   0.461  0.5026 -0.1556  0.2819
   63MOL   H22147465   5.273   5.539   0.720 -1.2690  2.1159 -3.4414
   63MOL   H22247466   5.431   5.516   0.642  0.9183 -1.3432  1.5096
   63MOL   H22347467   5.237   5.330   0.779 -0.8361 -0.0676  1.7444
   63MOL   H22447468   5.387   5.261   0.738 -1.3578 -1.0515  0.4949
   63MOL   H22547469   5.499   5.433   0.906  0.7619 -1.4295 -0.4762
   63MOL   H22647470   5.331   5.480   0.944 -0.4500 -0.7474  0.0628
   63MOL   H22747471   5.447   5.202   0.980 -0.6674 -0.5338 -0.3252
   63MOL   H22847472   5.282   5.255   1.015  1.1268 -3.1403 -0.3175
   63MOL   H22947473   5.517   5.278   1.162  0.7903  1.0437  0.2920
   63MOL   C23047474   5.375   5.422   1.223 -0.7178  0.3402  0.1967
   63MOL   O23147475   5.273   5.480   1.205 -0.4724 -0.4201 -0.1461
   63MOL   C23247476   5.441   5.441   1.356 -0.5813 -0.3445 -0.6877
   63MOL   C23347477   5.347   5.418   1.480 -0.0048  0.5470 -0.3831
   63MOL   C23447478   5.273   5.286   1.481  0.6376 -0.7106 -0.4815
   63MOL   C23547479   5.189   5.262   1.609 -0.5366  0.9904  0.1734
   63MOL   C23647480   5.107   5.133   1.604  0.2653  0.3789  0.5747
   63MOL   O23747481   5.109   5.069   1.496 -0.1364 -0.4899 -0.7239
   63MOL   N23847482   5.021   5.113   1.701  0.4742  0.4401  0.2729
   63MOL   C23947483   4.941   4.992   1.716  0.3933  0.7661 -0.6224
   63MOL   C24047484   4.800   5.022   1.657  0.1325  0.5860 -0.0614
   63MOL   C24147485   4.700   4.919   1.690  0.0276 -0.1341  0.1077
   63MOL   C24247486   4.562   4.955   1.621  0.3705 -0.4502 -0.4290
   63MOL   C24347487   4.453   4.842   1.642 -0.5540  0.0143  0.3551
   63MOL   C24447488   4.307   4.874   1.602  0.0332 -0.1536 -0.7843
   63MOL   N24547489   4.210   4.789   1.654 -0.3062 -0.1665  0.1927
   63MOL   H24647490   5.536   5.390   1.373 -0.7544 -0.3155  0.3997
   63MOL   H24747491   5.476   5.544   1.354  0.4676 -0.7013 -2.3144
   63MOL   H24847492   5.414   5.423   1.567 -1.6483  0.0855  0.9316
   63MOL   H24947493   5.277   5.501   1.490 -0.6500 -0.1038  0.5809
   63MOL   H25047494   5.340   5.202   1.462  2.6499  0.0595  2.8284
   63MOL   H25147495   5.211   5.285   1.391  1.2750 -2.5709 -0.9070
   63MOL   H25247496   5.127   5.345   1.643  0.8403  2.0684  0.0485
   63MOL   H25347497   5.239   5.257   1.705  1.6029  1.2528 -0.9088
   63MOL   H25447498   5.013   5.184   1.772 -1.2011 -0.4843  1.0436
   63MOL   H25547499   4.980   4.912   1.653  1.4202  0.7214  0.0584
   63MOL   H25647500   4.932   4.967   1.822  1.0699 -1.6837 -1.1245
   63MOL   H25747501   4.769   5.117   1.702 -1.9501 -0.2041  0.2355
   63MOL   H25847502   4.806   5.022   1.548  0.1189 -0.3967 -0.0647
   63MOL   H25947503   4.690   4.908   1.798  0.6689  0.9701  0.2865
   63MOL   H26047504   4.740   4.825   1.653  1.8177  0.9801 -0.8473
   63MOL   H26147505   4.528   5.049   1.665 -0.2535 -1.5202  1.4412
   63MOL   H26247506   4.581   4.970   1.515  2.5203  1.4894  0.1846
   63MOL   H26347507   4.484   4.744   1.606 -0.3965  0.1159  0.2087
   63MOL   H26447508   4.459   4.819   1.748  2.4249  1.6224  0.5959
   63MOL   H26547509   4.289   4.865   1.495  0.5059 -1.2902 -0.7810
   63MOL   H26647510   4.299   4.978   1.634 -1.5122 -0.1372 -1.1685
   63MOL   H26747511   4.213   4.691   1.629 -2.6165 -0.1557 -0.2677
   63MOL   C26847512   4.110   4.828   1.734 -0.0477  0.2377  0.6810
   63MOL   O26947513   4.098   4.941   1.770 -0.2361 -0.5557  0.2574
   63MOL   C27047514   4.010   4.717   1.794  0.1395 -0.2811 -0.2483
   63MOL   C27147515   4.018   4.712   1.947  0.2809 -0.1739 -0.3966
   63MOL   C27247516   3.953   4.593   2.008 -0.1207  0.4828  0.5106
   63MOL   C27347517   3.966   4.579   2.165  0.3997  0.4369  0.7272
   63MOL   C27447518   3.843   4.519   2.234 -0.9283  0.2393  0.3117
   63MOL   O27547519   3.742   4.493   2.173  0.1447  0.2746  0.1565
   63MOL   N27647520   3.853   4.494   2.368  0.0012  0.0731 -0.4248
   63MOL   C27747521   3.744   4.456   2.462 -0.1687 -0.1257  0.0507
   63MOL   C27847522   3.807   4.431   2.602  0.0594  0.2499 -0.3578
   63MOL   C27947523   3.698   4.407   2.708  0.9649 -0.3716  0.8810
   63MOL   C28047524   3.778   4.383   2.845 -0.2518  1.2739  0.2713
   63MOL   C28147525   3.697   4.352   2.973  0.2332  0.5737 -0.2818
   63MOL   C28247526   3.785   4.317   3.090  0.0312  0.4181 -0.0989
   63MOL   N28347527   3.699   4.277   3.196 -0.1439  0.4975 -0.5388
   63MOL   H28447528   3.911   4.743   1.757  0.0947 -1.9943 -1.3486
   63MOL   H28547529   4.028   4.618   1.752 -0.6158  0.2298 -1.7998
   63MOL   H28647530   4.119   4.716   1.988  0.6861  1.1728 -1.5036
   63MOL   H28747531   3.968   4.799   1.988 -0.2378 -1.4575  1.7628
   63MOL   H28847532   4.019   4.517   1.967  2.9680  2.6473  1.2726
   63MOL   H28947533   3.852   4.579   1.970  0.2930  0.3192 -0.5348
   63MOL   H29047534   3.986   4.669   2.222 -2.1833  1.5825 -0.0978
   63MOL   H29147535   4.051   4.517   2.191  1.5095  2.9268  3.2305
   63MOL   H29247536   3.947   4.494   2.404 -0.1444 -0.9082 -0.0275
   63MOL   H29347537   3.665   4.531   2.461  0.4870  0.5649 -1.2678
   63MOL   H29447538   3.701   4.362   2.426  0.5380 -0.1331 -0.7796
   63MOL   H29547539   3.870   4.343   2.596 -0.5962 -0.1605 -1.3855
   63MOL   H29647540   3.866   4.515   2.638  1.6265 -1.1914  0.5110
   63MOL   H29747541   3.639   4.318   2.684  2.8235 -1.0812 -1.2642
   63MOL   H29847542   3.620   4.483   2.713 -0.3065 -1.4214 -1.9276
   63MOL   H29947543   3.853   4.305   2.839 -1.5736 -0.3082  3.1791
   63MOL   H30047544   3.839   4.471   2.866  1.7312  0.1757 -0.8524
   63MOL   H30147545   3.641   4.440   3.007 -2.6711 -1.1209 -0.4707
   63MOL   H30247546   3.624   4.275   2.945 -1.0447  1.2038  1.2024
   63MOL   H30347547   3.840   4.406   3.121  1.0548 -0.9748  2.2857
   63MOL   H30447548   3.848   4.229   3.072  0.1694 -0.0856  2.5534
   63MOL   H30547549   3.691   4.178   3.213  0.6722  0.5743  0.3144
   63MOL   C30647550   3.636   4.356   3.281  0.2804 -0.2977  0.1424
   63MOL   O30747551   3.641   4.480   3.276  0.2711  0.2182  0.3443
   63MOL   C30847552   3.539   4.286   3.374 -0.0569  0.0294 -1.0008
   63MOL   C30947553   3.573   4.310   3.523  0.4075 -0.9946 -0.1389
   63MOL   C31047554   3.709   4.256   3.559  0.2617  0.8895 -0.3445
   63MOL   C31147555   3.796   4.366   3.621 -0.3804 -0.3759  0.0923
   63MOL   C31247556   3.875   4.436   3.516  0.5104  0.5076  0.6323
   63MOL   O31347557   3.848   4.558   3.483  0.1335 -0.5661  0.2752
   63MOL   N31447558   3.979   4.370   3.460  0.3312  0.2940  1.1778
   63MOL   C31547559   4.096   4.443   3.417  0.5588  0.7257  0.1436
   63MOL   C31647560   4.220   4.367   3.474  0.2965 -0.3327  0.5216
   63MOL   C31747561   4.341   4.413   3.398  0.0055 -0.0997 -0.3676
   63MOL   C31847562   4.374   4.560   3.433 -0.0592  0.5045  0.5982
   63MOL   C31947563   4.492   4.608   3.345 -0.0195 -0.5917 -0.1069
   63MOL   C32047564   4.453   4.635   3.202  0.4625  0.1289 -0.0108
   63MOL   N32147565   4.562   4.707   3.144 -0.3671  0.3922 -0.2827
   63MOL   H32247566   3.440   4.327   3.357 -0.2409 -0.0226 -0.0743
   63MOL   H32347567   3.523   4.179   3.359 -0.4220 -0.0484 -0.0758
   63MOL   H32447568   3.576   4.418   3.530  0.9984 -0.9302 -1.3072
   63MOL   H32547569   3.493   4.267   3.584  0.0221  0.0189  0.0713
   63MOL   H32647570   3.751   4.200   3.476  0.9872 -0.5204  0.9540
   63MOL   H32747571   3.673   4.186   3.635 -2.1187  1.1760 -1.1669
   63MOL   H32847572   3.865   4.319   3.691  0.2113  0.1063 -0.1608
   63MOL   H32947573   3.749   4.440   3.686  1.0348  2.4163 -1.9420
   63MOL   H33047574   4.000   4.274   3.483  0.6451 -0.3318 -1.5680
   63MOL   H33147575   4.096   4.435   3.308  2.1569  1.3039  0.0960
   63MOL   H33247576   4.080   4.548   3.440 -1.1294 -0.0054  2.4844
   63MOL   H33347577   4.245   4.373   3.580 -1.9524 -2.0144  1.1851
   63MOL   H33447578   4.202   4.265   3.440  1.5863 -0.2587 -0.4017
   63MOL   H33547579   4.324   4.408   3.290  0.0071 -0.5584 -0.3488
   63MOL   H33647580   4.424   4.346   3.416 -0.8509 -1.5131 -1.5632
   63MOL   H33747581   4.292   4.632   3.431  0.0478  0.6071 -0.7745
   63MOL   H33847582   4.401   4.567   3.538  2.6598 -2.7044  0.2056
   63MOL   H33947583   4.514   4.704   3.392 -1.1929  0.3445 -1.4297
   63MOL   H34047584   4.583   4.549   3.351 -1.0618 -2.1018  0.9662
   63MOL   H34147585   4.364   4.697   3.200  0.1318 -0.2964  1.5271
   63MOL   H34247586   4.445   4.543   3.144 -1.8328 -1.0040  2.0383
   63MOL   H34347587   4.640   4.645   3.125  0.0817  0.9664 -0.3263
   63MOL   C34447588   4.569   4.837   3.115 -0.0257  0.3073 -0.7109
   63MOL   O34547589   4.472   4.911   3.127 -0.4027  0.0370  0.2135
   63MOL   C34647590   4.703   4.890   3.065  0.2654 -0.1201  0.5366
   63MOL   C34747591   4.732   5.036   3.106 -0.3882  0.5573 -0.2706
   63MOL   C34847592   4.649   5.136   3.018 -0.0623  0.5805  0.5596
   63MOL   C34947593   4.678   5.286   3.024  0.3075  0.1198 -0.0772
   63MOL   C35047594   4.814   5.317   2.973  0.2647 -0.3261  0.3060
   63MOL   O35147595   4.868   5.235   2.899  0.2495  0.1586 -0.0756
   63MOL   N35247596   4.864   5.436   3.007 -0.7759 -0.1158 -1.0701
   63MOL   C35347597   5.001   5.480   2.968 -0.1390  0.8639 -0.3759
   63MOL   C35447598   5.019   5.628   3.003  0.0135  0.7475  0.4973
   63MOL   C35547599   4.939   5.730   2.929  0.3744 -0.0337 -0.0527
   63MOL   C35647600   4.944   5.864   2.998  0.2392  0.3158  0.2039
   63MOL   C35747601   4.846   5.870   3.119  0.4743  0.4852  0.4011
   63MOL   C35847602   4.853   6.002   3.190  0.6882 -0.1663 -0.0400
   63MOL   N35947603   4.758   6.004   3.295  0.0784  0.2002 -0.4303
   63MOL   H36047604   4.778   4.833   3.121  1.5770 -0.4170 -1.4784
   63MOL   H36147605   4.729   4.873   2.961  0.9440  0.4061  0.6172
   63MOL   H36247606   4.721   5.049   3.213 -1.6807 -1.3416 -0.1477
   63MOL   H36347607   4.840   5.048   3.096 -0.1587 -0.6121  0.7354
   63MOL   H36447608   4.545   5.121   3.047 -0.2245  0.4596 -0.0795
   63MOL   H36547609   4.652   5.101   2.915  3.7843 -1.2758  1.2300
   63MOL   H36647610   4.660   5.316   3.128 -1.0239 -0.9603  0.0166
   63MOL   H36747611   4.600   5.327   2.960  0.0090  0.2182  0.3422
   63MOL   H36847612   4.819   5.488   3.080 -0.1718 -1.8306  0.5392
   63MOL   H36947613   5.081   5.429   3.021  0.0660 -0.6324 -2.0672
   63MOL   H37047614   5.013   5.467   2.860 -1.0918 -0.8390 -0.2947
   63MOL   H37147615   5.008   5.636   3.112  1.0851 -1.5651  0.7971
   63MOL   H37247616   5.123   5.655   2.986 -0.2034  0.7452 -0.8819
   63MOL   H37347617   4.834   5.700   2.924 -0.1739  1.7986 -0.2330
   63MOL   H37447618   4.969   5.730   2.825  0.4776 -1.3805 -0.0218
   63MOL   H37547619   5.048   5.890   3.016  0.2069  0.0167  0.8300
   63MOL   H37647620   4.909   5.943   2.932  0.1808  0.4797  0.4335
   63MOL   H37747621   4.744   5.859   3.080  0.9793 -0.8653 -0.5863
   63MOL   H37847622   4.880   5.798   3.193  2.3741  1.2507  0.2997
   63MOL   H37947623   4.831   6.086   3.124  1.2845 -1.7052 -2.2676
   63MOL   H38047624   4.947   6.019   3.243 -0.7982  0.3789  2.5094
   63MOL   H38147625   4.767   5.938   3.371  0.9182 -0.1940 -0.8718
   63MOL   C38247626   4.655   6.089   3.298  0.3775 -0.0163 -0.5826
   63MOL   O38347627   4.615   6.156   3.202  0.6597  0.0357 -0.4081
   63MOL   C38447628   4.586   6.115   3.434 -0.6675  0.0159 -0.6142
   63MOL   C38547629   4.431   6.096   3.433 -0.4056 -0.0873  0.6054
   63MOL   C38647630   4.399   5.951   3.420  0.3384  0.4310 -0.6131
   63MOL   C38747631   4.420   5.873   3.557  0.0766 -0.2686  1.2232
   63MOL   C38847632   4.340   5.745   3.546 -0.6440  0.0291  0.4340
   63MOL   O38947633   4.365   5.670   3.449 -0.8116 -0.0462  0.2305
   63MOL   N39047634   4.243   5.723   3.634  0.0433 -0.4992  0.0222
   63MOL   C39147635   4.132   5.634   3.611 -0.3834 -0.4000 -0.2246
   63MOL   C39247636   4.007   5.706   3.551 -0.2309 -0.1576  0.6820
   63MOL   C39347637   3.884   5.610   3.532 -0.5437 -0.0071  0.4226
   63MOL   C39447638   3.759   5.698   3.498  0.0676 -0.3336 -0.4125
   63MOL   C39547639   3.636   5.621   3.466 -0.3187  0.3351 -0.4398
   63MOL   C39647640   3.620   5.571   3.323 -0.4819  0.2649 -0.3147
   63MOL   N39747641   3.495   5.492   3.322  0.4732 -0.1301 -0.1029
   63MOL   H39847642   4.623   6.054   3.516 -0.8268 -0.7710 -1.1162
   63MOL   H39947643   4.599   6.219   3.464 -0.2356 -0.1658 -0.1723
   63MOL   H40047644   4.397   6.138   3.528 -0.2660 -0.2989  0.7488
   63MOL   H40147645   4.388   6.149   3.348 -0.4238 -2.2099 -0.7571
   63MOL   H40247646   4.447   5.895   3.340 -1.4618 -0.2709 -1.2137
   63MOL   H40347647   4.294   5.944   3.393 -0.0267 -0.6923  0.9890
   63MOL   H40447648   4.385   5.940   3.635 -0.6839 -1.5257  1.9759
   63MOL   H40547649   4.527   5.851   3.561 -0.3462 -2.6932  0.2443
   63MOL   H40647650   4.225   5.786   3.711  0.8559  1.4344 -1.3421
   63MOL   H40747651   4.163   5.547   3.554  1.8703  0.6498 -0.7020
   63MOL   H40847652   4.111   5.596   3.711 -0.3830  0.9376  0.3012
   63MOL   H40947653   3.971   5.777   3.625 -1.9334 -0.9160  0.5954
   63MOL   H41047654   4.030   5.758   3.458 -1.2298  2.9124  2.1242
   63MOL   H41147655   3.883   5.553   3.625  2.3074 -1.0438 -0.1571
   63MOL   H41247656   3.888   5.536   3.452  0.0357  1.4650 -0.9356
   63MOL   H41347657   3.725   5.771   3.572 -0.2684 -0.9400  0.0392
   63MOL   H41447658   3.782   5.763   3.414  2.3724 -1.5147 -0.7370
   63MOL   H41547659   3.601   5.552   3.543  2.0694 -1.1363 -0.6201
   63MOL   H41647660   3.554   5.692   3.474 -0.9300 -0.1797 -1.9417
   63MOL   H41747661   3.699   5.500   3.299  2.1304  3.2480 -0.6941
   63MOL   H41847662   3.617   5.657   3.257 -0.3088 -0.1579 -0.8745
   63MOL   H41947663   3.508   5.397   3.289 -0.7849 -0.6622  0.8866
   63MOL   C42047664   3.370   5.547   3.319 -0.0698 -1.0357  0.5548
   63MOL   O42147665   3.351   5.668   3.312  0.7993 -0.2712 -0.4185
   63MOL   C42247666   3.252   5.449   3.302 -0.5976  0.0673 -0.0760
   63MOL   C42347667   3.158   5.491   3.195  0.0997  0.3281 -0.3984
   63MOL   C42447668   3.042   5.386   3.182 -0.6121  0.8433  0.0508
   63MOL   C42547669   2.937   5.411   3.067 -0.4626  0.0830  0.1723
   63MOL   C42647670   2.830   5.514   3.092  0.2345 -1.2540 -0.4049
   63MOL   O42747671   2.791   5.539   3.210  0.3752 -0.8248 -0.1189
   63MOL   N42847672   2.766   5.573   2.984 -0.1378 -0.0327  0.3215
   63MOL   C42947673   2.637   5.646   2.994 -0.3369  0.1600  0.2530
   63MOL   C43047674   2.520   5.544   2.974  0.0158 -0.3418  0.2351
   63MOL   C43147675   2.543   5.442   2.865  0.3367  0.5425  0.5792
   63MOL   C43247676   2.412   5.378   2.828 -0.4466  0.0329  0.2085
   63MOL   C43347677   2.446   5.271   2.721  0.1687 -0.5697  0.4712
   63MOL   C43447678   2.460   5.323   2.581  0.1486 -0.1329  0.9385
   63MOL   N43547679   2.328   5.339   2.518  0.3496 -0.5988  0.5225
   63MOL   H43647680   3.291   5.349   3.285  0.1146  0.4531 -0.7714
   63MOL   H43747681   3.199   5.442   3.396 -0.9645 -0.1877 -0.3019
   63MOL   H43847682   3.132   5.596   3.209 -0.1724  0.1300  0.6422
   63MOL   H43947683   3.216   5.498   3.102  1.6073  0.5310  0.5392
   63MOL   H44047684   2.997   5.371   3.280  2.3189  2.0359  1.6384
   63MOL   H44147685   3.092   5.290   3.169 -0.0671  0.8042  2.2758
   63MOL   H44247686   2.876   5.321   3.054 -0.1530  0.1135 -1.5891
   63MOL   H44347687   2.997   5.431   2.978 -1.2551 -0.4963 -0.5035
   63MOL   H44447688   2.807   5.560   2.893  2.2288  1.1408  1.1699
   63MOL   H44547689   2.618   5.692   3.091  0.6443  0.2235  0.4195
   63MOL   H44647690   2.646   5.720   2.916  0.1128 -0.5660 -0.3890
   63MOL   H44747691   2.512   5.495   3.071  0.3478 -2.4750 -0.7761
   63MOL   H44847692   2.428   5.595   2.947 -1.2341 -2.3690  0.5142
   63MOL   H44947693   2.615   5.364   2.891 -0.5987 -0.5202  0.0267
   63MOL   H45047694   2.591   5.486   2.778 -0.5318 -1.3507 -0.9043
   63MOL   H45147695   2.366   5.327   2.912 -1.0095 -0.8945 -0.6429
   63MOL   H45247696   2.333   5.447   2.799 -0.7300 -1.0819 -1.7946
   63MOL   H45347697   2.536   5.215   2.746  0.3216  0.1713  1.6287
   63MOL   H45447698   2.373   5.190   2.721 -1.3422  0.7316 -2.9732
   63MOL   H45547699   2.530   5.259   2.527  0.4236  1.3362 -0.5025
   63MOL   H45647700   2.512   5.417   2.563 -0.2608  0.0430  0.6584
   63MOL   H45747701   2.251   5.290   2.561 -0.5798 -0.7557 -1.2743
   63MOL   C45847702   2.296   5.387   2.402 -0.3262 -0.1649  0.3627
   63MOL   O45947703   2.365   5.468   2.343 -0.0970 -0.1888  0.5586
   63MOL   C46047704   2.164   5.340   2.339  0.0692 -0.4319 -0.1942
   63MOL   C46147705   2.092   5.456   2.251  0.4162 -0.1395 -0.4137
   63MOL   C46247706   1.972   5.520   2.319 -0.1586  0.1918  0.9561
   63MOL   C46347707   1.906   5.629   2.244 -0.0898 -0.4243  0.6888
   63MOL   C46447708   1.983   5.774   2.235  0.4800  0.0282 -0.5486
   63MOL   O46547709   2.084   5.795   2.307 -0.1577  0.3631  0.3417
   63MOL   N46647710   1.939   5.858   2.141  0.0752  0.0568  0.4766
   63MOL   C46747711   2.009   5.982   2.093 -0.9858 -0.5446  0.6345
   63MOL   C46847712   2.055   5.949   1.954  0.2638  0.4882 -0.5686
   63MOL   C46947713   2.123   6.076   1.889  0.1416  0.4599 -0.5607
   63MOL   C47047714   2.128   6.076   1.733  0.2661  0.5046  0.2292
   63MOL   C47147715   1.993   6.087   1.655  0.0374 -0.2488  0.7002
   63MOL   C47247716   1.917   6.220   1.649  0.3240  0.5591 -0.1578
   63MOL   N47347717   2.002   6.340   1.633 -0.0369 -0.2216 -1.2450
   63MOL   H47447718   2.202   5.261   2.276  1.6466  0.0059  0.1942
   63MOL   H47547719   2.110   5.290   2.420  0.9913 -0.6880  0.2593
   63MOL   H47647720   2.155   5.541   2.224  0.6548 -0.6135 -1.3632
   63MOL   H47747721   2.052   5.414   2.159  0.1981 -3.3476  1.0754
   63MOL   H47847722   1.998   5.562   2.417 -1.0081 -1.5692  1.9640
   63MOL   H47947723   1.893   5.454   2.357 -0.0255 -0.7859 -0.4570
   63MOL   H48047724   1.819   5.650   2.306  0.0133  0.7910  0.4352
   63MOL   H48147725   1.881   5.591   2.145 -0.1703  0.6606  0.2902
   63MOL   H48247726   1.852   5.837   2.096  0.3470 -1.7034  0.7068
   63MOL   H48347727   1.941   6.067   2.090  1.4465  1.4180 -0.8246
   63MOL   H48447728   2.098   5.996   2.155  0.8943 -2.0325 -1.6509
   63MOL   H48547729   2.125   5.866   1.952 -0.8496 -0.4889  0.3348
   63MOL   H48647730   1.970   5.916   1.895  0.4353  2.1184 -1.7578
   63MOL   H48747731   2.225   6.080   1.928 -0.0582 -0.4227  0.0587
   63MOL   H48847732   2.070   6.167   1.915 -1.2818 -0.2900 -0.8324
   63MOL   H48947733   2.192   6.160   1.707 -0.0703  0.9990  0.9892
   63MOL   H49047734   2.186   5.986   1.715  0.9540  0.6218  1.8093
   63MOL   H49147735   2.022   6.047   1.558 -0.0661 -3.4179  1.9195
   63MOL   H49247736   1.926   6.010   1.695 -2.8608  1.3051 -0.9854
   63MOL   H49347737   1.888   6.227   1.754 -0.1429  0.5461 -0.2843
   63MOL   H49447738   1.831   6.228   1.584  0.0568  3.6708  0.5139
   63MOL   H49547739   2.093   6.332   1.591  0.6829  0.7754  0.0853
   63MOL   C49647740   1.957   6.466   1.654  0.4693 -0.4197  0.2199
   63MOL   O49747741   1.836   6.494   1.680 -0.1543  0.5312 -0.1317
   63MOL   C49847742   2.064   6.581   1.661  0.5049 -0.8361 -0.5677
   63MOL   C49947743   2.022   6.712   1.593  0.5927 -0.3247  0.5079
   63MOL   C50047744   2.135   6.822   1.597  0.1884 -0.8040  0.3249
   63MOL   C50147745   2.185   6.856   1.745 -0.0891  0.4375 -0.1735
   63MOL   C50247746   2.303   6.951   1.742 -0.2405 -0.2669 -1.1761
   63MOL   O50347747   2.296   7.047   1.674  0.2805  0.3710 -0.5163
   63MOL   N50447748   2.409   6.910   1.819 -0.1762  0.1456 -0.2462
   63MOL   C50547749   2.533   6.980   1.843  0.8170  0.1310  0.4151
   63MOL   C50647750   2.534   7.054   1.974  0.6723 -0.2043 -0.5361
   63MOL   C50747751   2.674   7.085   2.025  0.2761  0.2592 -0.1263
   63MOL   C50847752   2.753   6.967   2.086  0.3377  0.2845  0.5750
   63MOL   C50947753   2.899   6.987   2.118  0.1876  0.1635  0.3015
   63MOL   C51047754   2.986   7.024   2.004  0.3040  0.5174 -0.5877
   63MOL   N51147755   2.978   6.924   1.904 -0.2424  0.4555 -0.1994
   63MOL   H51247756   2.089   6.599   1.765  0.5711 -0.3396 -0.6660
   63MOL   H51347757   2.162   6.559   1.617  0.5765  0.6872 -1.2118
   63MOL   H51447758   2.003   6.681   1.490 -0.7670 -3.1804  1.5483
   63MOL   H51547759   1.928   6.741   1.640  1.4130  0.0110  1.9877
   63MOL   H51647760   2.098   6.915   1.553  0.9077 -0.5731  0.1939
   63MOL   H51747761   2.220   6.800   1.532  1.6253  0.0178  1.8786
   63MOL   H51847762   2.216   6.768   1.801 -0.7440 -0.1851 -0.7880
   63MOL   H51947763   2.101   6.894   1.803 -1.0110 -1.0375 -0.5060
   63MOL   H52047764   2.395   6.825   1.871 -0.0677  1.4168  1.9509
   63MOL   H52147765   2.614   6.908   1.836 -1.1544 -2.0478 -1.0760
   63MOL   H52247766   2.549   7.054   1.764  0.9972 -1.1101 -0.7326
   63MOL   H52347767   2.470   7.141   1.957 -2.9737 -2.2144  2.3303
   63MOL   H52447768   2.484   6.994   2.050 -0.3899  0.7835 -0.4306
   63MOL   H52547769   2.673   7.160   2.104 -0.1800  0.0122  0.1007
   63MOL   H52647770   2.735   7.122   1.942  0.2963  0.0055 -0.2221
   63MOL   H52747771   2.689   6.924   2.164 -0.1077  0.3325  0.2371
   63MOL   H52847772   2.742   6.885   2.016  0.4071 -1.2250  2.2786
   63MOL   H52947773   2.894   7.061   2.197  0.7833  0.8535 -0.3003
   63MOL   H53047774   2.948   6.901   2.164  1.2982 -0.0773 -1.2860
   63MOL   H53147775   3.091   7.044   2.025  0.3015  3.1939 -2.8588
   63MOL   H53247776   2.959   7.114   1.950  0.4924  0.8671 -0.0987
   63MOL   H53347777   3.007   6.833   1.937  0.4573  0.5848 -0.4550
   63MOL   C53447778   2.949   6.937   1.773  0.1575 -0.2846 -0.2332
   63MOL   O53547779   2.918   7.034   1.708  0.6745 -0.1820  0.1120
   63MOL   C53647780   2.958   6.803   1.706  0.3374 -0.0364  0.4759
   63MOL   C53747781   2.831   6.714   1.718 -0.4838  0.4785 -1.1166
   63MOL   C53847782   2.862   6.580   1.647  0.0188  0.1850  0.9237
   63MOL   C53947783   2.892   6.600   1.491 -0.3440 -0.4944  0.5407
   63MOL   C54047784   2.889   6.470   1.405  0.0280  0.1597  0.2976
   63MOL   O54147785   2.790   6.394   1.410  0.2750 -0.0051 -0.0761
   63MOL   N54247786   3.003   6.448   1.338  0.0407  0.2542  0.4386
   63MOL   C54347787   3.033   6.350   1.238  0.5486 -0.3212  0.1372
   63MOL   C54447788   3.120   6.243   1.298 -0.0500 -0.2988 -0.3158
   63MOL   C54547789   3.247   6.291   1.379  0.4062  0.7483 -0.1138
   63MOL   C54647790   3.324   6.175   1.456 -0.5756 -0.2526  0.5496
   63MOL   C54747791   3.446   6.218   1.540 -0.0571  0.5730  0.6402
   63MOL   C54847792   3.516   6.095   1.591  0.0799 -0.3366  0.6924
   63MOL   N54947793   3.598   6.123   1.708  0.0718  0.2869  0.1244
   63MOL   H55047794   2.957   6.825   1.600  0.0648  1.0992  0.7097
   63MOL   H55147795   3.049   6.750   1.734  0.6630  0.1101 -0.3159
   63MOL   H55247796   2.797   6.694   1.820 -1.4431  4.4974 -0.5543
   63MOL   H55347797   2.746   6.763   1.670 -0.3199  1.9406  0.0617
   63MOL   H55447798   2.777   6.514   1.661  0.6305 -0.8579 -0.1873
   63MOL   H55547799   2.939   6.523   1.700 -1.0701 -1.7317  0.4683
   63MOL   H55647800   2.985   6.656   1.479 -0.3795 -0.8813 -1.9047
   63MOL   H55747801   2.822   6.671   1.447 -0.5741 -0.6341  0.6795
   63MOL   H55847802   3.064   6.527   1.346 -0.9426  0.9549  1.1269
   63MOL   H55947803   2.945   6.302   1.194 -0.8782  1.7394  0.6504
   63MOL   H56047804   3.067   6.412   1.155 -0.8147 -0.1710 -0.3208
   63MOL   H56147805   3.047   6.182   1.352  1.2995 -0.5282  1.3067
   63MOL   H56247806   3.148   6.172   1.221 -1.7125 -1.1790 -0.1195
   63MOL   H56347807   3.216   6.365   1.451 -0.1911 -0.1497  0.5626
   63MOL   H56447808   3.316   6.332   1.305  0.4527 -0.4134 -0.7380
   63MOL   H56547809   3.247   6.143   1.526  1.1381 -3.1044  1.2570
   63MOL   H56647810   3.345   6.091   1.390  0.9516  1.8762 -1.7802
   63MOL   H56747811   3.516   6.278   1.482  1.6446 -0.3157  1.7174
   63MOL   H56847812   3.416   6.275   1.628  0.4535  1.1745  0.4266
   63MOL   H56947813   3.573   6.050   1.509  1.4602  2.3721  0.1093
   63MOL   H57047814   3.452   6.015   1.629 -1.5683  0.8036  0.3382
   63MOL   H57147815   3.572   6.077   1.794 -0.2843  0.0431 -0.1132
   63MOL   C57247816   3.701   6.209   1.709  0.3045 -0.0836 -0.1865
   63MOL   O57347817   3.750   6.255   1.607  0.5128  0.2270 -0.0628
   63MOL   C57447818   3.760   6.244   1.842  0.4138 -0.4962  0.0327
   63MOL   C57547819   3.868   6.355   1.824  0.4701  0.5013  0.1502
   63MOL   C57647820   3.961   6.357   1.946 -0.1767 -0.5276 -0.1846
   63MOL   C57747821   4.084   6.263   1.917  0.3448  0.0133 -0.1417
   63MOL   C57847822   4.195   6.277   2.024  0.4568 -0.3364 -0.4104
   63MOL   O57947823   4.163   6.282   2.143  0.5009  0.6554  0.5822
   63MOL   N58047824   4.319   6.282   1.973  0.3696  0.1424 -0.0746
   63MOL   C58147825   4.427   6.346   2.054 -0.5221  0.7142 -0.0278
   63MOL   C58247826   4.557   6.257   2.036  1.3311  0.1254  0.6275
   63MOL   C58347827   4.673   6.273   2.129 -0.2022 -0.3888 -0.3538
   63MOL   C58447828   4.796   6.210   2.078  0.6488  0.3773 -0.2007
   63MOL   C58547829   4.908   6.229   2.178 -0.2758 -1.4353 -0.3695
   63MOL   C58647830   5.031   6.136   2.155  0.7350 -0.0562 -0.1670
   63MOL   N58747831   5.105   6.157   2.028 -0.7681 -0.0095  0.0323
   63MOL   H58847832   3.685   6.294   1.902 -0.2165 -1.3663 -0.0180
   63MOL   H58947833   3.803   6.159   1.895  1.5679  0.8012  1.2282
   63MOL   H59047834   3.927   6.356   1.732  1.0429 -1.8093  0.4854
   63MOL   H59147835   3.819   6.453   1.818  4.1200  2.5294  1.5382
   63MOL   H59247836   3.908   6.323   2.036  2.2485 -1.2911  0.9976
   63MOL   H59347837   4.005   6.454   1.965  0.3195 -0.8561  0.3600
   63MOL   H59447838   4.132   6.283   1.822 -0.2547  0.1363 -0.4264
   63MOL   H59547839   4.051   6.160   1.932  0.6332  0.0618  0.9007
   63MOL   H59647840   4.321   6.283   1.872 -1.1289  1.2026 -0.1082
   63MOL   H59747841   4.431   6.453   2.033 -1.3042  1.0122  1.2814
   63MOL   H59847842   4.406   6.340   2.161  2.5968  1.7512  0.7144
   63MOL   H59947843   4.527   6.153   2.044 -0.0467  0.5847  1.7645
   63MOL   H60047844   4.597   6.269   1.935  0.7083 -0.4660  0.3053
   63MOL   H60147845   4.633   6.220   2.215  0.6763 -0.4424  0.0261
   63MOL   H60247846   4.680   6.381   2.145 -0.0797 -0.6816  1.6213
   63MOL   H60347847   4.776   6.103   2.077 -0.8833  0.6347  0.5934
   63MOL   H60447848   4.834   6.241   1.981  0.4373  0.3087 -0.3062
   63MOL   H60547849   4.938   6.333   2.172 -0.6958 -1.2236  1.0622
   63MOL   H60647850   4.865   6.206   2.276 -0.9814  1.6777  0.0884
   63MOL   H60747851   5.010   6.029   2.160  0.4342 -0.0159 -0.5055
   63MOL   H60847852   5.086   6.162   2.245 -1.8802  1.0613  1.1609
   63MOL   H60947853   5.047   6.192   1.953 -1.5626 -2.8186 -0.7145
   63MOL   C61047854   5.233   6.134   2.014  1.0025 -0.2672 -0.2834
   63MOL   O61147855   5.303   6.092   2.104  0.2157  0.2986  0.3287
   63MOL   C61247856   5.298   6.162   1.881  0.1050  0.1050  0.7053
   63MOL   C61347857   5.445   6.218   1.888  0.5316 -0.1460 -0.2767
   63MOL   C61447858   5.557   6.120   1.943  0.3014  0.5994 -0.4187
   63MOL   C61547859   5.680   6.188   2.012 -0.9605 -0.4742  1.0188
   63MOL   C61647860   5.661   6.246   2.149 -0.3682 -0.6534 -0.2179
   63MOL   O61747861   5.726   6.348   2.187 -0.1770 -0.3299 -0.0489
   63MOL   N61847862   5.571   6.188   2.230 -0.2432 -0.2650  0.3051
   63MOL   C61947863   5.522   6.251   2.353 -0.2178  0.3480 -0.2135
   63MOL   C62047864   5.368   6.260   2.352 -0.9312  0.1128  0.7007
   63MOL   C62147865   5.305   6.327   2.467  0.0710 -0.3024 -0.2845
   63MOL   C62247866   5.315   6.241   2.594  0.2833  0.3435  0.8767
   63MOL   C62347867   5.226   6.308   2.692  0.3648  0.1920  0.2229
   63MOL   C62447868   5.214   6.227   2.821 -0.2549 -0.6742 -0.1843
   63MOL   N62547869   5.114   6.297   2.909 -0.5772  0.3154  0.2807
   63MOL   H62647870   5.292   6.079   1.812 -1.1456 -0.2826  1.2759
   63MOL   H62747871   5.249   6.237   1.820  0.1964 -1.1750 -0.9676
   63MOL   H62847872   5.475   6.260   1.792  2.0581  0.1875  0.3307
   63MOL   H62947873   5.439   6.301   1.959  1.8698 -1.2832  1.2111
   63MOL   H63047874   5.597   6.064   1.859 -1.9772 -0.3405 -0.9208
   63MOL   H63147875   5.506   6.039   1.996 -1.7130  1.6663 -0.6721
   63MOL   H63247876   5.736   6.260   1.953 -2.1275  0.7035  1.3334
   63MOL   H63347877   5.758   6.114   2.033  0.3421 -0.0853 -2.2142
   63MOL   H63447878   5.523   6.113   2.183  0.9900 -1.8553  1.5643
   63MOL   H63547879   5.555   6.194   2.439  3.0742  0.4326 -1.3272
   63MOL   H63647880   5.566   6.351   2.354  1.4256 -0.3658 -0.1624
   63MOL   H63747881   5.352   6.309   2.257  3.0408  0.6434  0.2066
   63MOL   H63847882   5.329   6.159   2.337 -0.6548  0.2734 -1.2127
   63MOL   H63947883   5.199   6.332   2.439  0.0611  0.1875 -0.1756
   63MOL   H64047884   5.336   6.428   2.493  0.0742 -0.1479 -0.8714
   63MOL   H64147885   5.279   6.139   2.579 -0.0660  0.7336 -1.0878
   63MOL   H64247886   5.420   6.234   2.622  0.8245 -0.3286 -1.2203
   63MOL   H64347887   5.268   6.406   2.717 -0.1062  0.1691  1.1489
   63MOL   H64447888   5.126   6.322   2.652  0.1082  1.8306  1.3698
   63MOL   H64547889   5.312   6.224   2.866 -1.0578 -0.3861  1.6184
   63MOL   H64647890   5.169   6.128   2.815 -0.6040 -0.4118 -2.4414
   63MOL   H64747891   5.078   6.387   2.878 -1.6036 -0.3796 -0.5784
   63MOL   C64847892   5.100   6.281   3.038 -0.1446 -0.1576 -0.1607
   63MOL   O64947893   5.133   6.174   3.090  0.1168 -0.1309 -0.2098
   63MOL   C65047894   5.049   6.399   3.115  0.1852 -0.6750 -0.7730
   63MOL   C65147895   4.944   6.357   3.218 -0.5679 -0.4124  0.5001
   63MOL   C65247896   4.911   6.465   3.326 -0.3412 -0.0991  0.4839
   63MOL   C65347897   4.840   6.587   3.268 -0.3590 -0.0137  0.6158
   63MOL   C65447898   4.744   6.658   3.362  0.0812 -0.2740 -0.0733
   63MOL   O65547899   4.726   6.625   3.476  0.1135 -0.2709  0.1813
   63MOL   N65647900   4.698   6.775   3.321  0.0766 -0.2373  0.5906
   63MOL   C65747901   4.635   6.876   3.410  0.4696 -0.0090  0.6112
   63MOL   C65847902   4.536   6.976   3.338 -0.5387  0.2892  0.5663
   63MOL   C65947903   4.593   7.057   3.221  0.9069 -0.4610 -0.1394
   63MOL   C66047904   4.497   7.175   3.185 -0.2645 -0.0693 -0.3862
   63MOL   C66147905   4.353   7.127   3.153  0.3242  0.0150  0.3586
   63MOL   C66247906   4.246   7.238   3.135 -0.4081  0.1106  0.6218
   63MOL   N66347907   4.113   7.188   3.149 -0.2038  0.1176 -0.2034
   63MOL   H66447908   5.133   6.448   3.164 -0.0310  0.6268 -1.6814
   63MOL   H66547909   5.017   6.479   3.048  1.3549  1.3721  1.0403
   63MOL   H66647910   4.858   6.318   3.162 -2.0818  2.7166  0.5128
   63MOL   H66747911   4.979   6.270   3.274 -1.7836 -1.2527 -0.0016
   63MOL   H66847912   5.004   6.499   3.371 -0.0065 -1.2274  0.6447
   63MOL   H66947913   4.855   6.421   3.409  0.5794  3.2349  2.9773
   63MOL   H67047914   4.779   6.546   3.187  2.1987 -1.3598 -0.7137
   63MOL   H67147915   4.910   6.652   3.215  0.1830  1.1183  2.6925
   63MOL   H67247916   4.705   6.796   3.223 -2.3428 -0.7704  0.2753
   63MOL   H67347917   4.575   6.822   3.484 -3.4945  1.0758 -1.6773
   63MOL   H67447918   4.704   6.936   3.470  1.2054 -1.0847  0.8596
   63MOL   H67547919   4.451   6.922   3.296 -0.4627  1.3353 -0.9713
   63MOL   H67647920   4.490   7.043   3.411 -0.9381  0.2730  0.3310
   63MOL   H67747921   4.632   7.000   3.137  2.6610  0.8936 -0.2701
   63MOL   H67847922   4.674   7.110   3.271 -1.1665  0.2701  2.5827
   63MOL   H67947923   4.488   7.243   3.270 -2.2963 -1.3046  0.4230
   63MOL   H68047924   4.532   7.235   3.101 -1.5538 -1.3586 -1.8683
   63MOL   H68147925   4.356   7.051   3.075  1.6233  0.5625 -0.1453
   63MOL   H68247926   4.317   7.075   3.241  0.7165  0.2292  0.6475
   63MOL   H68347927   4.250   7.293   3.042  2.4083 -1.3089 -0.1370
   63MOL   H68447928   4.262   7.311   3.214 -1.5457  1.5746 -0.4772
   63MOL   H68547929   4.075   7.227   3.234  0.8531  1.7137 -0.4433
   63MOL   C68647930   4.043   7.106   3.070  0.1951 -0.1602 -0.0761
   63MOL   O68747931   4.088   7.061   2.963 -0.8386  0.6193 -0.5968
   63MOL   C68847932   3.913   7.066   3.133  0.1451  0.2888  0.2613
   63MOL   C68947933   3.810   7.002   3.035 -0.6720 -0.4314  0.7034
   63MOL   C69047934   3.744   7.105   2.940 -0.1095  0.4257  0.1328
   63MOL   C69147935   3.681   7.221   3.012  0.0522 -0.0654  0.3397
   63MOL   C69247936   3.544   7.264   2.968  0.5821  0.1353 -0.1701
   63MOL   O69347937   3.541   7.360   2.889  0.1033  0.0448  0.1086
   63MOL   N69447938   3.437   7.213   3.017  0.5699  0.5732 -0.2239
   63MOL   C69547939   3.303   7.257   2.987 -0.7949  0.2741 -0.3108
   63MOL   C69647940   3.196   7.183   3.074 -0.1857  0.2557 -0.1195
   63MOL   C69747941   3.060   7.232   3.040 -0.2660  0.0088  0.0945
   63MOL   C69847942   2.947   7.146   3.100 -0.0598 -0.7632  0.0943
   63MOL   C69947943   2.890   7.202   3.233 -0.2843  0.2569 -0.9063
   63MOL   C70047944   2.792   7.103   3.300  0.1020  0.5423 -0.0922
   63MOL   N70147945   2.679   7.066   3.214 -0.2749  0.1478  0.9837
   63MOL   H70247946   3.949   6.976   3.182 -0.4994  0.1340  0.4618
   63MOL   H70347947   3.873   7.137   3.206 -0.0603 -0.1095  0.5393
   63MOL   H70447948   3.860   6.930   2.970  1.0529 -0.0185  1.5329
   63MOL   H70547949   3.734   6.948   3.093 -0.5314 -1.6308 -0.2060
   63MOL   H70647950   3.671   7.048   2.883  0.8998 -0.0706 -0.6898
   63MOL   H70747951   3.813   7.146   2.866  0.3373  2.9580  1.9019
   63MOL   H70847952   3.742   7.311   3.018 -1.4404  0.9585  0.5488
   63MOL   H70947953   3.667   7.192   3.116 -0.8940 -0.0180  0.2387
   63MOL   H71047954   3.444   7.141   3.087  0.9567 -0.9777 -1.8175
   63MOL   H71147955   3.294   7.364   3.004  2.1267  0.4790  0.2012
   63MOL   H71247956   3.292   7.227   2.883  0.9287  0.3355 -0.5227
   63MOL   H71347957   3.206   7.077   3.048  0.3850  0.6225 -1.4420
   63MOL   H71447958   3.208   7.186   3.183  1.6310 -3.0584 -0.1369
   63MOL   H71547959   3.043   7.234   2.932  3.0203  0.6519 -0.4444
   63MOL   H71647960   3.050   7.336   3.070 -2.4493 -0.2558  0.3381
   63MOL   H71747961   2.855   7.138   3.042 -0.2945  0.2042  0.3217
   63MOL   H71847962   2.976   7.041   3.106 -1.3223 -1.2189 -1.4592
   63MOL   H71947963   2.978   7.218   3.296 -0.7874  0.9596 -0.3709
   63MOL   H72047964   2.849   7.301   3.210  0.0348  0.1927 -1.7520
   63MOL   H72147965   2.753   7.156   3.386  2.3455  0.4254  1.0226
   63MOL   H72247966   2.842   7.012   3.335 -1.6338 -0.2425  0.3864
   63MOL   H72347967   2.684   6.981   3.159  0.1824  1.0199 -0.3505
   63MOL   C72447968   2.564   7.137   3.214  0.0414 -0.0231 -0.0464
   63MOL   O72547969   2.542   7.239   3.280 -0.0534  0.0764  0.2163
   63MOL   C72647970   2.452   7.074   3.131  1.0973 -0.5959 -0.0752
   63MOL   C72747971   2.362   7.179   3.060 -0.3597 -0.2559 -0.2564
   63MOL   C72847972   2.443   7.257   2.962  0.1182 -0.3368  0.1261
   63MOL   C72947973   2.354   7.351   2.871  0.6239  0.1903  0.1625
   63MOL   C73047974   2.274   7.262   2.770  0.0679  0.4808  0.2860
   63MOL   O73147975   2.168   7.203   2.795  0.1462  0.1459  0.0291
   63MOL   N73247976   2.331   7.260   2.648  0.5703 -0.6574 -0.1384
   63MOL   C73347977   2.282   7.189   2.529 -0.2201  0.4994 -0.5909
   63MOL   C73447978   2.329   7.261   2.398 -0.3044 -0.8285  0.3800
   63MOL   C73547979   2.315   7.195   2.251 -0.1081  0.0588  0.5081
   63MOL   C73647980   2.173   7.202   2.204  0.1385  0.1919 -0.0414
   63MOL   C73747981   2.152   7.162   2.057 -0.4846  0.6009  1.1656
   63MOL   C73847982   2.154   7.277   1.952 -0.5226  0.2927 -0.0051
   63MOL   N73947983   2.040   7.257   1.862 -0.0059 -0.3300  0.6110
   63MOL   H74047984   2.496   6.999   3.065  1.6766  1.6032 -2.2811
   63MOL   H74147985   2.397   7.005   3.195 -1.4021  2.4267  1.1885
   63MOL   H74247986   2.283   7.128   3.004  1.1851 -1.7875 -1.0722
   63MOL   H74347987   2.311   7.248   3.127 -1.5828 -3.5993  2.4577
   63MOL   H74447988   2.512   7.197   2.902  0.1826  0.3581 -0.5075
   63MOL   H74547989   2.518   7.314   3.017  0.5826 -0.2243 -0.6151
   63MOL   H74647990   2.409   7.428   2.817 -0.2463  0.5785 -0.1782
   63MOL   H74747991   2.283   7.399   2.939  1.0053  0.1940  0.5642
   63MOL   H74847992   2.418   7.310   2.644  1.6212 -2.3450  1.0944
   63MOL   H74947993   2.313   7.085   2.532  0.9217  0.8762  3.1975
   63MOL   H75047994   2.174   7.198   2.530 -0.2225  0.8134  3.8221
   63MOL   H75147995   2.276   7.357   2.400 -1.2869 -1.3451 -0.3632
   63MOL   H75247996   2.431   7.292   2.422 -0.2699 -0.2006 -0.5640
   63MOL   H75347997   2.350   7.092   2.259  3.4110  1.0193 -1.4723
   63MOL   H75447998   2.379   7.227   2.169 -2.4112 -0.0343 -1.3488
   63MOL   H75547999   2.103   7.146   2.267 -0.1069  1.1208  0.5240
   63MOL   H75648000   2.133   7.303   2.214  0.7616  0.8709 -3.7591
   63MOL   H75748001   2.208   7.072   2.034 -0.5121  0.5878  1.1514
   63MOL   H75848002   2.050   7.125   2.064 -0.9039  1.4523 -0.1540
   63MOL   H75948003   2.242   7.271   1.888 -0.6196  0.9420 -0.1981
   63MOL   H76048004   2.162   7.381   1.984  0.9908 -0.2187  1.3637
   63MOL   H76148005   2.034   7.329   1.791  1.8602 -1.2275 -0.4883
   63MOL   H76248006   2.054   7.172   1.810 -1.4923 -1.4708  2.0434
   64MOL     C148007   3.219   0.070   6.113  0.2939 -0.2986 -0.9037
   64MOL     O248008   3.320   0.026   6.156  0.1749  0.3420  0.0783
   64MOL     C348009   3.158   0.022   5.984  0.2309  0.0675 -0.0434
   64MOL     C448010   3.127   7.579   5.984  0.0609  0.7242 -0.9966
   64MOL     C548011   2.984   7.548   6.030  0.4658  0.7555  0.0224
   64MOL     C648012   2.947   7.401   5.979 -0.4352 -0.1477 -0.1068
   64MOL     C748013   2.798   7.360   5.993 -0.2945  0.7384 -0.4153
   64MOL     O848014   2.715   7.433   5.942  0.7452 -0.7109  0.3653
   64MOL     N948015   2.772   7.240   6.050  0.2656  0.0087  0.9294
   64MOL    C1048016   2.637   7.196   6.065 -0.3599 -0.4084 -0.2733
   64MOL    C1148017   2.635   7.047   6.111 -0.6647  0.3558  1.4255
   64MOL    C1248018   2.489   6.988   6.094  0.4299 -0.2598  0.4345
   64MOL    C1348019   2.481   6.832   6.106  0.3421  0.3023 -0.3308
   64MOL    C1448020   2.509   6.791   6.254 -0.6318  1.0420  0.2191
   64MOL    C1548021   2.522   6.632   6.271  0.2600 -0.1695  0.6250
   64MOL    N1648022   2.551   6.598   6.410 -0.9138 -0.1723  0.3981
   64MOL    H1748023   3.068   0.074   5.951  0.6904  0.2768 -0.9599
   64MOL    H1848024   3.216   0.047   5.896  0.0358 -1.2064 -0.5529
   64MOL    H1948025   3.161   7.534   5.891  2.0193 -0.1173  0.0959
   64MOL    H2048026   3.199   7.526   6.047  1.3481  1.1501 -2.0720
   64MOL    H2148027   2.910   7.620   5.995 -0.6823 -0.3592  0.0655
   64MOL    H2248028   2.972   7.561   6.137 -3.4736  0.1049 -0.2321
   64MOL    H2348029   3.022   7.335   6.022  0.2264 -0.2209 -1.3524
   64MOL    H2448030   2.971   7.397   5.873  0.9324  3.2158  0.0322
   64MOL    H2548031   2.846   7.179   6.084  1.6278  1.0391 -0.1217
   64MOL    H2648032   2.581   7.262   6.132 -2.3814  1.0202 -3.2598
   64MOL    H2748033   2.580   7.201   5.973 -0.6312 -0.9797 -0.1441
   64MOL    H2848034   2.694   6.987   6.042 -0.6176  1.7968  0.1761
   64MOL    H2948035   2.690   7.044   6.205  4.2634  0.4580 -1.2480
   64MOL    H3048036   2.461   7.028   5.997  1.2745  0.5622  0.5198
   64MOL    H3148037   2.426   7.019   6.178 -1.4166 -0.0124 -1.0240
   64MOL    H3248038   2.387   6.790   6.068 -0.1658 -0.0909  1.3111
   64MOL    H3348039   2.556   6.798   6.035  0.0671 -1.8862  0.3847
   64MOL    H3448040   2.603   6.834   6.288 -0.6103  0.3868  0.9716
   64MOL    H3548041   2.428   6.824   6.319 -0.8251 -0.0955  0.5672
   64MOL    H3648042   2.596   6.593   6.202  0.5170  0.3745  0.5834
   64MOL    H3748043   2.433   6.579   6.238 -0.4296  0.8051  0.9010
   64MOL    H3848044   2.507   6.662   6.474 -1.0092 -1.4221  1.6051
   64MOL    H3948045   3.166   0.152   6.162  0.8666 -0.4991  0.0608
   64MOL    C4048046   2.635   6.502   6.446  0.9418  0.3179  0.2890
   64MOL    O4148047   2.700   6.432   6.371 -0.6698  0.2603  0.0566
   64MOL    C4248048   2.634   6.474   6.598 -0.5125  0.0777 -0.4070
   64MOL    C4348049   2.779   6.489   6.659 -0.5052  0.1093  0.4622
   64MOL    C4448050   2.778   6.439   6.796 -1.4473 -0.1085 -0.4585
   64MOL    C4548051   2.916   6.465   6.869 -0.1083 -0.1185  0.2073
   64MOL    C4648052   2.921   6.618   6.915 -0.0256 -1.1869  0.4082
   64MOL    O4748053   2.818   6.681   6.943 -0.4150 -0.6839 -0.1954
   64MOL    N4848054   3.040   6.677   6.908  0.1463  0.1356 -0.6050
   64MOL    C4948055   3.065   6.804   6.971 -0.3915 -0.3804  0.0298
   64MOL    C5048056   3.052   6.803   7.125  0.1358  0.1047 -0.1341
   64MOL    C5148057   3.116   6.933   7.196  0.2265  0.5762 -0.8748
   64MOL    C5248058   3.065   6.977   7.338 -0.3167  0.6328  0.3081
   64MOL    C5348059   3.165   7.041   7.429  0.3565  0.5549  0.4832
   64MOL    C5448060   3.112   7.052   7.571  0.6530  0.1320  0.5551
   64MOL    N5548061   3.203   7.130   7.653  0.3276 -0.1886  0.2684
   64MOL    H5648062   2.576   6.552   6.647  0.8106  1.5251 -1.0868
   64MOL    H5748063   2.598   6.373   6.622  0.2784 -0.2644 -0.6421
   64MOL    H5848064   2.859   6.443   6.601 -1.6632 -1.0066 -0.3037
   64MOL    H5948065   2.802   6.595   6.654  0.0498  0.0296  1.4648
   64MOL    H6048066   2.753   6.334   6.781  3.6489 -1.3143 -1.4205
   64MOL    H6148067   2.698   6.484   6.855 -0.1604  1.2754  0.2798
   64MOL    H6248068   3.002   6.440   6.807  0.9235  3.0631  0.2884
   64MOL    H6348069   2.921   6.408   6.962  0.2376  1.2292  1.0336
   64MOL    H6448070   3.116   6.614   6.890 -0.2070 -0.7165  0.8198
   64MOL    H6548071   3.173   6.812   6.961 -0.3652 -1.7096 -0.8751
   64MOL    H6648072   3.017   6.888   6.922  1.4249  1.2523  0.9599
   64MOL    H6748073   2.944   6.811   7.139  0.3689  0.1297  1.6611
   64MOL    H6848074   3.098   6.707   7.150 -0.4298 -0.0267  0.3997
   64MOL    H6948075   3.103   7.016   7.127 -0.9649 -1.0332 -2.6451
   64MOL    H7048076   3.224   6.915   7.202 -0.3053 -2.4784  0.5970
   64MOL    H7148077   2.978   7.043   7.342 -1.3534 -0.5854 -1.3226
   64MOL    H7248078   3.026   6.889   7.388 -1.9664  2.0592  1.5705
   64MOL    H7348079   3.254   6.977   7.429 -1.2826 -1.7965 -2.2759
   64MOL    H7448080   3.180   7.142   7.391  1.1745  0.3494  0.2387
   64MOL    H7548081   3.083   6.958   7.617  0.3292  1.0454  2.2606
   64MOL    H7648082   3.012   7.096   7.562  0.8653  1.1054  2.5748
   64MOL    H7748083   3.300   7.118   7.627  0.5987  2.0434  0.1642
   64MOL    C7848084   3.167   7.231   0.027 -0.5310  0.0790 -0.6309
   64MOL    O7948085   3.051   7.253   0.057  0.3688  0.0627  0.5002
   64MOL    C8048086   3.279   7.320   0.068  0.2331  0.0908  0.1095
   64MOL    C8148087   3.372   7.269   0.177 -0.6926 -0.0257  0.0570
   64MOL    C8248088   3.319   7.222   0.309  0.4202 -0.3988 -0.3808
   64MOL    C8348089   3.424   7.163   0.403  0.0657 -0.1246  0.1112
   64MOL    C8448090   3.482   7.025   0.381 -0.1826  0.7758  0.1187
   64MOL    O8548091   3.507   6.979   0.268  0.4632  0.1250 -0.1926
   64MOL    N8648092   3.499   6.949   0.494  0.2541  0.2658 -0.0109
   64MOL    C8748093   3.523   6.808   0.505  0.0603  0.2828  0.5050
   64MOL    C8848094   3.647   6.779   0.587 -0.3817  0.6836 -0.0160
   64MOL    C8948095   3.678   6.629   0.598  0.4380 -0.2210  1.0873
   64MOL    C9048096   3.809   6.599   0.667  0.2555  0.1590  0.1818
   64MOL    C9148097   3.813   6.450   0.700 -0.0892  0.5992  0.1718
   64MOL    C9248098   3.928   6.407   0.794 -0.1972  0.8972 -0.3117
   64MOL    N9348099   3.955   6.266   0.805 -0.3205 -0.6783 -0.2163
   64MOL    H9448100   3.333   7.348   7.686 -0.8139 -0.2190 -0.6261
   64MOL    H9548101   3.230   7.407   0.113 -1.1379  1.6929 -4.2000
   64MOL    H9648102   3.426   7.194   0.119 -3.3541 -1.7323 -0.3170
   64MOL    H9748103   3.451   7.342   0.190  0.3702 -1.2105  0.3683
   64MOL    H9848104   3.238   7.151   0.290 -0.2144  0.8882 -2.7130
   64MOL    H9948105   3.264   7.298   0.364  4.2104  2.9763 -1.0707
   64MOL   H10048106   3.378   7.154   0.501  0.3296 -2.5610  0.0388
   64MOL   H10148107   3.514   7.221   0.422 -0.1903  0.0787  0.7200
   64MOL   H10248108   3.458   6.990   0.577  0.4276  1.2708 -0.4198
   64MOL   H10348109   3.436   6.759   0.547  0.2418  1.0829  1.8402
   64MOL   H10448110   3.522   6.776   0.400 -2.6838  1.8589 -0.0114
   64MOL   H10548111   3.734   6.830   0.548  0.4740 -0.2762  0.6275
   64MOL   H10648112   3.622   6.826   0.683  0.6622 -0.4749  0.8266
   64MOL   H10748113   3.676   6.595   0.495 -1.7067 -1.3585  1.4619
   64MOL   H10848114   3.597   6.571   0.642 -0.6546  0.8023  0.4852
   64MOL   H10948115   3.897   6.633   0.613 -1.0523  2.8338 -0.3241
   64MOL   H11048116   3.811   6.659   0.758  3.8755  0.5357 -0.0934
   64MOL   H11148117   3.718   6.415   0.741 -0.0740 -0.8266 -0.9348
   64MOL   H11248118   3.821   6.383   0.614  0.2264 -1.3175  1.6648
   64MOL   H11348119   3.916   6.445   0.895  0.5506 -1.4976  0.7173
   64MOL   H11448120   4.016   6.459   0.756 -0.6341  0.9898 -1.2228
   64MOL   H11548121   3.911   6.216   0.881  0.6419 -0.2397  0.6326
   64MOL   C11648122   4.016   6.186   0.720  0.3714  0.1208 -0.4563
   64MOL   O11748123   4.026   6.068   0.744  0.1282 -0.0080 -0.4918
   64MOL   C11848124   4.075   6.232   0.580  0.4281 -0.3246 -1.4564
   64MOL   C11948125   4.013   6.172   0.460 -0.3500 -0.1069 -0.0652
   64MOL   C12048126   4.027   6.261   0.338 -0.4812 -0.6242  0.2287
   64MOL   C12148127   4.004   6.185   0.202 -0.1754  0.2008  0.2550
   64MOL   C12248128   4.131   6.103   0.155  0.3514 -0.2483  0.9217
   64MOL   O12348129   4.220   6.149   0.085  0.2868  0.0918 -0.5469
   64MOL   N12448130   4.124   5.973   0.186  0.2175 -0.0595  0.1246
   64MOL   C12548131   4.211   5.869   0.127  0.9942 -0.7205  0.2288
   64MOL   C12648132   4.326   5.840   0.212  0.1486  0.3425  0.2736
   64MOL   C12748133   4.398   5.712   0.167 -0.4101  0.0514  0.1799
   64MOL   C12848134   4.447   5.711   0.024  0.0020 -0.4863  0.1584
   64MOL   C12948135   4.530   5.589   7.687  0.5581 -0.1052  0.2760
   64MOL   C13048136   4.544   5.569   7.541 -0.4615 -0.0755 -0.4774
   64MOL   N13148137   4.607   5.679   7.472 -1.0911  0.5195 -0.0632
   64MOL   H13248138   4.070   6.341   0.584 -0.3958 -0.4038  0.6126
   64MOL   H13348139   4.183   6.221   0.573  0.5266 -1.4331  1.3170
   64MOL   H13448140   4.064   6.078   0.439  0.4333  0.0383  1.1072
   64MOL   H13548141   3.909   6.144   0.475 -1.2262  1.0188 -3.5270
   64MOL   H13648142   4.126   6.304   0.330 -0.4757 -0.6687  0.0449
   64MOL   H13748143   3.955   6.343   0.329 -1.3667 -1.4664 -0.6310
   64MOL   H13848144   3.997   6.250   0.115 -0.1784 -0.7847 -0.4772
   64MOL   H13948145   3.911   6.128   0.205  0.8358 -1.4975 -0.4672
   64MOL   H14048146   4.045   5.943   0.241 -0.8957  1.2524 -0.7028
   64MOL   H14148147   4.161   5.774   0.116 -0.2169 -0.0342 -0.2498
   64MOL   H14248148   4.234   5.894   0.024  0.3480 -1.3795 -0.0731
   64MOL   H14348149   4.399   5.920   0.218 -0.4072  0.8695 -0.0341
   64MOL   H14448150   4.294   5.829   0.316  3.1146  0.5976  1.2463
   64MOL   H14548151   4.335   5.623   0.173 -0.7338  0.1541 -1.5511
   64MOL   H14648152   4.483   5.697   0.235 -0.2545  2.7985  0.6207
   64MOL   H14748153   4.356   5.712   7.672 -1.1700  0.0265  1.9118
   64MOL   H14848154   4.500   5.803   7.706 -0.3597 -0.7690 -1.6008
   64MOL   H14948155   4.628   5.584   0.026 -0.2703  1.0816  2.2154
   64MOL   H15048156   4.481   5.501   0.021 -0.4591  0.6259  0.6348
   64MOL   H15148157   4.441   5.551   7.508 -0.6211  0.1486 -0.1075
   64MOL   H15248158   4.599   5.480   7.511  0.2055  0.4027 -0.6641
   64MOL   H15348159   4.630   5.764   7.522  2.5791 -1.1944  1.3484
   64MOL   C15448160   4.633   5.683   7.342  0.2377 -0.1931  0.4860
   64MOL   O15548161   4.603   5.587   7.278 -0.2937  0.0225 -0.3547
   64MOL   C15648162   4.694   5.805   7.275 -0.2919  0.5326 -0.0292
   64MOL   C15748163   4.742   5.798   7.132  0.1089  0.5775  0.2803
   64MOL   C15848164   4.783   5.937   7.084  0.5466 -0.0302 -0.0323
   64MOL   C15948165   4.667   6.036   7.057 -0.5327 -0.3291  0.0273
   64MOL   C16048166   4.593   6.007   6.923 -0.9392  0.2483  0.3623
   64MOL   O16148167   4.655   5.969   6.824  0.0200 -0.3842  0.0938
   64MOL   N16248168   4.462   6.036   6.927 -0.8064 -0.0415 -0.3447
   64MOL   C16348169   4.362   5.980   6.843  0.2941 -0.0804 -0.3561
   64MOL   C16448170   4.249   5.918   6.921  0.5651 -0.4121  0.0610
   64MOL   C16548171   4.141   5.853   6.828 -0.0968  0.4817 -0.3980
   64MOL   C16648172   4.050   5.758   6.913  0.1113  0.0858 -0.4491
   64MOL   C16748173   3.936   5.698   6.837 -0.2697  0.0224 -0.0504
   64MOL   C16848174   3.974   5.632   6.705  0.5946 -0.1387  0.0694
   64MOL   N16948175   3.875   5.534   6.661  0.0039  0.0848  0.0962
   64MOL   H17048176   4.630   5.891   7.294 -1.0784 -0.3187  1.2410
   64MOL   H17148177   4.772   5.836   7.345  1.0820 -0.5722 -1.0423
   64MOL   H17248178   4.826   5.729   7.124  0.6426  1.2884 -0.2431
   64MOL   H17348179   4.671   5.752   7.063 -0.7043  2.7787 -0.3744
   64MOL   H17448180   4.832   5.917   6.989 -0.1377 -0.9893 -0.1823
   64MOL   H17548181   4.856   5.987   7.149 -0.3942 -0.9053  1.7366
   64MOL   H17648182   4.710   6.134   7.037 -0.3873  0.1448  2.5616
   64MOL   H17748183   4.610   6.063   7.145  2.1536 -0.1726  1.7631
   64MOL   H17848184   4.434   6.067   7.020  1.1935 -0.0265  0.2831
   64MOL   H17948185   4.329   6.068   6.787  1.2834  0.7843  0.4144
   64MOL   H18048186   4.407   5.906   6.777  1.4896  1.0742 -0.8462
   64MOL   H18148187   4.303   5.849   6.986  1.5382  0.5802  0.3329
   64MOL   H18248188   4.205   6.000   6.978 -2.0300 -1.0020 -1.0603
   64MOL   H18348189   4.200   5.795   6.756  1.2340 -0.4640  1.4252
   64MOL   H18448190   4.081   5.932   6.781 -1.8303 -0.5718  0.0070
   64MOL   H18548191   4.103   5.680   6.968  2.4495  2.6575  1.0657
   64MOL   H18648192   4.007   5.833   6.980 -0.7828  0.6496 -1.6235
   64MOL   H18748193   3.887   5.622   6.899 -1.1801  0.7346  0.1111
   64MOL   H18848194   3.861   5.775   6.821 -0.5984 -0.3372 -0.2598
   64MOL   H18948195   4.059   5.565   6.719  0.7285 -0.2778 -1.3884
   64MOL   H19048196   4.003   5.706   6.631  1.8439 -1.3454 -0.6803
   64MOL   H19148197   3.820   5.489   6.733  0.6998  0.7351  1.0410
   64MOL   C19248198   3.848   5.504   6.532 -0.2111  0.2337  1.1499
   64MOL   O19348199   3.896   5.562   6.437 -0.0979 -0.2485  0.4815
   64MOL   C19448200   3.757   5.375   6.505 -0.5958 -0.4723 -0.5315
   64MOL   C19548201   3.681   5.385   6.370 -0.2371 -0.4945  0.1428
   64MOL   C19648202   3.563   5.284   6.368  0.6848 -0.1317  0.1371
   64MOL   C19748203   3.478   5.302   6.245 -0.2665 -0.7584 -0.4245
   64MOL   C19848204   3.526   5.212   6.135  0.3304 -0.0293 -0.2280
   64MOL   O19948205   3.626   5.143   6.147 -0.3788 -0.1874 -0.4121
   64MOL   N20048206   3.451   5.210   6.023 -0.7558 -0.3411  0.0029
   64MOL   C20148207   3.478   5.121   5.912 -0.4220 -0.0294  0.3426
   64MOL   C20248208   3.530   5.215   5.793 -0.9724  0.1653  0.1480
   64MOL   C20348209   3.684   5.219   5.762  0.3812  0.7531  0.7600
   64MOL   C20448210   3.710   5.306   5.641 -0.1062 -0.5898 -0.6674
   64MOL   C20548211   3.844   5.272   5.582  0.8787  1.0180  0.4193
   64MOL   C20648212   3.870   5.345   5.449 -0.0556  0.1369 -0.4670
   64MOL   N20748213   4.005   5.311   5.395 -0.2721  0.4051 -0.3766
   64MOL   H20848214   3.826   5.290   6.502  0.3089  0.2545 -0.7917
   64MOL   H20948215   3.696   5.354   6.593 -0.7491  0.2007 -0.4742
   64MOL   H21048216   3.631   5.482   6.366  4.2682  1.9434  0.2456
   64MOL   H21148217   3.758   5.367   6.295 -1.3514  1.3636 -1.4883
   64MOL   H21248218   3.503   5.300   6.457  0.8180 -0.0701  0.2159
   64MOL   H21348219   3.609   5.185   6.369  1.1653  0.0643 -1.0063
   64MOL   H21448220   3.483   5.404   6.208 -0.6946 -1.4437 -2.4854
   64MOL   H21548221   3.372   5.283   6.262 -0.7340  2.5262  0.6793
   64MOL   H21648222   3.377   5.279   6.024  0.0312  0.5470  2.5236
   64MOL   H21748223   3.558   5.054   5.944 -1.1003 -1.3994 -0.7465
   64MOL   H21848224   3.389   5.061   5.894  1.3130 -2.3444 -0.8676
   64MOL   H21948225   3.479   5.182   5.703  1.0908  0.4214 -1.1601
   64MOL   H22048226   3.495   5.316   5.813 -1.3730 -0.0439  0.4992
   64MOL   H22148227   3.716   5.118   5.739 -0.2599  0.9231 -0.9400
   64MOL   H22248228   3.742   5.260   5.845  1.2086  1.0018  0.0648
   64MOL   H22348229   3.643   5.280   5.559  0.5907 -0.5992 -1.2392
   64MOL   H22448230   3.718   5.406   5.683 -1.4962 -0.8454  0.2209
   64MOL   H22548231   3.918   5.304   5.655  0.2019 -0.6679  1.8938
   64MOL   H22648232   3.837   5.164   5.564 -1.0018  0.5480  3.5553
   64MOL   H22748233   3.857   5.453   5.448 -0.3241  0.1047 -0.7255
   64MOL   H22848234   3.791   5.308   5.383 -0.3801 -1.1117  0.6029
   64MOL   H22948235   4.022   5.212   5.399 -0.5597  0.3928  0.9564
   64MOL   C23048236   4.097   5.401   5.360 -1.0956  0.0657 -0.4549
   64MOL   O23148237   4.074   5.518   5.385 -0.1846 -0.3971  0.3080
   64MOL   C23248238   4.237   5.352   5.322  0.1375  0.7483  0.0629
   64MOL   C23348239   4.345   5.418   5.405 -0.1825 -0.4100  0.0100
   64MOL   C23448240   4.487   5.411   5.360 -0.1107 -0.0377 -0.6608
   64MOL   C23548241   4.518   5.462   5.214  0.2951  0.0098 -0.8771
   64MOL   C23648242   4.511   5.619   5.192 -0.1569 -0.7348  0.5038
   64MOL   O23748243   4.481   5.705   5.278 -0.6418  0.1923  0.7852
   64MOL   N23848244   4.541   5.654   5.060 -0.5777  0.6019 -0.1033
   64MOL   C23948245   4.536   5.795   5.015  0.0100 -0.0163 -0.4234
   64MOL   C24048246   4.550   5.807   4.864  0.0672  0.1041 -0.0140
   64MOL   C24148247   4.531   5.954   4.821  0.5362 -0.1754 -0.2805
   64MOL   C24248248   4.539   5.982   4.671  0.0920 -0.8201  0.7576
   64MOL   C24348249   4.552   6.134   4.643  0.1415 -0.6494 -0.5878
   64MOL   C24448250   4.601   6.174   4.508 -0.6589  0.7394 -0.2238
   64MOL   N24548251   4.509   6.142   4.401  0.1918  0.6166  0.1506
   64MOL   H24648252   4.242   5.244   5.332  0.5913  0.7964  0.3700
   64MOL   H24748253   4.257   5.383   5.219  0.1553 -0.2202 -0.2309
   64MOL   H24848254   4.317   5.523   5.399 -3.3868 -1.1858  0.2791
   64MOL   H24948255   4.330   5.387   5.509  0.8995  0.9480  0.5838
   64MOL   H25048256   4.510   5.306   5.373  0.2151  0.4355  3.3314
   64MOL   H25148257   4.543   5.460   5.440  1.1046 -2.9424  0.2962
   64MOL   H25248258   4.451   5.406   5.149 -3.8907  2.5602  0.9885
   64MOL   H25348259   4.619   5.433   5.188  0.4580  2.5238 -3.3167
   64MOL   H25448260   4.561   5.584   4.990 -0.5503  0.7107 -0.2052
   64MOL   H25548261   4.443   5.833   5.056 -0.0088 -0.8706  0.3450
   64MOL   H25648262   4.620   5.845   5.064 -0.7366  1.5648 -0.7442
   64MOL   H25748263   4.651   5.773   4.839 -0.3993 -0.5193 -1.0877
   64MOL   H25848264   4.474   5.749   4.810  0.7429  0.6056 -1.5376
   64MOL   H25948265   4.614   6.008   4.868  0.1894 -0.1579  0.3142
   64MOL   H26048266   4.438   5.998   4.857  0.6642  1.5180 -1.9337
   64MOL   H26148267   4.637   5.941   4.647 -0.7394 -0.1303 -4.4446
   64MOL   H26248268   4.459   5.943   4.608 -0.0680 -0.9618  1.0450
   64MOL   H26348269   4.457   6.184   4.664  1.4190  0.4972  2.6838
   64MOL   H26448270   4.625   6.175   4.712 -1.5528  0.5577  0.5193
   64MOL   H26548271   4.704   6.141   4.497 -1.1596 -0.7678 -0.6143
   64MOL   H26648272   4.593   6.280   4.486 -2.0872  0.6296 -0.3050
   64MOL   H26748273   4.411   6.161   4.414  0.7731  2.2543  2.3296
   64MOL   C26848274   4.550   6.061   4.299 -0.2487  0.4702  0.2282
   64MOL   O26948275   4.666   6.009   4.293  0.3539 -0.0086 -0.3497
   64MOL   C27048276   4.444   6.039   4.187  0.1960 -0.1050 -0.2613
   64MOL   C27148277   4.506   6.063   4.045 -0.0504  0.2016 -0.2014
   64MOL   C27248278   4.419   6.005   3.938  0.0187  0.0447 -0.7831
   64MOL   C27348279   4.268   6.032   3.966 -0.7678  0.1587 -0.4268
   64MOL   C27448280   4.173   6.010   3.843 -0.0874 -0.4968  0.4173
   64MOL   O27548281   4.131   5.896   3.823  0.3020  0.4829  0.1138
   64MOL   N27648282   4.153   6.116   3.760 -0.0069  0.6078  0.5562
   64MOL   C27748283   4.085   6.115   3.632  0.2656  0.4086  0.0418
   64MOL   C27848284   3.972   6.222   3.643 -0.3722 -0.3931 -0.2520
   64MOL   C27948285   3.900   6.256   3.511  0.1371 -0.3156  0.3030
   64MOL   C28048286   3.779   6.355   3.524  0.3444 -0.4933  0.4077
   64MOL   C28148287   3.827   6.496   3.565  0.0727  0.1073 -0.1564
   64MOL   C28248288   3.709   6.591   3.566  0.7111 -0.1759  0.1449
   64MOL   N28348289   3.603   6.545   3.658 -0.0813  0.3980 -0.3604
   64MOL   H28448290   4.425   5.932   4.196 -1.6144  0.2930  0.9964
   64MOL   H28548291   4.351   6.092   4.209  0.4838  0.4115 -0.2859
   64MOL   H28648292   4.540   6.166   4.035 -0.6947  0.7543  2.8215
   64MOL   H28748293   4.596   6.001   4.038 -1.4824 -1.9778  0.1615
   64MOL   H28848294   4.429   5.896   3.940 -0.5911 -0.0027  2.8279
   64MOL   H28948295   4.440   6.047   3.839 -0.8912 -0.5249 -1.2311
   64MOL   H29048296   4.238   6.133   3.995  1.3779  0.8615 -0.6131
   64MOL   H29148297   4.240   5.962   4.045 -1.0455  0.0994 -0.5749
   64MOL   H29248298   4.192   6.204   3.790  0.0097  1.0626 -0.7587
   64MOL   H29348299   4.168   6.136   3.565  0.4741  1.9973  0.7983
   64MOL   H29448300   4.045   6.014   3.618  0.3224  0.4212 -0.2198
   64MOL   H29548301   3.890   6.198   3.711 -0.1758 -1.7462 -0.4734
   64MOL   H29648302   4.003   6.315   3.692 -1.3316  0.3234 -0.9853
   64MOL   H29748303   3.852   6.169   3.467 -1.4658  1.3414 -1.3276
   64MOL   H29848304   3.981   6.283   3.444 -0.6432 -0.2607 -0.6397
   64MOL   H29948305   3.712   6.353   3.439 -0.7549 -0.9394  1.2728
   64MOL   H30048306   3.705   6.316   3.595  0.3958  0.1753  0.8290
   64MOL   H30148307   3.877   6.504   3.661  0.9626 -0.8408 -0.5258
   64MOL   H30248308   3.901   6.528   3.492  0.8853 -1.1237  0.1011
   64MOL   H30348309   3.668   6.605   3.466 -1.1915 -1.7959  0.6525
   64MOL   H30448310   3.743   6.690   3.594 -1.3098  1.2331 -2.2146
   64MOL   H30548311   3.627   6.475   3.727  0.3351  0.4123 -0.4904
   64MOL   C30648312   3.491   6.611   3.674 -0.2770  0.0108  0.0697
   64MOL   O30748313   3.463   6.703   3.602  0.5554 -0.3591  0.2580
   64MOL   C30848314   3.394   6.575   3.789 -0.3056  0.0423  0.3329
   64MOL   C30948315   3.342   6.699   3.862  0.1288  0.1589 -0.0172
   64MOL   C31048316   3.440   6.777   3.952 -0.2983 -1.0878 -0.0433
   64MOL   C31148317   3.391   6.905   4.024 -1.3506 -0.6074  0.5798
   64MOL   C31248318   3.491   6.941   4.134 -0.2128 -1.1264  0.0808
   64MOL   O31348319   3.606   6.910   4.115  0.2004  0.3476  0.0235
   64MOL   N31448320   3.452   7.019   4.240  0.3576  0.4086 -0.2002
   64MOL   C31548321   3.319   7.063   4.283  0.1194 -0.3960 -0.1578
   64MOL   C31648322   3.262   6.954   4.371  0.4156 -0.4227  0.0676
   64MOL   C31748323   3.342   6.929   4.504  0.0860 -0.0120 -0.5396
   64MOL   C31848324   3.294   6.793   4.572  0.1755 -0.5680 -0.0040
   64MOL   C31948325   3.349   6.658   4.522  0.1344  0.3231  0.0836
   64MOL   C32048326   3.287   6.540   4.590 -0.5349  0.3447  0.5465
   64MOL   N32148327   3.326   6.420   4.508  0.0776  0.4766 -0.5858
   64MOL   H32248328   3.313   6.518   3.744  0.7806 -1.7591  0.6112
   64MOL   H32348329   3.434   6.504   3.860  0.7982 -0.4101 -0.7152
   64MOL   H32448330   3.298   6.763   3.785 -0.5426 -1.9018 -1.3899
   64MOL   H32548331   3.259   6.666   3.924  0.1014  0.7759  0.2726
   64MOL   H32648332   3.530   6.817   3.904 -0.2473 -1.3823 -0.1915
   64MOL   H32748333   3.484   6.707   4.023  0.0307 -0.8331  0.0066
   64MOL   H32848334   3.295   6.878   4.070  0.8793 -1.0363  5.3087
   64MOL   H32948335   3.368   6.992   3.963 -1.7506 -2.6356 -2.2150
   64MOL   H33048336   3.527   7.048   4.301 -0.7374  1.6492  0.6028
   64MOL   H33148337   3.319   7.155   4.342  1.3511 -1.8313  2.1743
   64MOL   H33248338   3.255   7.077   4.197 -1.7728  0.4800  1.3557
   64MOL   H33348339   3.154   6.964   4.385  0.1253  1.0597 -2.7014
   64MOL   H33448340   3.269   6.866   4.306 -1.1526  0.3199 -1.1500
   64MOL   H33548341   3.321   7.010   4.575  0.4242  1.8563 -2.5351
   64MOL   H33648342   3.449   6.933   4.484  0.2200 -1.1912 -0.0817
   64MOL   H33748343   3.306   6.798   4.680  0.6748  0.3633 -0.0938
   64MOL   H33848344   3.186   6.781   4.572  0.2960 -1.7084 -0.6591
   64MOL   H33948345   3.341   6.649   4.414 -0.1026 -0.8086  0.1880
   64MOL   H34048346   3.454   6.662   4.551 -0.1409 -1.1637  1.3604
   64MOL   H34148347   3.180   6.559   4.590 -0.6795 -0.4346  1.6198
   64MOL   H34248348   3.317   6.526   4.694  0.9412 -0.1896  0.0681
   64MOL   H34348349   3.263   6.383   4.438  1.4866 -0.7546 -1.2284
   64MOL   C34448350   3.434   6.352   4.531 -0.4889 -0.1992  0.1129
   64MOL   O34548351   3.521   6.379   4.615 -0.3504 -0.7940  0.2330
   64MOL   C34648352   3.439   6.228   4.444 -0.2079  0.0489  0.4750
   64MOL   C34748353   3.573   6.148   4.437  0.7727 -0.0708 -0.5446
   64MOL   C34848354   3.556   5.993   4.465 -0.4239  0.5273 -0.9756
   64MOL   C34948355   3.521   5.951   4.610  0.5674 -0.6363  0.6585
   64MOL   C35048356   3.636   5.993   4.701 -0.1566  0.2446 -0.9963
   64MOL   O35148357   3.758   5.976   4.671  0.2618 -0.0633 -0.0269
   64MOL   N35248358   3.596   6.049   4.817  0.5085 -0.0311 -0.0188
   64MOL   C35348359   3.686   6.096   4.923 -0.0364  0.6696 -0.3692
   64MOL   C35448360   3.642   6.228   4.989 -0.4241  1.0119  0.2183
   64MOL   C35548361   3.741   6.269   5.104  0.3520 -0.0895 -0.0142
   64MOL   C35648362   3.666   6.348   5.213 -0.1164 -0.6153  0.0022
   64MOL   C35748363   3.750   6.385   5.335  1.0379 -0.5264 -0.1337
   64MOL   C35848364   3.815   6.273   5.423 -0.4941  1.2049 -1.3070
   64MOL   N35948365   3.907   6.324   5.531  0.2482 -0.1094  0.0808
   64MOL   H36048366   3.352   6.171   4.476  0.2438 -0.0899  1.5093
   64MOL   H36148367   3.424   6.260   4.341  1.2393  1.0132  0.5372
   64MOL   H36248368   3.604   6.161   4.334  0.1290  2.9926 -0.3957
   64MOL   H36348369   3.645   6.190   4.507 -0.4980  0.0621  0.7124
   64MOL   H36448370   3.655   5.950   4.448 -1.0781 -0.8890 -1.3512
   64MOL   H36548371   3.483   5.954   4.394 -1.4778  0.4809  0.1066
   64MOL   H36648372   3.506   5.843   4.619 -2.6450 -0.2351  0.7281
   64MOL   H36748373   3.426   5.994   4.640 -0.0019 -1.8456  0.6161
   64MOL   H36848374   3.500   6.067   4.844  0.4735 -0.8533  0.4278
   64MOL   H36948375   3.720   6.025   4.998  1.3795  0.2518 -1.3758
   64MOL   H37048376   3.777   6.114   4.866 -0.4721  3.0574 -0.3650
   64MOL   H37148377   3.611   6.303   4.916 -1.1248 -0.1613 -0.7121
   64MOL   H37248378   3.542   6.200   5.024 -1.5124  1.6990 -2.2523
   64MOL   H37348379   3.833   6.318   5.073  0.6884 -0.0338  1.0581
   64MOL   H37448380   3.775   6.172   5.139  1.7406  0.0080 -1.0360
   64MOL   H37548381   3.633   6.443   5.170  0.5696 -0.9533 -1.3037
   64MOL   H37648382   3.575   6.294   5.238 -0.7403  1.1110  1.5848
   64MOL   H37748383   3.815   6.467   5.303  0.0900  0.3649  0.1858
   64MOL   H37848384   3.692   6.441   5.409 -0.6069 -0.7103 -1.2439
   64MOL   H37948385   3.880   6.216   5.357 -1.0731  0.2699 -1.0854
   64MOL   H38048386   3.755   6.189   5.457 -1.6490  2.7270  0.5051
   64MOL   H38148387   3.868   6.318   5.624  1.0801  0.1019  0.4454
   64MOL   C38248388   4.043   6.342   5.519  0.0870 -0.6518  0.5221
   64MOL   O38348389   4.086   6.336   5.407 -0.3231 -0.8133  0.0995
   64MOL   C38448390   4.132   6.369   5.642  0.2428  0.5688  0.2173
   64MOL   C38548391   4.282   6.325   5.626 -0.3506  0.1522 -0.2900
   64MOL   C38648392   4.382   6.438   5.621 -0.5335  0.3548 -0.1011
   64MOL   C38748393   4.375   6.538   5.498  0.2562  0.5752 -0.2500
   64MOL   C38848394   4.303   6.669   5.542  0.4824 -0.1163  0.1041
   64MOL   O38948395   4.350   6.753   5.619  0.0486  0.1668  0.1526
   64MOL   N39048396   4.185   6.685   5.497  0.1595  0.3071  0.6727
   64MOL   C39148397   4.107   6.802   5.535  0.4315  0.5611  0.6908
   64MOL   C39248398   4.004   6.839   5.423 -0.4163  0.1857  0.4368
   64MOL   C39348399   3.906   6.723   5.377 -0.2054  0.3213 -1.3125
   64MOL   C39448400   3.792   6.768   5.277  0.4654 -0.7232 -0.6309
   64MOL   C39548401   3.706   6.878   5.326 -0.1289 -0.4577  0.3515
   64MOL   C39648402   3.755   7.023   5.285  0.3407  0.2337 -0.5526
   64MOL   N39748403   3.671   7.126   5.337 -0.3847  0.2610  0.4754
   64MOL   H39848404   4.115   6.473   5.668 -2.8947  0.3034 -0.5324
   64MOL   H39948405   4.097   6.307   5.726 -1.3277 -0.1932 -0.9699
   64MOL   H40048406   4.297   6.267   5.717 -0.9453  1.0690  0.4034
   64MOL   H40148407   4.277   6.245   5.552 -0.8109  0.0984 -0.2064
   64MOL   H40248408   4.482   6.396   5.632 -1.3337 -1.3410  0.9390
   64MOL   H40348409   4.362   6.497   5.710 -0.5771  1.0032 -0.5368
   64MOL   H40448410   4.316   6.494   5.417 -0.9650  2.6511 -0.5152
   64MOL   H40548411   4.475   6.557   5.459 -0.3955 -2.4249 -3.7114
   64MOL   H40648412   4.147   6.620   5.430  1.7836  0.6738 -0.6270
   64MOL   H40748413   4.049   6.780   5.625 -2.3130  0.1789 -1.0891
   64MOL   H40848414   4.170   6.887   5.559 -0.4332  0.7070  2.5434
   64MOL   H40948415   3.954   6.925   5.467  2.0934  0.2973  3.2470
   64MOL   H41048416   4.052   6.873   5.331 -2.0889  1.2743 -0.0561
   64MOL   H41148417   3.863   6.669   5.461  1.1185 -0.3234 -1.0269
   64MOL   H41248418   3.963   6.640   5.337  0.7968 -0.3174  1.3156
   64MOL   H41348419   3.832   6.797   5.180  0.8958 -1.9920 -0.8302
   64MOL   H41448420   3.718   6.689   5.265 -0.6829  0.4215 -1.1750
   64MOL   H41548421   3.603   6.861   5.295 -0.8367 -1.1354  2.9376
   64MOL   H41648422   3.691   6.875   5.434  0.2849 -0.3037  0.4146
   64MOL   H41748423   3.751   7.020   5.177 -0.4879  0.0379 -0.5193
   64MOL   H41848424   3.861   7.039   5.309  0.7654 -0.1155 -2.1577
   64MOL   H41948425   3.649   7.126   5.436  0.4292  2.4168  0.6665
   64MOL   C42048426   3.613   7.228   5.277 -0.0596 -0.2003  0.4815
   64MOL   O42148427   3.609   7.238   5.156  0.6758 -0.3349  0.1310
   64MOL   C42248428   3.565   7.342   5.372  0.7087 -0.4722 -0.7275
   64MOL   C42348429   3.410   7.360   5.396  0.8448  0.2195 -0.4102
   64MOL   C42448430   3.352   7.255   5.486 -0.0715  1.3873  0.4722
   64MOL   C42548431   3.201   7.236   5.486 -0.3447  0.5561 -0.2084
   64MOL   C42648432   3.153   7.199   5.629 -0.9782 -0.3500 -0.5141
   64MOL   O42748433   3.176   7.268   5.726 -0.2161 -0.3573 -0.2008
   64MOL   N42848434   3.096   7.079   5.642 -0.0564  0.3690 -0.2461
   64MOL   C42948435   3.036   7.038   5.770  0.3719  0.2974  0.4491
   64MOL   C43048436   2.948   6.922   5.738 -0.2782  0.6607  0.3355
   64MOL   C43148437   2.902   6.831   5.850  0.2334  0.1728 -0.1540
   64MOL   C43248438   2.842   6.698   5.791 -0.7264 -0.2768  0.3827
   64MOL   C43348439   2.773   6.599   5.892  0.2675  0.4887  0.2735
   64MOL   C43448440   2.730   6.464   5.830 -0.0226 -0.1537 -0.7746
   64MOL   N43548441   2.706   6.358   5.932  0.1712 -0.5327 -0.5908
   64MOL   H43648442   3.619   7.346   5.467  0.0023 -1.2710 -0.2865
   64MOL   H43748443   3.600   7.438   5.334  0.8248 -0.0719  0.3802
   64MOL   H43848444   3.401   7.462   5.433  0.0883  0.5329 -1.4413
   64MOL   H43948445   3.351   7.357   5.305  0.1768 -0.4156  0.0450
   64MOL   H44048446   3.386   7.279   5.587  0.3139 -0.2206  0.7346
   64MOL   H44148447   3.398   7.160   5.457  2.6602  3.2166 -1.4833
   64MOL   H44248448   3.164   7.161   5.416 -0.2666  2.8750 -2.8569
   64MOL   H44348449   3.149   7.327   5.457  1.8070  2.0870  0.5889
   64MOL   H44448450   3.104   7.013   5.566  1.4585 -0.0460  0.2432
   64MOL   H44548451   3.125   7.001   5.821  0.3183  0.2211  0.4872
   64MOL   H44648452   2.990   7.115   5.832 -0.7035 -0.3996  0.5294
   64MOL   H44748453   2.863   6.941   5.673 -0.4690  1.4382  0.8067
   64MOL   H44848454   2.999   6.848   5.676  2.0158  3.2753 -1.0181
   64MOL   H44948455   2.822   6.883   5.903  0.5426 -0.2488  0.7326
   64MOL   H45048456   2.979   6.801   5.920 -0.3748  0.0940  0.4895
   64MOL   H45148457   2.778   6.711   5.704  1.9742  2.2506 -1.2778
   64MOL   H45248458   2.929   6.644   5.754  0.5867  1.6584  0.6014
   64MOL   H45348459   2.846   6.567   5.967  0.0986 -2.2810 -0.6940
   64MOL   H45448460   2.684   6.642   5.938 -0.6855 -0.4177 -0.7052
   64MOL   H45548461   2.810   6.427   5.766 -0.7786  0.5308 -2.1171
   64MOL   H45648462   2.648   6.461   5.758  0.4966  2.9064 -1.5418
   64MOL   H45748463   2.693   6.388   6.028 -0.3209  0.0449 -0.8376
   64MOL   C45848464   2.641   6.242   5.915 -0.3168  0.3629  0.4050
   64MOL   O45948465   2.614   6.202   5.803  0.1091  0.2992  0.4594
   64MOL   C46048466   2.611   6.158   6.036  0.2002  0.0583 -0.6817
   64MOL   C46148467   2.464   6.160   6.098 -0.8148  0.0091  0.1789
   64MOL   C46248468   2.434   6.294   6.168  0.5653  0.5186 -0.2776
   64MOL   C46348469   2.317   6.272   6.269 -0.0195 -0.3114 -0.2743
   64MOL   C46448470   2.174   6.296   6.220 -0.2786 -0.4225  0.8246
   64MOL   O46548471   2.147   6.288   6.100  0.1510  0.8049 -0.2816
   64MOL   N46648472   2.070   6.315   6.309 -0.5558 -0.0004  0.6987
   64MOL   C46748473   1.928   6.306   6.284 -0.0171  0.1634  0.0752
   64MOL   C46848474   1.867   6.438   6.220 -0.1021 -0.1631 -0.1126
   64MOL   C46948475   1.720   6.430   6.172 -0.4095  0.0900  0.4407
   64MOL   C47048476   1.654   6.560   6.118 -0.3636 -0.0954 -0.4096
   64MOL   C47148477   1.514   6.538   6.057 -0.0827 -0.7094 -0.1257
   64MOL   C47248478   1.464   6.651   5.969  0.7606 -0.2025  0.0875
   64MOL   N47348479   1.477   6.784   6.036 -0.4527  0.3291 -0.0752
   64MOL   H47448480   2.637   6.054   6.013  1.3444 -0.0702  1.0640
   64MOL   H47548481   2.691   6.196   6.100 -1.0881  1.7579 -0.0795
   64MOL   H47648482   2.395   6.141   6.016  0.4165 -0.8236 -0.6822
   64MOL   H47748483   2.468   6.071   6.161  1.7263 -0.3268 -0.3611
   64MOL   H47848484   2.417   6.380   6.103  0.6901  0.2166 -0.7099
   64MOL   H47948485   2.528   6.324   6.216  0.6036 -0.0403  0.0001
   64MOL   H48048486   2.336   6.325   6.363  0.2601  1.5243 -1.3462
   64MOL   H48148487   2.304   6.166   6.290  2.1925 -0.4014  0.8134
   64MOL   H48248488   2.105   6.327   6.403 -0.0607  0.7398  0.4269
   64MOL   H48348489   1.888   6.227   6.221 -1.3987  1.4063 -0.6503
   64MOL   H48448490   1.881   6.269   6.375 -0.3616 -1.5334 -0.7683
   64MOL   H48548491   1.894   6.514   6.294  0.1993 -0.5463  0.1718
   64MOL   H48648492   1.931   6.439   6.132 -0.6588 -0.7863 -0.5298
   64MOL   H48748493   1.659   6.388   6.252 -2.6029  0.3202 -1.0862
   64MOL   H48848494   1.715   6.367   6.084  0.9245 -0.0684  0.4583
   64MOL   H48948495   1.651   6.643   6.188  0.2647 -1.2135  0.9706
   64MOL   H49048496   1.721   6.593   6.038 -0.6555  0.2248 -0.5248
   64MOL   H49148497   1.514   6.443   6.004 -2.2443 -2.1211  2.2642
   64MOL   H49248498   1.453   6.517   6.145  0.3828 -0.0949  0.3478
   64MOL   H49348499   1.357   6.630   5.962  0.9982 -1.0610 -1.0089
   64MOL   H49448500   1.512   6.654   5.871 -1.2368  1.4491 -0.9045
   64MOL   H49548501   1.394   6.801   6.091 -0.9241 -0.2322 -0.5963
   64MOL   C49648502   1.558   6.884   6.003  0.6591  0.2727 -0.7119
   64MOL   O49748503   1.637   6.874   5.906  0.3032 -0.9280  0.3416
   64MOL   C49848504   1.549   7.005   6.091 -0.5645  0.0248 -0.1737
   64MOL   C49948505   1.689   7.043   6.153 -0.2514 -0.2149 -0.1071
   64MOL   C50048506   1.742   6.970   6.275  0.2686  0.1456 -0.6731
   64MOL   C50148507   1.654   6.973   6.399  0.5916 -0.4138 -0.4303
   64MOL   C50248508   1.585   6.842   6.431 -0.6562  0.3930  0.1748
   64MOL   O50348509   1.656   6.745   6.462  0.0804 -0.2015 -0.1574
   64MOL   N50448510   1.457   6.855   6.434  0.3622 -0.1559  0.1132
   64MOL   C50548511   1.365   6.750   6.470  0.9377 -0.0060 -0.2912
   64MOL   C50648512   1.233   6.757   6.387  0.3397  0.1413  0.3039
   64MOL   C50748513   1.139   6.641   6.393  0.1923  0.4580  0.0306
   64MOL   C50848514   1.189   6.511   6.321 -0.1036 -0.5515 -0.1592
   64MOL   C50948515   1.091   6.397   6.336 -0.4064  0.0824 -0.7856
   64MOL   C51048516   1.113   6.284   6.229  0.6177  0.6989 -0.1434
   64MOL   N51148517   1.216   6.199   6.273 -0.7276 -0.6149 -0.7818
   64MOL   H51248518   1.527   7.089   6.026 -2.1064  0.7825  1.2988
   64MOL   H51348519   1.476   7.009   6.172 -0.7971 -2.5547 -0.1974
   64MOL   H51448520   1.768   7.018   6.081  0.6671 -0.4531  0.9777
   64MOL   H51548521   1.704   7.149   6.169  3.3713 -0.5874 -0.5245
   64MOL   H51648522   1.837   7.017   6.302  1.3509 -2.4855  0.2593
   64MOL   H51748523   1.765   6.865   6.257  0.1187  0.2190 -1.3062
   64MOL   H51848524   1.576   7.049   6.403  1.0790  0.0247  2.1414
   64MOL   H51948525   1.719   7.015   6.476 -1.4431 -0.0545  1.1230
   64MOL   H52048526   1.404   6.926   6.386 -0.1129 -0.3512  0.3335
   64MOL   H52148527   1.409   6.650   6.465 -0.7762 -0.8040  0.3997
   64MOL   H52248528   1.343   6.764   6.575  0.7356 -1.5232 -0.1118
   64MOL   H52348529   1.181   6.847   6.421 -1.1845 -0.7586  0.4133
   64MOL   H52448530   1.250   6.759   6.280  1.9422  1.5526  0.5684
   64MOL   H52548531   1.045   6.676   6.350  1.1686  2.1385 -0.7870
   64MOL   H52648532   1.120   6.627   6.499  3.4193  0.6339  0.6725
   64MOL   H52748533   1.198   6.540   6.216 -0.8896 -0.1511 -0.1175
   64MOL   H52848534   1.291   6.491   6.353  0.0640 -0.3953 -0.5937
   64MOL   H52948535   1.108   6.349   6.432 -0.4398  0.6641 -0.4840
   64MOL   H53048536   0.991   6.442   6.339 -0.5142 -0.2356  0.5051
   64MOL   H53148537   1.125   6.322   6.128 -1.1952  1.9674  0.0744
   64MOL   H53248538   1.026   6.218   6.227  2.8048 -2.3248  0.8440
   64MOL   H53348539   1.195   6.121   6.333  1.0031 -1.1047 -0.7624
   64MOL   C53448540   1.344   6.205   6.238  0.3845 -0.4775 -0.4362
   64MOL   O53548541   1.380   6.267   6.137 -0.0165 -0.0795 -0.0470
   64MOL   C53648542   1.447   6.147   6.337 -0.9248 -0.6398 -0.7148
   64MOL   C53748543   1.447   6.216   6.471  0.3299  0.6297 -0.4280
   64MOL   C53848544   1.353   6.174   6.590  0.7394 -0.1949  1.0793
   64MOL   C53948545   1.411   6.170   6.732 -0.7242 -0.2568  0.5241
   64MOL   C54048546   1.470   6.304   6.784 -0.0209  0.0551  0.0653
   64MOL   O54148547   1.577   6.337   6.743  0.5876 -0.3956 -0.3142
   64MOL   N54248548   1.405   6.380   6.875 -0.4069 -0.0954  0.3674
   64MOL   C54348549   1.455   6.510   6.920 -0.4782 -0.3996 -0.1837
   64MOL   C54448550   1.392   6.615   6.825  0.0350  0.2701  0.2860
   64MOL   C54548551   1.440   6.756   6.856 -0.2789  0.3074  0.3176
   64MOL   C54648552   1.590   6.775   6.831  0.1894 -0.1630  0.1380
   64MOL   C54748553   1.627   6.918   6.797  0.4191 -0.5301 -0.2619
   64MOL   C54848554   1.779   6.930   6.799 -0.1938 -0.4484  0.0732
   64MOL   N54948555   1.841   6.884   6.679 -0.4620  0.6112  0.5698
   64MOL   H55048556   1.421   6.042   6.350 -0.1869 -1.0134 -2.1198
   64MOL   H55148557   1.548   6.160   6.296 -0.2781 -2.5051  0.2092
   64MOL   H55248558   1.550   6.223   6.508  0.8338 -1.6202 -1.3729
   64MOL   H55348559   1.416   6.319   6.454 -1.5019  0.0758 -0.5518
   64MOL   H55448560   1.301   6.081   6.570 -2.3220  1.9305 -1.3760
   64MOL   H55548561   1.270   6.246   6.591  0.6836 -0.2556  0.6993
   64MOL   H55648562   1.490   6.095   6.734  1.6790  2.0567 -2.2118
   64MOL   H55748563   1.331   6.134   6.795 -0.7698 -1.4586 -0.2139
   64MOL   H55848564   1.322   6.333   6.909 -0.9159 -1.1312 -2.1526
   64MOL   H55948565   1.417   6.537   7.018  0.5100  0.3115  0.0133
   64MOL   H56048566   1.563   6.522   6.921 -0.6104  1.0743 -1.5806
   64MOL   H56148567   1.426   6.582   6.728 -0.2705  3.1510 -0.8711
   64MOL   H56248568   1.283   6.608   6.827 -0.0865  1.9837  0.9053
   64MOL   H56348569   1.415   6.780   6.959 -0.5975 -0.6281  0.4577
   64MOL   H56448570   1.385   6.818   6.784  2.7407  2.6470 -0.1273
   64MOL   H56548571   1.643   6.754   6.924 -0.2973 -0.8324  0.2719
   64MOL   H56648572   1.622   6.699   6.760  0.2772  0.0602 -0.0613
   64MOL   H56748573   1.592   6.958   6.702  0.3388 -3.0233 -1.3135
   64MOL   H56848574   1.579   6.982   6.872  1.5411 -1.3971  1.2137
   64MOL   H56948575   1.830   6.895   6.889  2.4218  3.5512  0.2746
   64MOL   H57048576   1.805   7.036   6.807 -2.2461  0.0381  0.6770
   64MOL   H57148577   1.786   6.813   6.632  1.3828 -1.0558  0.8740
   64MOL   C57248578   1.959   6.922   6.633 -0.1822 -0.0195  0.3601
   64MOL   O57348579   2.027   7.015   6.681  0.4571  0.2195  0.2584
   64MOL   C57448580   2.009   6.842   6.510  0.5300 -0.0085 -0.0666
   64MOL   C57548581   2.136   6.772   6.540  0.0475 -0.3288 -0.1659
   64MOL   C57648582   2.113   6.638   6.611 -0.6127 -0.4329 -0.5987
   64MOL   C57748583   2.252   6.563   6.615  0.3624  0.3991  0.5647
   64MOL   C57848584   2.244   6.423   6.680 -0.6753 -0.7824  0.1280
   64MOL   O57948585   2.181   6.334   6.623  0.3445 -0.6268  0.0017
   64MOL   N58048586   2.328   6.400   6.786  0.6603 -0.2052  0.1338
   64MOL   C58148587   2.335   6.269   6.862  0.6183 -0.6863 -0.1422
   64MOL   C58248588   2.449   6.182   6.815  0.0317 -0.5612  0.6579
   64MOL   C58348589   2.451   6.042   6.879  0.0366 -0.0973 -0.0134
   64MOL   C58448590   2.570   5.955   6.843 -0.2286 -0.5653  0.5128
   64MOL   C58548591   2.571   5.819   6.917 -0.0429 -0.0731  0.5774
   64MOL   C58648592   2.449   5.726   6.895 -0.4571 -0.3062  0.3938
   64MOL   N58748593   2.480   5.602   6.969 -0.0941 -0.8003  0.1559
   64MOL   H58848594   1.937   6.766   6.479  1.7776 -0.7383 -1.2525
   64MOL   H58948595   2.017   6.913   6.427  3.0251 -2.1921 -1.7991
   64MOL   H59048596   2.179   6.744   6.443 -0.3941  0.6485 -0.6492
   64MOL   H59148597   2.205   6.831   6.600 -0.2613  1.7587 -1.7844
   64MOL   H59248598   2.053   6.580   6.541  0.2010 -0.7380 -1.0513
   64MOL   H59348599   2.056   6.634   6.704 -2.1646  0.8540 -1.4719
   64MOL   H59448600   2.325   6.620   6.671  0.7376 -0.6079  1.1143
   64MOL   H59548601   2.298   6.545   6.518 -1.2913  3.5370 -0.8560
   64MOL   H59648602   2.380   6.483   6.810 -1.5239  1.9525 -2.2694
   64MOL   H59748603   2.329   6.293   6.968  1.3468 -1.5112  0.0938
   64MOL   H59848604   2.240   6.219   6.842 -0.2425  0.8163  0.0986
   64MOL   H59948605   2.450   6.170   6.706 -0.4874  1.2462  0.4390
   64MOL   H60048606   2.543   6.222   6.853  0.6592 -0.2398 -1.1467
   64MOL   H60148607   2.355   5.992   6.862  0.4676 -0.8415 -0.2788
   64MOL   H60248608   2.448   6.052   6.988 -1.4583 -0.3084 -0.0166
   64MOL   H60348609   2.579   5.946   6.735 -0.6020  1.5583  0.3016
   64MOL   H60448610   2.666   5.995   6.876 -0.0702 -0.7164  0.2374
   64MOL   H60548611   2.668   5.778   6.891 -0.0685 -0.0242  0.4071
   64MOL   H60648612   2.591   5.855   7.018  1.0360  0.7110  0.0937
   64MOL   H60748613   2.440   5.709   6.788 -0.5063  3.9038 -0.3740
   64MOL   H60848614   2.357   5.776   6.929 -1.4203 -2.3610  0.9034
   64MOL   H60948615   2.525   5.622   7.057  0.2946 -0.0250 -0.2221
   64MOL   C61048616   2.464   5.472   6.938  0.1660 -0.0924  0.1747
   64MOL   O61148617   2.430   5.436   6.826  0.0787 -0.0672 -0.4637
   64MOL   C61248618   2.494   5.368   7.051  0.5738  0.2708  0.3439
   64MOL   C61348619   2.368   5.286   7.090 -0.6404 -0.1898 -0.5307
   64MOL   C61448620   2.252   5.365   7.148 -0.4237 -0.0167 -0.2452
   64MOL   C61548621   2.117   5.290   7.175 -0.4496 -0.7980  0.9032
   64MOL   C61648622   1.999   5.390   7.209 -0.0631 -0.2883  1.2884
   64MOL   O61748623   2.001   5.441   7.323  0.0055 -0.4205  0.1529
   64MOL   N61848624   1.895   5.391   7.123 -0.3343  0.0028  0.1495
   64MOL   C61948625   1.775   5.470   7.157 -0.5513  0.5922  0.3533
   64MOL   C62048626   1.688   5.397   7.259  0.1478  0.3065 -0.1577
   64MOL   C62148627   1.553   5.457   7.280  0.2393 -0.2637 -0.3015
   64MOL   C62248628   1.486   5.431   7.404  0.2030  0.0873 -0.1658
   64MOL   C62348629   1.422   5.293   7.405  0.9953  0.2221  0.2637
   64MOL   C62448630   1.366   5.265   7.546 -0.0557 -0.6247  0.0973
   64MOL   N62548631   1.280   5.154   7.555 -0.0014  0.7193  0.6154
   64MOL   H62648632   2.564   5.291   7.018 -0.9553  0.0372 -2.4891
   64MOL   H62748633   2.529   5.426   7.137  0.0064  1.0204  0.0766
   64MOL   H62848634   2.327   5.223   7.012  2.1348 -0.4637 -1.8363
   64MOL   H62948635   2.398   5.209   7.161  0.7330  0.6386 -0.1805
   64MOL   H63048636   2.219   5.446   7.083 -0.0287 -0.7041 -1.3211
   64MOL   H63148637   2.293   5.410   7.238  1.3707 -2.4024  0.1774
   64MOL   H63248638   2.138   5.230   7.264 -0.4427 -0.4302  1.1509
   64MOL   H63348639   2.087   5.225   7.093 -1.1470  3.2544 -2.2166
   64MOL   H63448640   1.894   5.335   7.039 -0.6950 -1.4806  1.1232
   64MOL   H63548641   1.809   5.569   7.186 -0.8465  1.7200 -2.9093
   64MOL   H63648642   1.724   5.487   7.062 -1.6651  0.6121  0.9420
   64MOL   H63748643   1.685   5.290   7.238 -0.1364  0.5487 -1.3670
   64MOL   H63848644   1.738   5.403   7.356 -0.7862  1.1533  0.2882
   64MOL   H63948645   1.478   5.447   7.202 -1.1732  0.2569  0.9722
   64MOL   H64048646   1.578   5.563   7.271  0.2800 -0.3977 -1.9780
   64MOL   H64148647   1.547   5.440   7.494 -1.8298  0.6589  1.1968
   64MOL   H64248648   1.403   5.499   7.425  0.2072 -0.0500  0.3137
   64MOL   H64348649   1.341   5.284   7.333  0.3699 -0.1141  1.0026
   64MOL   H64448650   1.496   5.216   7.385  0.5252 -1.1212  3.3616
   64MOL   H64548651   1.313   5.353   7.582 -0.3568  0.1760 -2.2022
   64MOL   H64648652   1.447   5.257   7.618 -1.2901  0.3855  1.6158
   64MOL   H64748653   1.241   5.121   7.468  0.4631 -0.0238  0.6803
   64MOL   C64848654   1.227   5.113   7.665  0.0101  0.4799  0.6484
   64MOL   O64948655   1.270   5.126   0.072  0.1982  0.1758  0.1522
   64MOL   C65048656   1.091   5.046   7.644 -0.4358 -0.1020 -0.7962
   64MOL   C65148657   0.998   5.060   0.056  0.6182 -0.2274  1.3466
   64MOL   C65248658   0.882   4.951   0.051  0.2445 -0.0597  0.0456
   64MOL   C65348659   0.746   5.014   0.036  0.5751 -0.1648  0.2070
   64MOL   C65448660   0.715   5.075   7.609  0.1330 -0.2941 -0.3202
   64MOL   O65548661   0.756   5.018   7.509 -0.0070 -0.4494 -0.3859
   64MOL   N65648662   0.638   5.188   7.614  0.2233  0.0274  0.1058
   64MOL   C65748663   0.588   5.276   7.509 -0.2353  0.5332 -0.4320
   64MOL   C65848664   0.529   5.397   7.574  0.4190 -0.8850  0.5617
   64MOL   C65948665   0.519   5.521   7.489 -0.1094  0.5819  0.1041
   64MOL   C66048666   0.648   5.586   7.455 -0.0327  0.2943 -0.3762
   64MOL   C66148667   0.650   5.737   7.421  0.2326 -0.7035  0.4293
   64MOL   C66248668   0.796   5.795   7.418  0.4372  0.0363 -1.1113
   64MOL   N66348669   0.797   5.934   7.375  0.3229  0.2817  0.1613
   64MOL   H66448670   1.049   5.076   7.548  2.8809  0.6147 -2.0675
   64MOL   H66548671   1.104   4.938   7.640  2.7743  0.2384 -0.9256
   64MOL   H66648672   1.041   5.061   0.156  0.6008  0.2977  1.3502
   64MOL   H66748673   0.955   5.160   0.047  2.5860  0.6852  1.8575
   64MOL   H66848674   0.882   4.892   0.142 -1.9090  1.1031  0.8362
   64MOL   H66948675   0.888   4.875   7.681 -0.6080  1.2850 -1.3565
   64MOL   H67048676   0.729   5.092   0.110  0.8246  1.2011 -1.1752
   64MOL   H67148677   0.671   4.935   0.048 -0.0515  0.3901 -0.0413
   64MOL   H67248678   0.622   5.224   7.707  0.3991  0.6492 -0.1062
   64MOL   H67348679   0.675   5.309   7.453 -0.3643 -1.1875 -1.6676
   64MOL   H67448680   0.521   5.222   7.443  1.6816 -1.3763 -0.8528
   64MOL   H67548681   0.428   5.378   7.611  0.2837 -3.7745 -1.1587
   64MOL   H67648682   0.586   5.415   7.666 -1.9601  0.9018  1.7450
   64MOL   H67748683   0.460   5.593   7.545 -0.3890 -0.4077  1.1179
   64MOL   H67848684   0.452   5.512   7.404 -0.2846 -1.5538  0.4374
   64MOL   H67948685   0.725   5.560   7.527 -2.3541 -0.2972  1.9496
   64MOL   H68048686   0.686   5.531   7.369 -0.4867  0.0852 -0.4453
   64MOL   H68148687   0.618   5.760   7.319  1.7228 -0.9579 -0.1098
   64MOL   H68248688   0.573   5.795   7.472 -0.5797  0.0516 -1.6230
   64MOL   H68348689   0.852   5.726   7.354 -0.4773 -1.5026 -0.2856
   64MOL   H68448690   0.831   5.792   7.521 -0.3662 -3.4527 -0.8869
   64MOL   H68548691   0.713   5.987   7.355 -0.9788 -0.9359  2.2175
   64MOL   C68648692   0.909   6.010   7.381 -0.3110  0.7580  0.2108
   64MOL   O68748693   1.022   5.960   7.396  0.2316  0.3328 -0.1445
   64MOL   C68848694   0.878   6.160   7.376  0.0767 -0.8398 -0.0329
   64MOL   C68948695   0.998   6.245   7.360 -0.0538  0.4661  0.1436
   64MOL   C69048696   0.978   6.391   7.380 -0.0864 -0.9738  0.1335
   64MOL   C69148697   1.101   6.480   7.367  0.6729  0.0762 -0.1544
   64MOL   C69248698   1.063   6.629   7.363  0.4998 -0.1983  0.6153
   64MOL   O69348699   0.946   6.666   7.382  0.6300 -0.1227  0.6708
   64MOL   N69448700   1.158   6.718   7.331  0.3453  0.4539 -0.3012
   64MOL   C69548701   1.164   6.861   7.356 -0.0985  0.4479 -0.2583
   64MOL   C69648702   1.198   6.891   7.504 -0.1928 -0.2531  0.6149
   64MOL   C69748703   1.230   7.037   7.527  0.4652 -0.2332 -0.1615
   64MOL   C69848704   1.292   7.059   7.669 -0.7323  0.2073  0.6597
   64MOL   C69948705   1.288   7.207   0.019 -0.0640  0.9661 -0.0372
   64MOL   C70048706   1.161   7.234   0.103 -0.5850 -0.2297 -0.2161
   64MOL   N70148707   1.147   7.374   0.139 -0.3029 -0.0003  0.0541
   64MOL   H70248708   0.812   6.180   7.291 -0.4211  1.3146  0.8062
   64MOL   H70348709   0.813   6.189   7.459  0.7334 -1.4561  0.6959
   64MOL   H70448710   1.058   6.216   7.446 -1.6992 -2.1740  0.4550
   64MOL   H70548711   1.049   6.221   7.267 -1.1261 -0.0466 -0.3240
   64MOL   H70648712   0.935   6.393   7.480  0.3267 -1.5645  0.3252
   64MOL   H70748713   0.898   6.416   7.311 -0.6566  2.0448  1.7780
   64MOL   H70848714   1.134   6.450   7.267 -2.1858 -2.1122 -0.5022
   64MOL   H70948715   1.179   6.443   7.433 -0.8839  0.2987  1.8388
   64MOL   H71048716   1.251   6.679   7.331  0.1195 -0.0883 -0.2040
   64MOL   H71148717   1.233   6.904   7.283  0.2161  0.9982  0.3562
   64MOL   H71248718   1.069   6.913   7.347 -0.0273  0.2094 -2.6911
   64MOL   H71348719   1.107   6.871   7.561  0.4731 -1.8667  1.1580
   64MOL   H71448720   1.275   6.819   7.532  0.1329 -0.3016 -0.3921
   64MOL   H71548721   1.140   7.098   7.529  0.8204  0.2986 -0.1522
   64MOL   H71648722   1.305   7.080   7.461  0.9349 -0.8919 -0.0644
   64MOL   H71748723   1.248   6.996   0.037 -1.2854  0.7323  0.7777
   64MOL   H71848724   1.395   7.025   7.658 -1.0955  0.0375 -2.7467
   64MOL   H71948725   1.375   7.246   0.072 -0.1255  0.1394  0.6804
   64MOL   H72048726   1.273   7.271   7.640 -0.7767  1.3279  0.3493
   64MOL   H72148727   1.156   7.183   0.199  1.0377 -0.6320 -0.3255
   64MOL   H72248728   1.075   7.219   0.038  0.2045 -1.1080 -1.0744
   64MOL   H72348729   1.228   7.435   0.128 -0.1425 -0.1124  0.5880
   64MOL   C72448730   1.038   7.414   0.202 -0.3029  0.5337  0.6527
   64MOL   O72548731   0.946   7.350   0.232  0.4374  0.1416  0.1830
   64MOL   C72648732   1.038   7.568   0.209  0.3717  0.0864  0.5424
   64MOL   C72748733   0.970   7.632   0.084  0.2244 -0.0529 -0.8011
   64MOL   C72848734   0.829   7.698   0.114 -0.0850 -0.5028  0.2625
   64MOL   C72948735   0.734   0.030   7.693  1.2105  0.1435  0.7055
   64MOL   C73048736   0.804   0.141   7.611  0.3268  0.6670 -0.0880
   64MOL   O73148737   0.816   0.257   7.650  0.1194 -0.2655  0.2178
   64MOL   N73248738   0.866   0.097   7.495  0.0579 -0.0488  0.2375
   64MOL   C73348739   0.944   0.190   7.403  0.1122 -0.2544 -0.9329
   64MOL   C73448740   1.087   0.219   7.460 -0.2641  0.1793  0.4807
   64MOL   C73548741   1.167   0.091   7.456  0.4415  0.0109  0.2365
   64MOL   C73648742   1.319   0.102   7.492 -0.2837 -0.3713 -0.1908
   64MOL   C73748743   1.383   7.679   7.548  0.0840  0.6491 -0.6302
   64MOL   C73848744   1.320   7.627   7.682 -0.3481 -0.3722 -0.1489
   64MOL   N73948745   1.409   7.530   0.039 -0.3980  0.0737  1.2766
   64MOL   H74048746   0.973   7.595   0.293 -1.4584 -1.0862 -0.4597
   64MOL   H74148747   1.134   7.605   0.245 -0.4084 -0.6334  3.5358
   64MOL   H74248748   1.040   7.699   0.035  0.1457  0.9664  0.4643
   64MOL   H74348749   0.950   7.550   0.015  0.9236  0.0603 -1.1464
   64MOL   H74448750   0.830   0.084   0.169  0.9828 -1.9291  2.7568
   64MOL   H74548751   0.770   7.635   0.181  0.9360 -0.8484  0.8381
   64MOL   H74648752   0.630   0.050   0.009  0.5453 -0.4343 -1.5389
   64MOL   H74748753   0.728   7.649   7.631  0.1844 -0.5191  1.7418
   64MOL   H74848754   0.855   0.002   7.463  0.8001  0.1663 -0.6746
   64MOL   H74948755   0.943   0.151   7.301  1.8701  0.6138 -1.2950
   64MOL   H75048756   0.885   0.281   7.389  1.6911  0.9695  0.1544
   64MOL   H75148757   1.150   0.295   7.415  0.8493 -1.5655 -0.9917
   64MOL   H75248758   1.064   0.245   7.563  0.0818 -1.8738  1.0990
   64MOL   H75348759   1.164   0.049   7.355 -3.3933  0.8861 -0.1058
   64MOL   H75448760   1.124   0.012   7.517  0.2341 -1.5325 -1.8332
   64MOL   H75548761   1.358   0.134   7.396 -0.8816 -0.3995 -0.4442
   64MOL   H75648762   1.345   0.183   7.560  0.2502 -1.0470  0.4316
   64MOL   H75748763   1.357   7.609   7.470 -1.3543  0.2386  0.1971
   64MOL   H75848764   1.489   7.687   7.572 -0.1572 -0.1975  0.8065
   64MOL   H75948765   1.225   7.573   7.670  1.1819 -3.3189  0.4029
   64MOL   H76048766   1.313   0.006   0.039 -2.6862 -2.1098  2.0692
   64MOL   H76148767   1.412   7.444   7.695 -0.3449  0.8768 -0.0494
   64MOL   H76248768   1.505   7.559   0.032 -0.2389 -0.5382  0.8422
   65MOL     C148769   5.202   2.802   3.430  0.0910  0.1622  0.2663
   65MOL     O248770   5.165   2.914   3.423 -0.1473  0.2689 -0.6261
   65MOL     C348771   5.168   2.736   3.562  0.2749 -0.4473  0.6950
   65MOL     C448772   5.270   2.624   3.589  0.4484 -0.5572 -1.0752
   65MOL     C548773   5.410   2.670   3.633 -0.0731  0.6415  0.1401
   65MOL     C648774   5.521   2.565   3.656 -0.6629 -0.3028 -0.1778
   65MOL     C748775   5.589   2.523   3.523  0.3331 -0.3290  0.4814
   65MOL     O848776   5.537   2.530   3.411  0.6418  0.2047  0.2782
   65MOL     N948777   5.717   2.469   3.535 -0.4711 -0.6014  0.3216
   65MOL    C1048778   5.788   2.397   3.432 -0.0076  0.1446 -0.3768
   65MOL    C1148779   5.929   2.357   3.474 -0.1361  0.7156  0.6505
   65MOL    C1248780   6.016   2.305   3.358 -0.3011 -0.5594  0.5897
   65MOL    C1348781   6.150   2.247   3.409 -0.2326 -0.5008 -0.0590
   65MOL    C1448782   6.254   2.352   3.470 -0.2995  0.0137 -0.6954
   65MOL    C1548783   6.393   2.288   3.512  0.6057  0.4354 -0.1714
   65MOL    N1648784   6.375   2.175   3.602  0.3271 -0.2920  0.2751
   65MOL    H1748785   5.175   2.806   3.646 -0.9983  0.9245 -0.3104
   65MOL    H1848786   5.065   2.701   3.549 -0.9226  1.9629  3.0476
   65MOL    H1948787   5.239   2.553   3.666 -2.6940  1.1803 -0.6239
   65MOL    H2048788   5.276   2.566   3.497  1.0745 -1.7376 -0.3045
   65MOL    H2148789   5.395   2.711   3.733 -1.6848  0.2498  0.0629
   65MOL    H2248790   5.448   2.753   3.573  0.7259  2.2834  2.8013
   65MOL    H2348791   5.489   2.474   3.708  1.0563  0.2553  1.9320
   65MOL    H2448792   5.602   2.606   3.717 -1.1814  0.0738  0.2654
   65MOL    H2548793   5.754   2.476   3.629  0.7309  2.8772 -0.3566
   65MOL    H2648794   5.734   2.308   3.402  2.9787 -0.7963 -3.2507
   65MOL    H2748795   5.791   2.452   3.338  0.1260 -0.6710 -0.8546
   65MOL    H2848796   5.985   2.441   3.516  3.1877  0.2683 -2.5475
   65MOL    H2948797   5.925   2.286   3.556 -1.5271 -0.0245 -0.0423
   65MOL    H3048798   6.043   2.386   3.290 -2.3663 -0.5273 -0.2330
   65MOL    H3148799   5.975   2.221   3.301  1.8526 -0.6332 -0.9167
   65MOL    H3248800   6.140   2.166   3.481  0.5220 -2.4098 -2.0668
   65MOL    H3348801   6.201   2.196   3.327  0.9898  0.2375  0.2168
   65MOL    H3448802   6.259   2.445   3.413 -1.4902  1.3227  1.2353
   65MOL    H3548803   6.205   2.391   3.560  0.5689 -0.1992 -0.1211
   65MOL    H3648804   6.458   2.368   3.546  0.7456  1.5774 -3.0471
   65MOL    H3748805   6.438   2.254   3.419 -0.8458  1.0397 -1.1159
   65MOL    H3848806   6.327   2.090   3.575  2.5044 -1.6468  0.5385
   65MOL    H3948807   5.259   2.743   3.358  0.6174  0.2540  0.6008
   65MOL    C4048808   6.445   2.161   3.717 -0.5391  0.6103 -0.3455
   65MOL    O4148809   6.522   2.243   3.765 -0.5525 -0.0494  0.0351
   65MOL    C4248810   6.415   2.022   3.792 -0.0061 -0.2937  0.6264
   65MOL    C4348811   6.276   2.033   3.865  0.2987 -0.5862  0.5034
   65MOL    C4448812   6.147   2.006   3.790 -0.5648 -0.3220  0.1020
   65MOL    C4548813   6.022   2.023   3.880  0.1668  0.4830 -0.6244
   65MOL    C4648814   5.889   1.984   3.811  0.4086  0.7373  0.0619
   65MOL    O4748815   5.850   1.865   3.817 -0.3910  0.2216  0.1905
   65MOL    N4848816   5.819   2.083   3.746 -0.4372  0.0705 -0.5182
   65MOL    C4948817   5.701   2.064   3.664  0.8825 -0.0788 -0.1454
   65MOL    C5048818   5.582   2.140   3.724 -0.5051  0.1565  0.5766
   65MOL    C5148819   5.473   2.139   3.616  0.1078 -0.1190 -0.0663
   65MOL    C5248820   5.338   2.194   3.667 -0.8575 -0.3862 -0.0987
   65MOL    C5348821   5.223   2.172   3.572  0.6693  0.0019 -0.1597
   65MOL    C5448822   5.091   2.217   3.626 -0.2890 -0.2246 -0.6045
   65MOL    N5548823   4.974   2.219   3.528  0.7759  0.0522 -0.3743
   65MOL    H5648824   6.395   1.944   3.720  0.8644  0.0558  0.0063
   65MOL    H5748825   6.489   1.997   3.868  0.6156 -0.5205 -0.0595
   65MOL    H5848826   6.275   1.958   3.944 -1.1247 -0.6887  0.4005
   65MOL    H5948827   6.281   2.131   3.913 -1.6907 -0.0199 -0.3881
   65MOL    H6048828   6.151   1.908   3.741 -0.7264 -0.7696  0.9598
   65MOL    H6148829   6.127   2.069   3.704 -1.9876 -1.7297 -0.6443
   65MOL    H6248830   6.008   2.129   3.901 -0.3868 -0.1141  2.2441
   65MOL    H6348831   6.033   1.983   3.980  1.9570  0.7176 -0.7140
   65MOL    H6448832   5.863   2.174   3.737  0.5975 -0.2154  1.4812
   65MOL    H6548833   5.717   2.096   3.561  2.3183  2.1567  0.7512
   65MOL    H6648834   5.680   1.957   3.653 -3.1202  0.3549  2.1465
   65MOL    H6748835   5.542   2.093   3.814 -1.2531  1.8043  1.1272
   65MOL    H6848836   5.603   2.242   3.755 -0.6830  1.1597 -2.4946
   65MOL    H6948837   5.463   2.033   3.594  0.3356  0.2268 -1.9870
   65MOL    H7048838   5.505   2.186   3.523  0.1808  0.8182  0.4203
   65MOL    H7148839   5.302   2.149   3.759 -0.0882 -1.8203 -0.4872
   65MOL    H7248840   5.348   2.300   3.693 -2.0636 -1.0049  3.1389
   65MOL    H7348841   5.240   2.218   3.474 -1.0570 -0.8043 -0.8622
   65MOL    H7448842   5.218   2.065   3.551 -1.9707 -0.0254  0.3545
   65MOL    H7548843   5.116   2.320   3.652 -1.7287  0.4344 -1.7166
   65MOL    H7648844   5.062   2.168   3.719 -3.3139  1.3715 -0.6327
   65MOL    H7748845   4.957   2.136   3.474 -1.4134 -0.2340  0.6988
   65MOL    C7848846   4.895   2.325   3.499  0.0109  0.9480 -0.1047
   65MOL    O7948847   4.905   2.431   3.559 -0.1338  0.0300 -0.5456
   65MOL    C8048848   4.778   2.298   3.405 -0.2295 -0.7608 -0.3460
   65MOL    C8148849   4.645   2.293   3.475 -0.2657 -0.1229 -0.2494
   65MOL    C8248850   4.624   2.176   3.570  0.0668  0.3568 -0.9962
   65MOL    C8348851   4.509   2.202   3.660  0.9074 -0.4099  0.3517
   65MOL    C8448852   4.464   2.091   3.766 -1.0455 -0.5408  0.1898
   65MOL    O8548853   4.351   2.102   3.811  0.4587  0.4049 -0.0361
   65MOL    N8648854   4.563   2.005   3.793 -0.0886  0.1379  0.4833
   65MOL    C8748855   4.557   1.896   3.890  0.0376 -0.4635 -0.1837
   65MOL    C8848856   4.626   1.769   3.835  0.6018  0.2061 -0.1369
   65MOL    C8948857   4.573   1.642   3.897  0.8963  0.2741  0.0934
   65MOL    C9048858   4.634   1.501   3.857  0.6719 -0.0308  0.3424
   65MOL    C9148859   4.540   1.418   3.777 -0.2327 -0.4037 -0.5794
   65MOL    C9248860   4.505   1.480   3.642 -0.5161  0.6763  0.0994
   65MOL    N9348861   4.436   1.384   3.565 -0.1868 -0.3107  0.2127
   65MOL    H9448862   4.783   2.369   3.322 -1.1829 -1.2277 -0.8137
   65MOL    H9548863   4.793   2.203   3.354 -3.8804 -1.9393  0.6052
   65MOL    H9648864   4.641   2.378   3.543  0.1713 -1.5507  1.6075
   65MOL    H9748865   4.566   2.286   3.400  0.3722 -0.6113 -0.8734
   65MOL    H9848866   4.715   2.167   3.630 -0.7260  1.9833  0.4905
   65MOL    H9948867   4.614   2.082   3.516 -1.7035  0.9216 -1.6700
   65MOL   H10048868   4.419   2.228   3.605  0.5554 -1.7505  0.2825
   65MOL   H10148869   4.541   2.296   3.707 -1.3190  1.5614 -1.9646
   65MOL   H10248870   4.649   2.023   3.743 -0.0376 -0.8105  0.2294
   65MOL   H10348871   4.587   1.923   3.991  2.0458  1.6951 -1.3242
   65MOL   H10448872   4.452   1.873   3.910 -0.2605  1.7739  0.9083
   65MOL   H10548873   4.593   1.763   3.732  1.9801 -3.3981 -0.4474
   65MOL   H10648874   4.735   1.774   3.836  0.6172 -0.2178  0.7643
   65MOL   H10748875   4.464   1.638   3.888  0.9669  1.3824 -1.2307
   65MOL   H10848876   4.607   1.653   4.000 -1.2975  2.2455  0.6535
   65MOL   H10948877   4.731   1.508   3.809 -0.0974  0.6008 -1.1354
   65MOL   H11048878   4.646   1.435   3.943 -1.4826 -1.3073 -0.2951
   65MOL   H11148879   4.573   1.314   3.775 -0.4700 -0.4874 -0.2406
   65MOL   H11248880   4.445   1.407   3.831  0.7776 -1.3308  1.0612
   65MOL   H11348881   4.598   1.509   3.593 -0.0568  1.7668  1.5618
   65MOL   H11448882   4.444   1.569   3.661 -1.8475 -0.1640 -0.2209
   65MOL   H11548883   4.460   1.291   3.597 -0.6251 -0.4622  0.1081
   65MOL   C11648884   4.360   1.404   3.461 -0.1473  0.0923  0.1745
   65MOL   O11748885   4.334   1.510   3.415  0.3214  0.1935 -1.2029
   65MOL   C11848886   4.331   1.281   3.379 -0.1249 -0.1800 -0.9526
   65MOL   C11948887   4.225   1.294   3.269  0.0629 -0.2276 -0.1256
   65MOL   C12048888   4.084   1.340   3.311  0.3449  0.1480  0.1095
   65MOL   C12148889   3.988   1.334   3.190 -0.1407 -0.3173  0.5990
   65MOL   C12248890   3.845   1.369   3.223 -0.1397  0.3351  0.0678
   65MOL   O12348891   3.754   1.303   3.172 -0.7547  0.6748 -0.6819
   65MOL   N12448892   3.822   1.474   3.309 -0.4087  0.3010 -0.4161
   65MOL   C12548893   3.692   1.537   3.339  0.0705 -0.0019 -0.5434
   65MOL   C12648894   3.718   1.649   3.444 -0.6591 -0.3386 -0.2885
   65MOL   C12748895   3.598   1.741   3.466  0.0898 -0.1795 -0.2454
   65MOL   C12848896   3.601   1.819   3.600  0.4059 -0.0362  0.1427
   65MOL   C12948897   3.707   1.935   3.593  0.0746 -0.4228  0.7685
   65MOL   C13048898   3.738   1.998   3.725 -0.1066  0.6284  0.8118
   65MOL   N13148899   3.834   2.108   3.696 -0.0453 -0.2156 -0.7940
   65MOL   H13248900   4.424   1.243   3.337 -0.0550 -1.0099 -0.0887
   65MOL   H13348901   4.313   1.196   3.446 -3.2120  1.1885  0.0460
   65MOL   H13448902   4.266   1.357   3.190 -0.3447  1.0475  0.6562
   65MOL   H13548903   4.218   1.190   3.239  1.8052 -0.1552 -0.8356
   65MOL   H13648904   4.077   1.433   3.367  2.0679  0.4217 -0.1254
   65MOL   H13748905   4.053   1.266   3.385 -2.6696 -2.0011 -3.1194
   65MOL   H13848906   4.006   1.237   3.143  1.0910 -0.5851  1.5866
   65MOL   H13948907   4.006   1.411   3.115 -2.0824 -0.1335  0.3016
   65MOL   H14048908   3.900   1.512   3.361  0.2395  0.1645 -1.2942
   65MOL   H14148909   3.660   1.570   3.241  2.0534 -1.4511 -1.7155
   65MOL   H14248910   3.626   1.456   3.372 -2.8693  2.1774 -0.9096
   65MOL   H14348911   3.736   1.599   3.539 -1.1656  1.0141  0.5399
   65MOL   H14448912   3.805   1.711   3.420 -0.7189 -1.0452 -2.4843
   65MOL   H14548913   3.504   1.687   3.460 -0.1113  0.1380 -0.0040
   65MOL   H14648914   3.586   1.810   3.382 -1.9860 -1.6766 -1.2055
   65MOL   H14748915   3.502   1.842   3.639  0.1615 -0.5296 -0.1844
   65MOL   H14848916   3.633   1.745   3.673 -2.8607 -2.5671 -0.8933
   65MOL   H14948917   3.795   1.882   3.555  0.3360  0.6681 -0.1700
   65MOL   H15048918   3.673   2.012   3.524 -1.0233 -0.1879  1.5689
   65MOL   H15148919   3.775   1.918   3.789 -0.6425 -0.7077 -0.5311
   65MOL   H15248920   3.653   2.037   3.781 -1.1173  0.4192 -0.5603
   65MOL   H15348921   3.931   2.091   3.715 -0.3843  0.2999  1.6592
   65MOL   C15448922   3.802   2.238   3.714 -0.3170  0.5199  0.3722
   65MOL   O15548923   3.686   2.273   3.727  0.3915 -0.5182 -0.0709
   65MOL   C15648924   3.920   2.333   3.722  0.0498  0.2320  0.6033
   65MOL   C15748925   3.865   2.475   3.688 -1.1169 -0.1023  0.3530
   65MOL   C15848926   3.969   2.558   3.623  0.4778  0.4689  1.2131
   65MOL   C15948927   3.939   2.707   3.640 -0.2922  0.2677  0.6605
   65MOL   C16048928   3.983   2.769   3.770  0.2687 -0.0396 -0.3061
   65MOL   O16148929   4.059   2.708   3.844  0.1519  0.1488  0.1491
   65MOL   N16248930   3.943   2.895   3.796 -0.6268  0.0320  0.2196
   65MOL   C16348931   3.999   2.983   3.902 -0.0768  0.1951 -0.1378
   65MOL   C16448932   3.901   3.110   3.917  0.6463  0.4101 -0.5333
   65MOL   C16548933   3.757   3.074   3.967  0.0195  0.5423 -0.3882
   65MOL   C16648934   3.650   3.182   3.939 -0.3336  0.0998 -0.1699
   65MOL   C16748935   3.517   3.121   3.983 -0.4223  0.3037  0.2325
   65MOL   C16848936   3.413   3.228   3.979  0.4421  0.3089  0.5475
   65MOL   N16948937   3.280   3.170   3.978 -0.3101 -0.3743  0.2515
   65MOL   H17048938   3.981   2.326   3.812  0.0869 -0.8365  0.5013
   65MOL   H17148939   3.984   2.299   3.641 -0.1153  1.8960 -0.2462
   65MOL   H17248940   3.782   2.477   3.618 -0.9137 -0.1819  0.1072
   65MOL   H17348941   3.820   2.522   3.776  1.1950  1.5373  0.7046
   65MOL   H17448942   3.977   2.522   3.520  2.6611  0.4320  1.3809
   65MOL   H17548943   4.065   2.534   3.669  0.4510  1.7694  1.9784
   65MOL   H17648944   3.835   2.730   3.620 -0.2469 -2.0941 -2.6507
   65MOL   H17748945   4.002   2.764   3.572 -0.1139 -2.1940 -1.3083
   65MOL   H17848946   3.889   2.946   3.728  0.9845 -0.2656 -1.3156
   65MOL   H17948947   4.011   2.931   3.998  0.6337 -0.3831 -0.5337
   65MOL   H18048948   4.099   3.001   3.865  1.0615 -2.9658  1.1931
   65MOL   H18148949   3.935   3.195   3.976  2.9341 -0.8081 -0.0154
   65MOL   H18248950   3.901   3.149   3.815  0.8936 -0.8447 -1.0343
   65MOL   H18348951   3.760   3.055   4.074 -0.1687  0.9312 -0.3126
   65MOL   H18448952   3.718   2.976   3.941 -1.6633  0.9247  0.6558
   65MOL   H18548953   3.674   3.267   4.002 -3.4879  1.1511 -0.2931
   65MOL   H18648954   3.652   3.217   3.836  1.5319  1.8482  0.4330
   65MOL   H18748955   3.476   3.047   3.913  0.3920 -1.2124  1.3243
   65MOL   H18848956   3.521   3.068   4.079 -0.3931 -1.6950 -0.8391
   65MOL   H18948957   3.424   3.292   3.892  0.2576  0.5354  0.6894
   65MOL   H19048958   3.426   3.276   4.076 -1.3776  2.7500 -0.3549
   65MOL   H19148959   3.255   3.096   4.042  0.9063 -0.9051  0.1175
   65MOL   C19248960   3.195   3.173   3.881 -0.6410 -0.8331  0.6910
   65MOL   O19348961   3.216   3.238   3.781  0.5033 -0.3621 -0.2223
   65MOL   C19448962   3.067   3.084   3.890 -0.0925 -0.5701 -0.0744
   65MOL   C19548963   2.981   3.083   3.761 -0.0520 -1.3233  0.0285
   65MOL   C19648964   3.034   2.983   3.658 -0.8193 -0.5051  0.7723
   65MOL   C19748965   2.978   2.988   3.517  0.0966 -0.3888  0.0127
   65MOL   C19848966   2.831   2.959   3.502 -0.2369 -0.4307  0.5664
   65MOL   O19948967   2.749   3.008   3.579 -0.1339 -0.0045 -0.1501
   65MOL   N20048968   2.794   2.876   3.403 -0.0814  0.3349 -0.0105
   65MOL   C20148969   2.663   2.816   3.395 -0.6043  0.2025  0.9181
   65MOL   C20248970   2.654   2.682   3.475 -0.1979 -1.0552 -0.9058
   65MOL   C20348971   2.510   2.622   3.493 -0.6600  0.0853  0.4460
   65MOL   C20448972   2.420   2.695   3.589  0.5271  0.1678  0.4017
   65MOL   C20548973   2.273   2.642   3.600  0.0177 -0.0722  0.5024
   65MOL   C20648974   2.189   2.730   3.690  0.2578  0.3969 -0.3726
   65MOL   N20748975   2.050   2.686   3.693 -0.0296 -0.4818 -0.0723
   65MOL   H20848976   3.094   2.984   3.926 -0.3182 -0.7822 -0.4950
   65MOL   H20948977   3.007   3.124   3.972  0.3611  1.8996 -0.9198
   65MOL   H21048978   2.881   3.046   3.782 -1.0711  1.3220 -0.0033
   65MOL   H21148979   2.974   3.184   3.719 -0.8351 -0.5725  1.8703
   65MOL   H21248980   3.026   2.882   3.698  1.0100 -1.0209 -0.1009
   65MOL   H21348981   3.142   2.999   3.651 -0.4431 -2.4904  1.9344
   65MOL   H21448982   3.032   2.903   3.475 -1.4316 -0.9213 -0.8966
   65MOL   H21548983   3.013   3.066   3.448 -1.4184  0.6116  0.3673
   65MOL   H21648984   2.874   2.863   3.342 -0.8408  2.4432 -1.5286
   65MOL   H21748985   2.594   2.888   3.438 -2.7306 -2.7536  2.7063
   65MOL   H21848986   2.635   2.807   3.291  2.9572  0.8010 -0.1679
   65MOL   H21948987   2.708   2.608   3.416 -0.1740 -0.4258 -1.6923
   65MOL   H22048988   2.706   2.683   3.570 -1.8248 -0.0389  0.0046
   65MOL   H22148989   2.517   2.516   3.519  1.7278  0.1447  0.1458
   65MOL   H22248990   2.461   2.611   3.396  3.0994 -0.2814 -1.4836
   65MOL   H22348991   2.468   2.706   3.686 -1.0914  0.5936  1.1513
   65MOL   H22448992   2.421   2.799   3.555 -0.5646  0.1692  0.3785
   65MOL   H22548993   2.232   2.636   3.499 -1.9949 -0.0591  1.3147
   65MOL   H22648994   2.273   2.544   3.647  0.8679 -0.6675 -0.6903
   65MOL   H22748995   2.198   2.836   3.666 -0.0024  0.2982 -0.9175
   65MOL   H22848996   2.213   2.723   3.796  2.2354 -1.4158 -0.9148
   65MOL   H22948997   2.021   2.625   3.768 -1.9662  0.3702 -0.1024
   65MOL   C23048998   1.969   2.697   3.591  0.3702  0.0408  0.4716
   65MOL   O23148999   2.001   2.760   3.489 -0.0017  0.4655  0.3550
   65MOL   C23249000   1.841   2.620   3.601 -0.3652 -0.2091 -0.1573
   65MOL   C23349001   1.745   2.640   3.481 -0.7645  1.0243 -0.6264
   65MOL   C23449002   1.695   2.517   3.414  1.0350 -0.0705  0.3966
   65MOL   C23549003   1.587   2.550   3.302  0.4148 -0.3496 -0.3322
   65MOL   C23649004   1.556   2.421   3.214  0.4944  0.3912  0.5428
   65MOL   O23749005   1.625   2.321   3.235  1.0501  0.2277 -0.2100
   65MOL   N23849006   1.449   2.417   3.129 -0.6516 -0.4666 -0.4543
   65MOL   C23949007   1.412   2.304   3.042 -0.2770 -0.2746  0.3831
   65MOL   C24049008   1.315   2.208   3.108  0.0951 -0.0802 -0.6522
   65MOL   C24149009   1.298   2.072   3.036  0.7285  0.1873 -0.5391
   65MOL   C24249010   1.204   1.971   3.110 -0.0780  0.7884 -0.5513
   65MOL   C24349011   1.051   2.004   3.109  0.1603  0.2796 -0.4298
   65MOL   C24449012   0.976   1.899   3.197  0.2331 -0.1096  1.0022
   65MOL   N24549013   0.971   1.759   3.148 -0.1546 -0.1525  0.8431
   65MOL   H24649014   1.864   2.514   3.607  0.4690  0.0073  0.6309
   65MOL   H24749015   1.795   2.646   3.697  0.1452 -1.4278  0.4178
   65MOL   H24849016   1.664   2.706   3.512 -1.5120  0.1819 -0.7668
   65MOL   H24949017   1.780   2.695   3.394 -0.2090  0.2183 -0.9193
   65MOL   H25049018   1.657   2.449   3.490 -1.0867  0.9009  0.2352
   65MOL   H25149019   1.782   2.466   3.373  0.7491 -1.7616  1.7946
   65MOL   H25249020   1.632   2.632   3.246 -0.2418  1.1180  1.2523
   65MOL   H25349021   1.501   2.601   3.346 -0.1876 -2.5173  1.1251
   65MOL   H25449022   1.381   2.492   3.131 -1.1347 -0.9186  0.3200
   65MOL   H25549023   1.377   2.340   2.946  1.0248  0.0664  0.0350
   65MOL   H25649024   1.508   2.258   3.017  0.0499  0.0035  1.0992
   65MOL   H25749025   1.334   2.200   3.216  0.6172  3.3033 -0.4503
   65MOL   H25849026   1.219   2.258   3.116  0.5377  0.5309  1.1956
   65MOL   H25949027   1.392   2.018   3.024 -0.7704 -2.6982  0.1259
   65MOL   H26049028   1.262   2.097   2.936 -1.7529  3.7605  1.1198
   65MOL   H26149029   1.217   1.871   3.070 -1.5132  0.3400  0.0583
   65MOL   H26249030   1.241   1.962   3.212  2.2594  0.7818 -1.3751
   65MOL   H26349031   1.030   2.101   3.155 -2.7484 -0.4778 -0.0433
   65MOL   H26449032   1.016   2.002   3.006  1.7196 -0.1238 -0.9678
   65MOL   H26549033   0.874   1.934   3.208 -0.0394 -1.1245  1.8273
   65MOL   H26649034   1.013   1.886   3.299 -0.1140 -1.8881  0.9194
   65MOL   H26749035   1.008   1.692   3.213 -0.4389 -0.7121  0.4362
   65MOL   C26849036   0.906   1.712   3.039  0.4281  0.3359  0.2326
   65MOL   O26949037   0.842   1.793   2.970  0.6972  0.1391  0.6009
   65MOL   C27049038   0.911   1.561   3.019  0.0751 -0.2212 -0.1793
   65MOL   C27149039   0.937   1.536   2.871 -0.0818  0.5934  0.0006
   65MOL   C27249040   0.896   1.389   2.825  0.9033  0.0925  0.0140
   65MOL   C27349041   0.939   1.362   2.681  0.7593 -1.4607 -0.3500
   65MOL   C27449042   0.894   1.226   2.627  0.2916  0.2063  0.1997
   65MOL   O27549043   0.914   1.125   2.690 -0.1875 -0.1965  0.5757
   65MOL   N27649044   0.829   1.232   2.506  0.2305  0.1771 -0.0367
   65MOL   C27749045   0.789   1.114   2.435 -0.1035  0.3808  0.0454
   65MOL   C27849046   0.635   1.099   2.423 -0.3741 -0.7403  0.1172
   65MOL   C27949047   0.568   1.072   2.554 -0.3481 -0.2759  0.1748
   65MOL   C28049048   0.429   1.027   2.541  0.0180  0.0444  0.8518
   65MOL   C28149049   0.340   1.002   2.667  0.4777  0.5382  0.1731
   65MOL   C28249050   0.185   1.019   2.640  0.6610  0.1257  0.0229
   65MOL   N28349051   0.112   1.037   2.764 -0.4318  0.1789  0.1109
   65MOL   H28449052   0.977   1.505   3.085  1.0641 -1.6056 -2.2920
   65MOL   H28549053   0.804   1.543   3.031 -0.1936  1.4518  0.1073
   65MOL   H28649054   0.874   1.607   2.817  1.3305  0.1020 -2.3934
   65MOL   H28749055   1.038   1.566   2.843  0.3879 -0.3170  0.7098
   65MOL   H28849056   0.789   1.372   2.834  1.2184 -1.8998  0.3299
   65MOL   H28949057   0.955   1.315   2.879 -0.7623 -1.5615 -0.3760
   65MOL   H29049058   1.047   1.358   2.688  0.7074 -0.7524  0.7857
   65MOL   H29149059   0.912   1.440   2.609 -0.1931 -0.7559  0.7532
   65MOL   H29249060   0.820   1.324   2.467  1.4917  0.4763  0.3753
   65MOL   H29349061   0.831   1.123   2.335 -1.5245 -0.4678 -0.6338
   65MOL   H29449062   0.823   1.018   2.474  0.6160  0.7053  0.2385
   65MOL   H29549063   0.594   1.190   2.380 -0.4612 -0.6812  0.3274
   65MOL   H29649064   0.627   1.011   2.359 -0.3955 -0.7527  0.1374
   65MOL   H29749065   0.556   1.170   2.602 -2.2678 -0.2228 -0.3787
   65MOL   H29849066   0.629   1.009   2.618 -1.3487 -1.1497  0.2753
   65MOL   H29949067   0.382   1.108   2.485  1.4236 -0.8539 -1.6938
   65MOL   H30049068   0.432   0.941   2.474  1.8756  1.1770 -0.5732
   65MOL   H30149069   0.359   0.903   2.710 -3.2286 -2.1852 -3.9654
   65MOL   H30249070   0.384   1.068   2.742 -0.7228 -0.3106  1.6500
   65MOL   H30349071   0.154   0.929   2.587  1.4261  1.2568 -2.3705
   65MOL   H30449072   0.170   1.108   2.579  0.0918  0.5280  0.7323
   65MOL   H30549073   0.096   0.953   2.817  1.8394 -0.4000 -0.0506
   65MOL   C30649074   0.069   1.144   2.835  0.3899 -0.3726 -0.1555
   65MOL   O30749075   0.093   1.258   2.796  0.1185  0.2670 -0.0389
   65MOL   C30849076   0.007   1.110   2.970  0.3692  0.4033 -1.0741
   65MOL   C30949077   7.612   1.209   3.018 -0.1883 -0.6316 -0.4324
   65MOL   C31049078   7.475   1.206   2.953  0.0633 -0.4218 -0.1448
   65MOL   C31149079   7.383   1.317   2.989  0.2223 -0.9181 -0.6138
   65MOL   C31249080   7.424   1.453   2.937  0.3222  0.7582 -0.8894
   65MOL   O31349081   7.450   1.467   2.815 -0.1452  0.3164  0.0715
   65MOL   N31449082   7.432   1.549   3.034  0.0584 -0.2981 -0.1501
   65MOL   C31549083   7.463   1.684   3.006  0.1822  0.3262 -0.2012
   65MOL   C31649084   7.604   1.707   3.044  0.5247 -0.1256 -0.2204
   65MOL   C31749085   7.657   1.844   3.027 -0.2422 -0.0505 -0.0810
   65MOL   C31849086   0.099   1.859   3.041  0.7676  0.0424  0.1949
   65MOL   C31949087   0.138   2.006   3.002 -0.5491  0.7929  0.0731
   65MOL   C32049088   0.105   2.116   3.104 -0.3958 -0.6562  0.4806
   65MOL   N32149089   0.091   2.240   3.036 -0.1994 -0.2818 -0.2676
   65MOL   H32249090   7.677   1.008   2.975 -0.1558  0.7065  1.5159
   65MOL   H32349091   0.087   1.114   3.044 -0.3463  2.0791 -0.3587
   65MOL   H32449092   7.602   1.192   3.125 -0.7443 -2.1155 -0.7212
   65MOL   H32549093   7.646   1.313   3.012  0.5714 -0.8111  0.6615
   65MOL   H32649094   7.427   1.116   2.991 -0.6369  0.0539  0.1072
   65MOL   H32749095   7.483   1.204   2.845  3.5088  2.2405 -0.0323
   65MOL   H32849096   7.350   1.309   3.093 -0.2833 -0.8099 -0.7616
   65MOL   H32949097   7.288   1.294   2.940 -0.5904 -0.1511  0.5812
   65MOL   H33049098   7.410   1.517   3.127  0.5319 -0.7213 -0.1779
   65MOL   H33149099   7.454   1.708   2.900 -1.3012 -0.9770 -0.3879
   65MOL   H33249100   7.396   1.738   3.074  0.0502 -1.4333  1.0874
   65MOL   H33349101   7.639   1.678   3.144  1.0230  0.3553 -0.2497
   65MOL   H33449102   7.668   1.652   2.975  1.3500  0.6531 -0.0790
   65MOL   H33549103   7.595   1.913   3.084 -0.3997  0.4180 -0.8077
   65MOL   H33649104   7.615   1.872   2.930 -0.8557 -1.2086 -0.1614
   65MOL   H33749105   0.136   1.846   3.143 -0.7624 -1.0079  0.6344
   65MOL   H33849106   0.149   1.782   2.983  2.3985  0.5321  0.9225
   65MOL   H33949107   0.247   2.005   2.995 -0.4818 -1.1376  1.0454
   65MOL   H34049108   0.098   2.036   2.905  2.6944  3.0605 -0.6546
   65MOL   H34149109   0.186   2.129   3.175  1.3419  0.2446 -1.6269
   65MOL   H34249110   0.014   2.108   3.164 -0.4487 -1.1953  0.3327
   65MOL   H34349111   0.179   2.289   3.030  0.1064 -1.1320 -3.0316
   65MOL   C34449112   7.680   2.295   3.013 -0.0193 -0.1577  0.2796
   65MOL   O34549113   7.576   2.236   3.033 -0.3625 -0.4344 -0.5091
   65MOL   C34649114   7.690   2.432   2.951  0.1939 -0.0260  0.5146
   65MOL   C34749115   7.585   2.450   2.838 -0.2925  0.2421 -0.3139
   65MOL   C34849116   7.576   2.596   2.788 -0.4131  0.5756  0.5180
   65MOL   C34949117   7.483   2.610   2.664  0.6182  0.4518 -0.4257
   65MOL   C35049118   7.335   2.579   2.705  0.1331  0.4258  0.9431
   65MOL   O35149119   7.290   2.614   2.813 -0.0418  0.1117 -0.4648
   65MOL   N35249120   7.262   2.515   2.611 -0.1939  0.5784  0.2171
   65MOL   C35349121   7.118   2.489   2.625  0.0662 -0.0738  0.6703
   65MOL   C35449122   7.076   2.404   2.749 -0.0119 -0.3272  0.2615
   65MOL   C35549123   6.966   2.306   2.715  0.0647 -0.6184  0.5122
   65MOL   C35649124   6.937   2.211   2.833 -0.4025  0.3551  0.2578
   65MOL   C35749125   6.802   2.147   2.826  0.9669  0.5275 -0.2068
   65MOL   C35849126   6.768   2.053   2.949 -1.0102  0.0361  0.4851
   65MOL   N35949127   6.750   2.137   3.071 -0.0170  0.5898  0.1001
   65MOL   H36049128   7.661   2.509   3.021  2.8799  2.2717 -0.8087
   65MOL   H36149129   0.083   2.441   2.910 -0.7398  0.0767 -1.8921
   65MOL   H36249130   7.609   2.387   2.752  0.0502 -0.4364  0.2806
   65MOL   H36349131   7.485   2.422   2.873 -0.4448 -0.0534 -0.9723
   65MOL   H36449132   7.679   2.623   2.767 -0.9069 -0.5342 -3.6989
   65MOL   H36549133   7.549   2.663   2.870 -1.2228  0.2608  0.5096
   65MOL   H36649134   7.522   2.556   2.577 -0.6052 -1.0917 -0.0474
   65MOL   H36749135   7.489   2.710   2.621  0.8905 -0.0298 -1.5345
   65MOL   H36849136   7.302   2.505   2.519 -0.2634  1.0931  0.1269
   65MOL   H36949137   7.064   2.584   2.626  0.1461 -0.0131 -0.2261
   65MOL   H37049138   7.068   2.441   2.540  0.0869  1.2689 -0.1142
   65MOL   H37149139   7.161   2.346   2.786 -1.0588 -0.2083  3.0218
   65MOL   H37249140   7.051   2.467   2.834  0.6017 -2.6017  2.1908
   65MOL   H37349141   6.998   2.251   2.626  0.9384 -0.4573  0.7262
   65MOL   H37449142   6.870   2.356   2.701  1.1921  1.2066 -0.9275
   65MOL   H37549143   7.012   2.132   2.837 -0.5407  0.1642 -0.9447
   65MOL   H37649144   6.936   2.276   2.921  1.5860  0.1499  0.4748
   65MOL   H37749145   6.719   2.216   2.836  1.2702  0.8691 -0.0203
   65MOL   H37849146   6.787   2.097   2.730 -1.5862 -0.3327  0.5981
   65MOL   H37949147   6.861   1.995   2.956 -0.9230  0.0621 -0.3810
   65MOL   H38049148   6.677   1.999   2.926 -2.8312  3.4450 -0.5605
   65MOL   H38149149   6.789   2.230   3.063 -0.3702  0.8512  1.3441
   65MOL   C38249150   6.702   2.085   3.183  0.2118 -0.1420 -0.5641
   65MOL   O38349151   6.647   1.976   3.191  0.1898 -1.1878  0.2486
   65MOL   C38449152   6.706   2.170   3.305  0.4113 -0.0538  0.4225
   65MOL   C38549153   6.850   2.192   3.348 -0.5461  0.1631 -0.6676
   65MOL   C38649154   6.867   2.272   3.478  0.7021 -0.0344 -0.2192
   65MOL   C38749155   7.015   2.289   3.524  0.9484 -0.0504  0.2754
   65MOL   C38849156   7.020   2.346   3.671 -0.2068  0.3844 -0.1707
   65MOL   O38949157   6.928   2.417   3.713  0.1336 -0.1931 -0.0941
   65MOL   N39049158   7.127   2.305   3.743  0.5152  0.4176  0.2877
   65MOL   C39149159   7.165   2.347   3.876  0.3666  0.3672  0.2488
   65MOL   C39249160   7.307   2.294   3.913  0.3262 -0.2565  0.2399
   65MOL   C39349161   7.365   2.348   4.042  0.0195 -0.1341  0.1330
   65MOL   C39449162   7.503   2.288   4.090 -0.1499 -0.1254  0.5479
   65MOL   C39549163   7.553   2.340   4.229  0.1195 -0.2726 -0.0457
   65MOL   C39649164   7.653   2.454   4.224  0.5998 -0.2228 -0.3738
   65MOL   N39749165   7.703   2.480   4.356 -0.2177  0.4290 -0.1018
   65MOL   H39849166   6.658   2.267   3.296 -1.7111 -1.0204  0.7858
   65MOL   H39949167   6.651   2.127   3.389 -0.3522  0.9233  0.4264
   65MOL   H40049168   6.906   2.099   3.355 -1.0751 -0.1276 -0.3456
   65MOL   H40149169   6.915   2.239   3.274  0.8978  1.7321  1.5048
   65MOL   H40249170   6.818   2.216   3.557 -0.8866 -0.0634 -1.2026
   65MOL   H40349171   6.809   2.364   3.485  0.5826 -0.1945  0.9978
   65MOL   H40449172   7.064   2.361   3.459  0.7708  0.0287  0.2293
   65MOL   H40549173   7.067   2.194   3.512  1.1290  0.1532 -0.5818
   65MOL   H40649174   7.175   2.224   3.707  1.4894 -0.3648  3.1429
   65MOL   H40749175   7.160   2.453   3.896  1.4262  0.0810  2.1384
   65MOL   H40849176   7.091   2.309   3.946 -1.0556  1.4212 -0.6673
   65MOL   H40949177   7.302   2.185   3.919  1.5510 -0.3212  0.3006
   65MOL   H41049178   7.369   2.306   3.824  0.5582 -2.3641  0.0831
   65MOL   H41149179   7.289   2.333   4.118 -1.5109  0.1239 -1.3365
   65MOL   H41249180   7.373   2.456   4.033 -2.4323  0.0913  0.4705
   65MOL   H41349181   7.508   2.180   4.104  1.6819 -0.0011  0.8905
   65MOL   H41449182   7.572   2.311   4.009  1.0390  0.4091  1.7070
   65MOL   H41549183   7.463   2.378   4.279  0.4151 -1.1017  1.1411
   65MOL   H41649184   7.577   2.253   4.289  1.6182  0.5237  0.5331
   65MOL   H41749185   7.597   2.541   4.189  0.3612 -0.6573 -1.0670
   65MOL   H41849186   0.016   2.424   4.147  1.9111  0.5454  0.5027
   65MOL   H41949187   0.090   2.455   4.378 -0.1422  1.6790  1.0448
   65MOL   C42049188   7.641   2.548   4.457 -0.4385  0.1947 -0.4869
   65MOL   O42149189   7.534   2.607   4.441  0.4943  0.3667  0.4612
   65MOL   C42249190   0.018   2.570   4.580 -0.2870  0.2562 -0.2302
   65MOL   C42349191   0.055   2.717   4.601  0.3206 -0.3558  0.3138
   65MOL   C42449192   0.171   2.777   4.530  1.2090  0.7701 -0.1471
   65MOL   C42549193   0.166   2.769   4.371  0.0855 -0.1355 -0.6284
   65MOL   C42649194   0.078   2.872   4.306 -0.4859  0.4224 -0.6720
   65MOL   O42749195   0.117   2.991   4.289 -0.0316 -0.4480  0.0371
   65MOL   N42849196   7.667   2.833   4.265 -0.1717 -0.2422 -0.3544
   65MOL   C42949197   7.576   2.919   4.187 -0.5048  0.6506  0.6253
   65MOL   C43049198   7.453   2.943   4.272  0.3399  0.0759 -0.5221
   65MOL   C43149199   7.345   2.830   4.304  0.2170  0.2725 -0.0044
   65MOL   C43249200   7.322   2.733   4.183  0.2054  0.4179  0.2157
   65MOL   C43349201   7.280   2.791   4.052  0.4285 -0.3967 -0.2337
   65MOL   C43449202   7.162   2.889   4.056 -0.0363 -0.0022 -0.7298
   65MOL   N43549203   7.111   2.921   3.929  0.4619 -0.5398  1.0286
   65MOL   H43649204   7.661   2.536   4.661  0.9502  0.1097  0.7149
   65MOL   H43749205   0.116   2.524   4.574 -0.2840  0.4045 -1.4046
   65MOL   H43849206   7.676   2.783   4.597  0.2482 -0.5531 -1.8192
   65MOL   H43949207   0.086   2.717   4.706  2.2901  1.8965 -0.2368
   65MOL   H44049208   0.255   2.720   4.570  1.8168  1.8988  0.2434
   65MOL   H44149209   0.199   2.879   4.557 -0.2845  1.1677 -0.0568
   65MOL   H44249210   0.135   2.671   4.335 -1.5013 -0.5043  1.6044
   65MOL   H44349211   0.265   2.787   4.328 -0.2570  0.9126 -0.9891
   65MOL   H44449212   7.637   2.737   4.276  1.1091 -1.0498 -3.3631
   65MOL   H44549213   7.618   3.015   4.158 -1.6614  1.0746  0.3184
   65MOL   H44649214   7.551   2.871   4.092 -0.7442  0.6311  0.6979
   65MOL   H44749215   7.472   2.989   4.369  0.3245 -0.8149 -0.0932
   65MOL   H44849216   7.400   3.023   4.221 -0.0347  1.4845  2.0044
   65MOL   H44949217   7.248   2.870   4.335  0.9830  0.2426  2.5933
   65MOL   H45049218   7.376   2.769   4.389  0.9207  0.5802 -0.0375
   65MOL   H45149219   7.417   2.680   4.170  0.3064  0.0502  2.2230
   65MOL   H45249220   7.256   2.652   4.214 -0.3672  1.1416  0.8929
   65MOL   H45349221   7.354   2.846   3.994 -1.6635  1.5854 -1.0768
   65MOL   H45449222   7.265   2.706   3.985 -0.7659 -1.0068  0.7781
   65MOL   H45549223   7.188   2.981   4.107 -1.2809 -0.2539  0.4078
   65MOL   H45649224   7.083   2.844   4.116  1.0480 -0.5198  0.3265
   65MOL   H45749225   7.134   2.865   3.849 -0.3617 -0.9444  1.0768
   65MOL   C45849226   7.017   3.012   3.908  0.2957 -0.8595 -0.2757
   65MOL   O45949227   6.959   3.073   3.999 -0.0819 -0.0898 -0.0597
   65MOL   C46049228   6.964   3.017   3.768  0.2720  0.6956  0.1305
   65MOL   C46149229   7.021   3.131   3.689  0.4826 -0.4917  0.0682
   65MOL   C46249230   7.162   3.098   3.631 -0.9045 -0.6110  0.1635
   65MOL   C46349231   7.234   3.213   3.555  0.6885 -0.3440  0.1016
   65MOL   C46449232   7.156   3.276   3.431 -0.5514 -0.3239 -0.3842
   65MOL   O46549233   7.058   3.350   3.442  0.0705  0.1246 -0.4779
   65MOL   N46649234   7.200   3.247   3.307  0.7645 -0.3564  0.0703
   65MOL   C46749235   7.123   3.291   3.187 -0.7323  0.0327  0.4584
   65MOL   C46849236   7.005   3.194   3.170  0.3725 -0.6990 -0.1880
   65MOL   C46949237   6.950   3.201   3.027 -0.5572  0.1211  0.7192
   65MOL   C47049238   6.806   3.152   3.016  0.0853 -0.1595 -0.8289
   65MOL   C47149239   6.754   3.137   2.871  0.2644  0.3934 -0.7698
   65MOL   C47249240   6.704   3.264   2.810 -0.0633 -0.5420 -0.5472
   65MOL   N47349241   6.813   3.349   2.769 -0.0955 -0.2094 -0.8930
   65MOL   H47449242   6.992   2.919   3.730 -1.7935  1.4298 -3.5466
   65MOL   H47549243   6.856   3.029   3.777  0.5831  2.0604  2.2503
   65MOL   H47649244   6.955   3.162   3.609 -0.3992 -0.3748  0.8365
   65MOL   H47749245   7.038   3.219   3.752  0.9312 -2.1102  2.2738
   65MOL   H47849246   7.149   3.023   3.553 -1.9455  0.9384 -1.2002
   65MOL   H47949247   7.226   3.058   3.710 -0.1551 -0.3455 -0.3034
   65MOL   H48049248   7.326   3.166   3.520  0.4208 -1.5649  1.0364
   65MOL   H48149249   7.260   3.302   3.612 -0.6551  0.7128 -0.8674
   65MOL   H48249250   7.278   3.185   3.289  1.3622  0.6995 -1.1502
   65MOL   H48349251   7.108   3.399   3.180  1.2085  0.3646  1.1555
   65MOL   H48449252   7.190   3.267   3.104 -0.5623 -0.6309  0.7829
   65MOL   H48549253   7.039   3.094   3.199  2.1792  0.2939  1.2561
   65MOL   H48649254   6.937   3.215   3.253  3.6631  3.5402  1.6162
   65MOL   H48749255   7.012   3.147   2.955 -1.0769  0.8697 -0.2999
   65MOL   H48849256   6.953   3.304   2.991  1.0301 -0.0907  0.1982
   65MOL   H48949257   6.796   3.051   3.055 -0.8708  0.4035  0.4516
   65MOL   H49049258   6.727   3.212   3.062 -0.0605 -0.5563 -0.5548
   65MOL   H49149259   6.828   3.085   2.811 -1.1243 -0.1497 -2.0093
   65MOL   H49249260   6.663   3.079   2.862  0.3577  0.0807  0.1917
   65MOL   H49349261   6.644   3.327   2.875 -2.2305 -0.1940 -2.7977
   65MOL   H49449262   6.634   3.248   2.728  0.0101  1.8002 -1.1333
   65MOL   H49549263   6.909   3.324   2.787  0.2247  2.1215  0.7963
   65MOL   C49649264   6.796   3.460   2.697 -0.4577  0.1661  0.5770
   65MOL   O49749265   6.692   3.499   2.647 -0.2520  0.1365 -0.4526
   65MOL   C49849266   6.924   3.546   2.674 -0.3826  0.2553 -0.0485
   65MOL   C49949267   6.894   3.697   2.676 -0.2570 -0.3126  1.0368
   65MOL   C50049268   7.023   3.776   2.638  0.6943  0.5409  0.1995
   65MOL   C50149269   7.002   3.919   2.578  0.0115  0.1936  0.0697
   65MOL   C50249270   6.956   4.026   2.671  0.3396 -0.0630 -0.1787
   65MOL   O50349271   6.837   4.056   2.679 -0.4255 -0.6060 -0.0846
   65MOL   N50449272   7.055   4.085   2.743  0.3159  0.3935 -0.8137
   65MOL   C50549273   7.043   4.202   2.831 -0.9236  0.1301  0.1899
   65MOL   C50649274   6.958   4.190   2.963  0.0258 -0.6990  0.2484
   65MOL   C50749275   6.924   4.319   3.039 -0.0496 -0.7815 -0.7301
   65MOL   C50849276   6.799   4.290   3.125 -0.4158 -0.2284 -0.0793
   65MOL   C50949277   6.808   4.201   3.250 -0.1349  0.0224 -0.2102
   65MOL   C51049278   6.683   4.191   3.326  0.0822  0.6444  0.0508
   65MOL   N51149279   6.703   4.108   3.444 -0.1604  0.6835 -0.0354
   65MOL   H51249280   6.996   3.539   2.756  0.6181  1.8514 -0.7666
   65MOL   H51349281   6.980   3.515   2.585  2.1122  1.1600  1.1410
   65MOL   H51449282   6.814   3.722   2.607  0.7034  1.7499  0.6368
   65MOL   H51549283   6.856   3.733   2.772 -0.0991  1.9504  0.2744
   65MOL   H51649284   7.078   3.732   2.555 -0.2432 -2.4429  1.1098
   65MOL   H51749285   7.093   3.767   2.721 -0.0559  0.0059  0.7695
   65MOL   H51849286   6.936   3.916   2.491 -0.2926 -1.0386  0.3398
   65MOL   H51949287   7.102   3.948   2.546  0.7537 -1.4017  0.8929
   65MOL   H52049288   7.148   4.057   2.717  0.8216  0.7624  0.5690
   65MOL   H52149289   7.147   4.229   2.853 -0.2999 -0.9382 -1.2997
   65MOL   H52249290   6.989   4.266   2.762 -2.9319 -3.2866 -1.5589
   65MOL   H52349291   6.884   4.111   2.953 -2.0106  1.1286  0.5868
   65MOL   H52449292   7.024   4.134   3.030 -1.4344 -1.4149  1.1048
   65MOL   H52549293   6.911   4.407   2.975  2.0297 -1.2224 -1.8249
   65MOL   H52649294   7.000   4.347   3.113  1.4012 -3.3879 -1.1840
   65MOL   H52749295   6.753   4.383   3.160  1.5727  1.0300 -0.6771
   65MOL   H52849296   6.718   4.252   3.063 -2.9126  2.5556  1.3609
   65MOL   H52949297   6.860   4.106   3.235  2.3793  1.1275  1.1369
   65MOL   H53049298   6.875   4.253   3.319 -2.2422  1.9563  0.4469
   65MOL   H53149299   6.603   4.159   3.259 -0.5119  3.1844 -0.5285
   65MOL   H53249300   6.643   4.286   3.362 -2.4605 -0.8069  1.2182
   65MOL   H53349301   6.772   4.142   3.510 -0.3043 -0.9835  0.9965
   65MOL   C53449302   6.635   3.997   3.473  0.1259 -0.0196 -0.5482
   65MOL   O53549303   6.541   3.955   3.401  0.2680  0.5583  0.0422
   65MOL   C53649304   6.673   3.927   3.604 -0.0729  0.1277  0.1925
   65MOL   C53749305   6.754   3.793   3.574 -0.3724  0.3800  0.4338
   65MOL   C53849306   6.902   3.824   3.519  0.3071  0.0862 -0.6675
   65MOL   C53949307   6.974   3.700   3.460  0.4990 -0.4196  0.3667
   65MOL   C54049308   7.100   3.747   3.380 -0.9713  0.4983  0.0401
   65MOL   O54149309   7.209   3.755   3.438  0.2354 -0.0785 -0.7549
   65MOL   N54249310   7.073   3.781   3.250 -1.0051 -0.0695  0.5561
   65MOL   C54349311   7.170   3.840   3.154 -0.9084 -0.5007  0.5236
   65MOL   C54449312   7.248   3.736   3.074 -0.3934 -0.7204 -0.2648
   65MOL   C54549313   7.334   3.796   2.961  0.8026 -0.1177  0.2163
   65MOL   C54649314   7.416   3.703   2.869 -0.0874 -0.1911  0.0258
   65MOL   C54749315   7.329   3.600   2.787 -0.3554 -0.5633  0.5424
   65MOL   C54849316   7.409   3.489   2.717  0.5206 -0.2558  0.0970
   65MOL   N54949317   7.330   3.417   2.612  0.3019  0.4415  0.4194
   65MOL   H55049318   6.711   3.994   3.680  1.8450 -0.7570  0.0593
   65MOL   H55149319   6.573   3.900   3.637 -0.5691  2.5337  0.7093
   65MOL   H55249320   6.766   3.753   3.675 -1.4478  1.5306  1.0389
   65MOL   H55349321   6.697   3.744   3.495  0.6973  0.2150 -0.2403
   65MOL   H55449322   6.962   3.858   3.604  0.9459 -0.2872 -0.9635
   65MOL   H55549323   6.897   3.908   3.450 -0.6717  1.4780  1.0614
   65MOL   H55649324   6.908   3.655   3.385 -2.2248  1.4912  1.5345
   65MOL   H55749325   7.013   3.623   3.527  1.7010 -0.9249 -0.8792
   65MOL   H55849326   6.978   3.775   3.216 -0.4505 -0.9649 -0.8741
   65MOL   H55949327   7.112   3.904   3.088 -1.4210 -2.2288 -0.7149
   65MOL   H56049328   7.235   3.905   3.214  0.9069 -2.1304  0.3907
   65MOL   H56149329   7.314   3.674   3.134  0.5917 -0.3354 -0.9408
   65MOL   H56249330   7.174   3.669   3.029 -0.8125 -0.2660 -0.2590
   65MOL   H56349331   7.402   3.870   3.003  0.7773 -0.2557  0.4965
   65MOL   H56449332   7.263   3.856   2.902  0.3336  0.9117  1.7911
   65MOL   H56549333   7.482   3.751   2.797 -0.1601 -2.8953 -1.9144
   65MOL   H56649334   7.489   3.652   2.931  0.9623 -0.0008 -1.0468
   65MOL   H56749335   7.251   3.559   2.851 -1.5379 -1.7676 -1.5969
   65MOL   H56849336   7.275   3.656   2.710 -3.8476 -2.5433  1.4416
   65MOL   H56949337   7.440   3.424   2.799  1.2787  1.3802  1.1139
   65MOL   H57049338   7.492   3.532   2.662 -0.4045 -0.8950 -1.8638
   65MOL   H57149339   7.380   3.401   2.526  0.7520  0.1646  0.7343
   65MOL   C57249340   7.213   3.347   2.630 -0.5722  0.4738  0.0151
   65MOL   O57349341   7.150   3.329   2.736 -0.1193  0.0987 -0.2198
   65MOL   C57449342   7.147   3.288   2.497  0.1882  0.0536 -0.0137
   65MOL   C57549343   7.087   3.143   2.520 -0.1194  0.0079  0.5372
   65MOL   C57649344   7.190   3.035   2.548 -0.2412  0.4984  0.1109
   65MOL   C57749345   7.131   2.896   2.532  0.0225  0.2866  0.3651
   65MOL   C57849346   7.017   2.862   2.637 -0.3205 -0.3545 -0.0204
   65MOL   O57949347   6.899   2.851   2.602  0.0803  0.2323  0.1574
   65MOL   N58049348   7.063   2.826   2.755 -0.6649  0.5634  0.2179
   65MOL   C58149349   6.978   2.783   2.867 -0.5948  0.0831 -0.1796
   65MOL   C58249350   7.060   2.779   3.003  0.1800  0.4643 -1.0695
   65MOL   C58349351   6.996   2.706   3.124  0.3587 -0.1315  0.0872
   65MOL   C58449352   7.071   2.733   3.250  0.3654  0.2356 -0.7132
   65MOL   C58549353   7.011   2.655   3.369 -0.0737 -0.7325 -0.1305
   65MOL   C58649354   7.071   2.689   3.509  0.1501  0.2557  0.1792
   65MOL   N58749355   7.207   2.640   3.546  0.4811  0.8300 -0.5784
   65MOL   H58849356   7.071   3.360   2.467  0.8834  0.9776  0.4572
   65MOL   H58949357   7.230   3.276   2.427 -0.3893 -0.1575 -0.6713
   65MOL   H59049358   7.023   3.144   2.608  0.0532  0.9673  0.6584
   65MOL   H59149359   7.028   3.123   2.431 -1.1055  1.1027  0.9408
   65MOL   H59249360   7.231   3.048   2.648 -0.9157  2.1846  0.1838
   65MOL   H59349361   7.277   3.052   2.485  0.0260 -0.0946  0.3122
   65MOL   H59449362   7.212   2.823   2.529  1.1615  1.4859  1.1073
   65MOL   H59549363   7.091   2.893   2.431 -0.0182 -0.6703  0.3984
   65MOL   H59649364   7.161   2.807   2.771 -0.9705 -1.7584 -0.5590
   65MOL   H59749365   6.908   2.865   2.881  2.4598  2.3769  2.5689
   65MOL   H59849366   6.920   2.693   2.846 -1.0939 -0.1442  2.1426
   65MOL   H59949367   7.157   2.732   2.990  0.9269  1.2133  1.5196
   65MOL   H60049368   7.066   2.885   3.029 -1.1428 -0.1980  2.1749
   65MOL   H60149369   6.994   2.599   3.105 -2.5251 -0.1852  0.3930
   65MOL   H60249370   6.892   2.739   3.133  0.4913  0.2235  0.3158
   65MOL   H60349371   7.176   2.706   3.239  0.3722  1.2678 -3.4365
   65MOL   H60449372   7.085   2.838   3.272  1.8159 -0.5442  2.4197
   65MOL   H60549373   6.903   2.658   3.373 -0.0925 -2.2175  1.3577
   65MOL   H60649374   7.034   2.550   3.352  0.8655 -0.1846 -2.3727
   65MOL   H60749375   7.010   2.640   3.586 -0.6172 -0.2421 -0.7351
   65MOL   H60849376   7.064   2.795   3.532  1.6673  0.2288  0.8060
   65MOL   H60949377   7.251   2.572   3.486  2.0820  1.1595  0.1907
   65MOL   C61049378   7.279   2.668   3.655  0.2560  0.0841  0.1907
   65MOL   O61149379   7.229   2.725   3.752  0.7884 -0.1726  0.6758
   65MOL   C61249380   7.424   2.612   3.666  0.4248 -0.3234  0.6815
   65MOL   C61349381   7.496   2.665   3.794 -0.0874 -0.3239  0.2639
   65MOL   C61449382   7.645   2.644   3.795 -0.1179 -0.0373  0.3662
   65MOL   C61549383   0.010   2.714   3.910  0.5323 -0.2666  0.1523
   65MOL   C61649384   0.159   2.737   3.888 -0.6424  0.0432  0.2329
   65MOL   O61749385   0.211   2.680   3.792  0.1853  0.2700  0.7004
   65MOL   N61849386   0.224   2.818   3.969  0.6839 -0.6116 -0.1873
   65MOL   C61949387   0.365   2.844   3.962  0.2054 -0.0198  0.1413
   65MOL   C62049388   0.389   2.972   3.879 -0.3227  0.6815  0.2502
   65MOL   C62149389   0.293   3.090   3.908  0.3047  0.1184  0.6798
   65MOL   C62249390   0.290   3.145   4.045  0.0012 -0.5715 -0.2155
   65MOL   C62349391   0.180   3.257   4.066 -0.0828  0.1694  0.5984
   65MOL   C62449392   0.209   3.339   4.194  0.0267  0.6445 -0.2566
   65MOL   N62549393   0.191   3.260   4.314  0.0880  0.3842 -0.4541
   65MOL   H62649394   7.418   2.505   3.684 -1.5364 -0.2293  0.7834
   65MOL   H62749395   7.487   2.622   3.578 -1.1380  1.3851 -0.2867
   65MOL   H62849396   7.487   2.772   3.811  2.4146  0.0363 -0.5195
   65MOL   H62949397   7.448   2.621   3.882 -0.4998  1.8172  1.1343
   65MOL   H63049398   7.695   2.677   3.704  1.6507  1.0295  1.6960
   65MOL   H63149399   7.659   2.536   3.804  1.0144  0.1001  0.3699
   65MOL   H63249400   0.014   2.661   4.005  1.1187 -0.5733 -0.0422
   65MOL   H63349401   7.665   2.808   3.924 -3.5372 -2.5406  0.7359
   65MOL   H63449402   0.161   2.870   4.029  1.0257  0.0976 -0.4382
   65MOL   H63549403   0.393   2.871   4.064  1.0153  1.3737 -0.4290
   65MOL   H63649404   0.411   2.749   3.938 -0.5441 -0.1374 -0.8630
   65MOL   H63749405   0.495   2.995   3.894  0.2041 -2.1480  1.3211
   65MOL   H63849406   0.384   2.939   3.775 -0.3435 -0.3405  0.5693
   65MOL   H63949407   0.194   3.056   3.879 -0.1357  2.2497 -0.3926
   65MOL   H64049408   0.317   3.172   3.841  0.1830  1.2694  2.0258
   65MOL   H64149409   0.285   3.069   4.124 -2.4140  0.2213  0.4348
   65MOL   H64249410   0.387   3.193   4.063  1.2283 -2.7059 -0.9007
   65MOL   H64349411   0.169   3.316   3.975 -0.2025 -0.7698 -0.0085
   65MOL   H64449412   0.078   3.218   4.071 -1.2464  2.6977 -1.9771
   65MOL   H64549413   0.139   3.423   4.198 -1.5373 -0.6113 -0.6132
   65MOL   H64649414   0.308   3.382   4.184 -0.2919  1.5127  0.2782
   65MOL   H64749415   0.162   3.163   4.307 -1.5299  0.7707  0.5290
   65MOL   C64849416   0.228   3.290   4.435  0.1281  0.1889 -0.7029
   65MOL   O64949417   0.274   3.399   4.461 -0.6839  0.2762 -0.4125
   65MOL   C65049418   0.205   3.181   4.543 -0.5929 -0.3787 -0.2013
   65MOL   C65149419   0.214   3.234   4.687 -0.4584 -0.1433 -0.3576
   65MOL   C65249420   0.087   3.299   4.740  0.2431 -0.1198  0.1632
   65MOL   C65349421   0.106   3.366   4.878 -0.0050 -0.1114  0.2316
   65MOL   C65449422   7.685   3.374   4.963  0.3635 -0.0141  0.4776
   65MOL   O65549423   7.600   3.280   4.975 -0.1966  0.4435  0.2385
   65MOL   N65649424   7.666   3.493   5.027  0.5300  0.1900  0.7288
   65MOL   C65749425   7.546   3.528   5.106  0.7803 -0.7414 -0.6399
   65MOL   C65849426   7.560   3.489   5.248  0.4972  0.0513  0.0484
   65MOL   C65949427   7.456   3.532   5.348  0.1789 -0.3750  0.3653
   65MOL   C66049428   7.495   3.503   5.498 -1.2118 -0.3115  0.5424
   65MOL   C66149429   7.394   3.557   5.600 -0.1263 -0.3677 -0.3038
   65MOL   C66249430   7.404   3.715   5.616  0.0180 -0.1551  0.6235
   65MOL   N66349431   7.537   3.760   5.661 -0.5354  0.0111  0.1414
   65MOL   H66449432   0.113   3.128   4.518 -0.3897 -0.2351 -1.3063
   65MOL   H66549433   0.282   3.104   4.528  0.3826  0.5895 -0.2058
   65MOL   H66649434   0.243   3.148   4.747 -2.0293 -0.6885 -0.3669
   65MOL   H66749435   0.297   3.304   4.695  0.2982 -1.0338 -0.3670
   65MOL   H66849436   0.010   3.222   4.733 -0.8851  0.7533  2.5875
   65MOL   H66949437   0.059   3.383   4.677 -0.4529  2.3903  3.7462
   65MOL   H67049438   0.140   3.469   4.871  1.6839 -0.6598  0.1458
   65MOL   H67149439   0.184   3.312   4.932  1.1263  1.6109  0.3740
   65MOL   H67249440   0.030   3.563   5.025 -0.8553  1.7915  3.1585
   65MOL   H67349441   7.534   3.636   5.102  0.0630 -0.7267  1.4083
   65MOL   H67449442   7.455   3.492   5.060  1.1156 -2.7477  0.1916
   65MOL   H67549443   7.564   3.380   5.246 -2.3876 -0.0821 -1.6143
   65MOL   H67649444   7.662   3.508   5.281  0.2603 -1.3294  1.6577
   65MOL   H67749445   7.361   3.489   5.317 -0.6573 -0.0167  2.3836
   65MOL   H67849446   7.442   3.639   5.331  1.1326 -0.6485 -2.5335
   65MOL   H67949447   7.500   3.395   5.505  0.6288 -0.1531  1.8947
   65MOL   H68049448   7.596   3.543   5.504 -0.0503 -3.3671  2.7944
   65MOL   H68149449   7.299   3.519   5.563  0.4752 -0.7318 -1.5001
   65MOL   H68249450   7.409   3.512   5.698 -2.0099 -4.1709 -1.6994
   65MOL   H68349451   7.326   3.757   5.679  1.5386  2.1608  1.0025
   65MOL   H68449452   7.367   3.753   5.521  0.1561 -1.0531  0.2055
   65MOL   H68549453   7.598   3.823   5.611  0.8936 -1.9727 -0.6683
   65MOL   C68649454   7.595   3.722   5.777  0.3392 -0.5019  1.2850
   65MOL   O68749455   7.534   3.657   5.862 -0.1287  0.4635  0.4135
   65MOL   C68849456   0.034   3.762   5.801 -0.6478  0.3125  0.5101
   65MOL   C68949457   0.055   3.891   5.882 -0.7660 -0.0489 -0.6353
   65MOL   C69049458   7.708   3.871   6.037 -0.9926 -0.3632  0.4270
   65MOL   C69149459   0.021   3.984   6.145 -0.3468  0.0448 -0.5650
   65MOL   C69249460   7.696   4.130   6.095 -0.4987  0.0733  0.3435
   65MOL   O69349461   7.580   4.169   6.094  0.2168  0.4890  0.5113
   65MOL   N69449462   0.089   4.189   6.045 -0.3994 -0.2828 -0.0433
   65MOL   C69549463   0.084   4.291   5.941  0.3351 -0.0701 -0.4524
   65MOL   C69649464   0.058   4.434   6.001  0.1058 -1.2187  0.2357
   65MOL   C69749465   0.080   4.555   5.906  0.1970  0.4727 -0.7086
   65MOL   C69849466   0.057   4.690   5.970 -0.7231 -0.6564  0.2240
   65MOL   C69949467   0.074   4.805   5.874  0.2376 -1.1924 -0.3262
   65MOL   C70049468   0.073   4.934   5.947 -0.4304 -0.3860  0.0013
   65MOL   N70149469   0.079   5.036   5.845 -0.0694 -0.4626  0.3169
   65MOL   H70249470   0.080   3.683   5.860 -1.5872 -0.9792 -0.4619
   65MOL   H70349471   0.087   3.772   5.706  2.5349 -1.1128  2.0481
   65MOL   H70449472   0.161   3.915   5.885 -0.3316 -1.9483  0.0363
   65MOL   H70549473   7.700   3.972   5.844 -1.2149 -0.2826 -0.3954
   65MOL   H70649474   0.035   3.777   6.078  0.2963  0.8920  2.3266
   65MOL   H70749475   7.601   3.850   6.037 -0.8232 -1.2454  0.9468
   65MOL   H70849476   0.122   3.970   6.182 -0.8915 -1.7006  0.3530
   65MOL   H70949477   7.668   3.961   6.232 -0.5576  0.4262 -0.6130
   65MOL   H71049478   0.174   4.135   6.053  0.0451  0.2271 -1.1813
   65MOL   H71149479   0.180   4.275   5.891 -0.5155  0.4727 -2.3220
   65MOL   H71249480   0.006   4.255   5.874  1.2920  0.1701 -1.7406
   65MOL   H71349481   7.662   4.433   6.033  0.2534 -1.7971  0.7059
   65MOL   H71449482   0.128   4.447   6.083  2.7695 -0.3748 -2.1139
   65MOL   H71549483   0.018   4.545   5.816 -0.6474  0.7451 -0.1550
   65MOL   H71649484   0.179   4.548   5.862  0.1023 -3.7451 -0.4360
   65MOL   H71749485   7.666   4.675   6.012 -1.4589  1.0607 -0.8452
   65MOL   H71849486   0.119   4.711   6.057  0.0385 -0.3731 -0.3818
   65MOL   H71949487   0.167   4.786   5.820  0.4709 -2.2961  0.4434
   65MOL   H72049488   7.701   4.794   5.802 -1.3448  0.0891  1.2183
   65MOL   H72149489   0.172   4.939   5.993  1.4040 -3.5882 -3.4246
   65MOL   H72249490   7.705   4.958   6.022 -1.0035 -0.6680 -0.4901
   65MOL   H72349491   0.172   5.048   5.805  0.1409 -2.6671  0.1014
   65MOL   C72449492   7.687   5.117   5.790  0.4290  0.3377  0.9891
   65MOL   O72549493   7.569   5.096   5.807  0.3076  0.1959 -0.5326
   65MOL   C72649494   0.021   5.235   5.697 -0.3839 -0.1463  0.4876
   65MOL   C72749495   7.660   5.239   5.559 -0.4829 -0.5332  0.6507
   65MOL   C72849496   0.022   5.315   5.454  0.0936 -0.3479 -0.1862
   65MOL   C72949497   7.659   5.313   5.318  0.1360 -0.3408 -0.2468
   65MOL   C73049498   0.045   5.345   5.202 -0.1187  0.5325  0.2042
   65MOL   O73149499   0.129   5.434   5.215 -0.0400 -0.6910  0.0503
   65MOL   N73249500   0.039   5.264   5.092  0.8262 -0.1030  0.1549
   65MOL   C73349501   0.146   5.255   4.994 -0.3762  0.2348  0.3485
   65MOL   C73449502   0.102   5.162   4.875 -0.1704  0.3737 -0.4378
   65MOL   C73549503   0.213   5.169   4.767  0.4959  0.4838 -0.4375
   65MOL   C73649504   0.187   5.056   4.663 -1.1681 -0.4768 -0.1547
   65MOL   C73749505   0.261   5.083   4.536 -0.2710  0.0120  0.2187
   65MOL   C73849506   0.267   4.956   4.447 -0.1379 -0.1204  0.7692
   65MOL   N73949507   0.380   4.970   4.355 -0.2569  0.3183  0.2125
   65MOL   H74049508   7.701   5.329   5.746  2.5709  0.0073  2.0324
   65MOL   H74149509   0.130   5.237   5.695 -0.4112  1.1157 -0.3657
   65MOL   H74249510   7.653   5.133   5.532  0.0335 -0.7738  1.4298
   65MOL   H74349511   7.558   5.272   5.573 -0.3385 -0.1723  0.8550
   65MOL   H74449512   0.110   5.252   5.445 -0.5541 -1.3196  0.2703
   65MOL   H74549513   0.055   5.413   5.490  0.6320 -0.7082  0.3041
   65MOL   H74649514   7.578   5.385   5.318 -0.2443 -0.7725 -1.0207
   65MOL   H74749515   7.611   5.219   5.294 -1.5656  0.3602  0.3219
   65MOL   H74849516   7.669   5.200   5.085 -1.4046  2.4836  0.3075
   65MOL   H74949517   0.159   5.356   4.954 -2.3060 -0.1339 -1.2629
   65MOL   H75049518   0.248   5.232   5.025  0.3400 -2.9091 -3.8556
   65MOL   H75149519   0.081   5.068   4.926 -1.4751  1.2890  0.7624
   65MOL   H75249520   0.007   5.204   4.843  0.4100  1.3753 -0.8670
   65MOL   H75349521   0.306   5.142   4.818 -1.1311 -1.3875  1.6080
   65MOL   H75449522   0.206   5.267   4.721 -1.6660  0.7251  0.3833
   65MOL   H75549523   0.208   4.966   4.721  1.1577 -0.8212 -1.4620
   65MOL   H75649524   0.081   5.038   4.644 -0.8945 -2.3158 -0.0398
   65MOL   H75749525   0.228   5.175   4.486 -2.1431 -0.6969  0.1136
   65MOL   H75849526   0.363   5.104   4.567 -0.0672 -1.1653  0.3569
   65MOL   H75949527   0.177   4.934   4.390 -0.2761 -1.5037  1.4839
   65MOL   H76049528   0.290   4.862   4.498 -1.2712 -1.0305 -0.3545
   65MOL   H76149529   0.471   4.990   4.393 -1.1018 -0.0514  2.5141
   65MOL   H76249530   0.399   4.880   4.313 -0.9315  0.4255 -0.3474
   7.70810   7.70810   7.70810
